 argument  1 = H2-0.8.nw



============================== echo of input deck ==============================
title "swnc: e theory=pspw4 xc=hf formula=H2 charge=0 mult=1"
#machinejob:expert

echo

start pspw_hf_H2

memory heap 1200 mb stack 1200 mb global 10 mb

charge 0

geometry
H    0.00000    0.00000   -0.4000
H    0.00000    0.00000    0.4000
end

nwpw
  ### pseudopotential block begin ###
  ### pseudopotential block end   ###
  simulation_cell
     SC 15.0000
     boundary_conditions aperiodic
  end

  cutoff 50.0
  mult 1
  xc hf
  lmbfgs
  tolerances 1.0e-9 1.0e-9

  virtual 8
end
set nwpw:cif_filename H2

#set nwpw:CI_maxit_orb 15
#set nwpw:CI_maxit_linesearch 15
set pspw:HFX_screening_radius 14.0


set nwpw:2qintegrals .true.
#set nwpw:3x3_virtual .true.

task pspw energy

================================================================================


                                         
                                         


             Northwest Computational Chemistry Package (NWChem) 7.2.2
             --------------------------------------------------------


                    Environmental Molecular Sciences Laboratory
                       Pacific Northwest National Laboratory
                                Richland, WA 99352

                              Copyright (c) 1994-2022
                       Pacific Northwest National Laboratory
                            Battelle Memorial Institute

             NWChem is an open-source computational chemistry package
                        distributed under the terms of the
                      Educational Community License (ECL) 2.0
             A copy of the license is included with this distribution
                              in the LICENSE.TXT file

                                  ACKNOWLEDGMENT
                                  --------------

            This software and its documentation were developed at the
            EMSL at Pacific Northwest National Laboratory, a multiprogram
            national laboratory, operated for the U.S. Department of Energy
            by Battelle under Contract Number DE-AC05-76RL01830. Support
            for this work was provided by the Department of Energy Office
            of Biological and Environmental Research, Office of Basic
            Energy Sciences, and the Office of Advanced Scientific Computing.


           Job information
           ---------------

    hostname        = LAPTOP-JJQSTSEL
    program         = nwchem
    date            = Thu May  1 12:52:08 2025

    compiled        = Fri_Jun_07_07:50:04_2024
    source          = /home/conda/feedstock_root/build_artifacts/nwchem_1717738148552/work
    nwchem branch   = 7.2.2
    nwchem revision = 64ba0f0
    ga revision     = 5.8.0
    use scalapack   = T
    input           = H2-0.8.nw
    prefix          = pspw_hf_H2.
    data base       = ./pspw_hf_H2.db
    status          = startup
    nproc           =        1
    time left       =     -1s



           Memory information
           ------------------

    heap     =  157286398 doubles =   1200.0 Mbytes
    stack    =  157286395 doubles =   1200.0 Mbytes
    global   =    1310720 doubles =     10.0 Mbytes (distinct from heap & stack)
    total    =  315883513 doubles =   2410.0 Mbytes
    verify   = yes
    hardfail = no 


           Directory information
           ---------------------

  0 permanent = .
  0 scratch   = .




                                NWChem Input Module
                                -------------------


               swnc: e theory=pspw4 xc=hf formula=H2 charge=0 mult=1
               -----------------------------------------------------

 Scaling coordinates for geometry "geometry" by  1.889725989
 (inverse scale =  0.529177249)

 ORDER OF PRIMARY AXIS IS BEING SET TO 4
 D4H symmetry detected

          ------
          auto-z
          ------
  no constraints, skipping    0.0000000000000000     
  no constraints, skipping    0.0000000000000000     


                             Geometry "geometry" -> ""
                             -------------------------

 Output coordinates in angstroms (scale by  1.889725989 to convert to a.u.)

  No.       Tag          Charge          X              Y              Z
 ---- ---------------- ---------- -------------- -------------- --------------
    1 H                    1.0000     0.00000000     0.00000000    -0.40000000
    2 H                    1.0000     0.00000000     0.00000000     0.40000000

      Atomic Mass 
      ----------- 

      H                  1.007825


 Effective nuclear repulsion energy (a.u.)       0.6614715612

            Nuclear Dipole moment (a.u.) 
            ----------------------------
        X                 Y               Z
 ---------------- ---------------- ----------------
     0.0000000000     0.0000000000     0.0000000000

      Symmetry information
      --------------------

 Group name             D4h       
 Group number             28
 Group order              16
 No. of unique centers     1

      Symmetry unique atoms

     1



                                Z-matrix (autoz)
                                -------- 

 Units are Angstrom for bonds and degrees for angles

      Type          Name      I     J     K     L     M      Value
      ----------- --------  ----- ----- ----- ----- ----- ----------
    1 Stretch                  1     2                       0.80000


            XYZ format geometry
            -------------------
     2
 geometry
 H                     0.00000000     0.00000000    -0.40000000
 H                     0.00000000     0.00000000     0.40000000

          ****************************************************
          *                                                  *
          *               NWPW PSPW Calculation              *
          *                                                  *
          * [ (Grassmann/Stiefel manifold implementation)  ] *
          *                                                  *
          *      [ NorthWest Chemistry implementation ]      *
          *                                                  *
          *            version #5.10   06/12/02              *
          *                                                  *
          *    This code was developed by Eric J. Bylaska,   *
          *    and was based upon algorithms and code        *
          *    developed by the group of Prof. John H. Weare *
          *                                                  *
          ****************************************************
     >>>  JOB STARTED       AT Thu May  1 12:52:08 2025  <<<
          ================ input data ========================

 input psi filename:./pspw_hf_H2.movecs

 number of processors used:         1
 processor grid           :   1 x   1
 parallel mapping         :2d-hilbert
 parallel mapping         :  balanced
 number of threads        :         1
 parallel io              :       off

 options:
      boundary conditions  = aperiodic   (version4)
      electron spin        = restricted
      exchange-correlation = Hartree-Fock
      - HFX relaxed
      - HFX restricted orbitals :    1
      - HFX free-space coulomb solver


 elements involved in the cluster:
      1: H   valence charge:  1.0000  lmax=  1
             comment    : Parameterized (Chem.Phys.Lett., vol 322, page 447) Hamman psp
             pseudpotential type            :   0
             highest angular component      :   1
             local potential used           :   1
             number of non-local projections:   1
             aperiodic cutoff radius        :  1.000
             cutoff =   0.800   0.800


 total charge:   0.000

 atomic composition:
     H   :    2

 number of electrons: spin up=     1 (   1 per task)  down=     1 (   1 per task) (Fourier space)
 number of orbitals : spin up=     1 (   1 per task)  down=     1 (   1 per task) (Fourier space)

 supercell:
      cell_name:  cell_default                                      
      lattice:    a1=<  15.000   0.000   0.000 >
                  a2=<   0.000  15.000   0.000 >
                  a3=<   0.000   0.000  15.000 >
      reciprocal: b1=<   0.419   0.000   0.000 >
                  b2=<   0.000   0.419   0.000 >
                  b3=<   0.000   0.000   0.419 >
      lattice:    a=      15.000 b=     15.000 c=      15.000
                  alpha=  90.000 beta=  90.000 gamma=  90.000
                  omega=      3375.0

      density cutoff=100.000  fft= 70x 70x 70(    80618 waves    80618 per task)
      wavefnc cutoff= 50.000  fft= 70x 70x 70(    28526 waves    28526 per task)

 technical parameters:
      time step=      5.80     fictitious mass=  400000.0
      tolerance=0.100E-08 (energy)   0.100E-08 (density)
      maximum iterations =      1000 (   10 inner    100 outer )





== Energy Calculation ==


          ============ Grassmann lmbfgs iteration ============
     >>>  ITERATION STARTED AT Thu May  1 12:52:16 2025  <<<
    iter.           Energy         DeltaE       DeltaRho 
    ------------------------------------------------------
      10   -0.1132357043E+01   -0.75979E-04    0.24041E-02
      20   -0.1132511608E+01   -0.18330E-05    0.29304E-05
      30   -0.1132516041E+01   -0.61105E-07    0.40267E-08
      40   -0.1132516176E+01   -0.12716E-08    0.11331E-10
      50   -0.1132516177E+01   -0.88393E-09    0.12784E-12
  *** tolerance ok. iteration terminated
     >>>  ITERATION ENDED   AT Thu May  1 12:52:52 2025  <<<


==  Summary Of Results  ==

 number of electrons: spin up=    1.00000  down=    1.00000 (real space)

 total     energy    :  -0.1132516177E+01 (   -0.56626E+00/ion)
 total orbital energy:  -0.1156947996E+01 (   -0.11569E+01/electron)
 hartree   energy    :   0.1274079485E+01 (    0.12741E+01/electron)
 exc-corr  energy    :   0.0000000000E+00 (    0.00000E+00/electron)
 HF exchange energy  :  -0.6370397423E+00 (   -0.63704E+00/electron)
 ion-ion   energy    :   0.6614715612E+00 (    0.33074E+00/ion)

 kinetic (planewave) :   0.1014726773E+01 (    0.10147E+01/electron)
 V_local (planewave) :  -0.3150581061E+01 (   -0.31506E+01/electron)
 V_nl    (planewave) :  -0.2951731927E+00 (   -0.29517E+00/electron)
 V_Coul  (planewave) :   0.2548158969E+01 (    0.25482E+01/electron)
 V_xc.   (planewave) :   0.0000000000E+00 (    0.00000E+00/electron)
 K.S. HFX energy     :  -0.1274079485E+01 (   -0.12741E+01/electron)
 Virial Coefficient  :  -0.8845684454E+00

 orbital energies:
    -0.5784740E+00 ( -15.741eV)


== Virtual Orbital Calculation ==


 input epsi filename:./pspw_hf_H2.emovecs
     orbital   1 current e= 0.650E-02 (error=0.868E-09) iterations  43(  17 preconditioned, Ep,Sp= 20.0  200.0)
     orbital   2 current e= 0.804E-01 (error=0.838E-09) iterations  67(  28 preconditioned, Ep,Sp= 20.0  200.0)
     orbital   3 current e= 0.856E-01 (error=0.969E-09) iterations  45(  10 preconditioned, Ep,Sp= 20.0  200.0)
     orbital   4 current e= 0.856E-01 (error=0.970E-09) iterations  45(  10 preconditioned, Ep,Sp= 20.0  200.0)
     orbital   5 current e= 0.872E-01 (error=0.944E-09) iterations  37(   1 preconditioned, Ep,Sp= 20.0  200.0)
     orbital   6 current e= 0.879E-01 (error=0.924E-09) iterations  24(   1 preconditioned, Ep,Sp= 20.0  200.0)
     orbital   7 current e= 0.112E+00 (error=0.855E-09) iterations  58(  28 preconditioned, Ep,Sp= 20.0  200.0)
     orbital   8 current e= 0.154E+00 (error=0.940E-09) iterations  68(  42 preconditioned, Ep,Sp= 20.0  200.0)

 virtual orbital energies:
     0.1540111E+00 (   4.191eV)
     0.1118708E+00 (   3.044eV)
     0.8787613E-01 (   2.391eV)
     0.8718771E-01 (   2.373eV)
     0.8563794E-01 (   2.330eV)
     0.8563794E-01 (   2.330eV)
     0.8039542E-01 (   2.188eV)
     0.6500601E-02 (   0.177eV)


 == Generating One-Electron and Two-Electron Integrals ==

 begin_one_electron_integrals
    1    1        -1.2155137401
    2    1        -0.0326517895
    3    1        -0.0000002740
    4    1        -0.0000001936
    5    1        -0.0000004309
    6    1         0.0024342398
    7    1         0.0000000414
    8    1        -0.0459804983
    9    1         0.0000009473
    2    2        -0.2713897394
    3    2        -0.0000014523
    4    2         0.0000001023
    5    2         0.0000001842
    6    2         0.0021341556
    7    2         0.0000000306
    8    2        -0.0682017485
    9    2        -0.0000002448
    3    3        -0.2776855820
    4    3        -0.0000000524
    5    3         0.0000000126
    6    3        -0.0000077388
    7    3         0.0000002767
    8    3         0.0000001707
    9    3        -0.1297397299
    4    4        -0.2333081619
    5    4         0.0000000023
    6    4        -0.0000031791
    7    4         0.0000083717
    8    4        -0.0000001709
    9    4         0.0000675049
    5    5        -0.2333081570
    6    5        -0.0000067187
    7    5        -0.0000039887
    8    5        -0.0000005031
    9    5         0.0000259157
    6    6        -0.1918482293
    7    6        -0.0000000744
    8    6         0.0008340252
    9    6        -0.0000137182
    7    7        -0.1890345434
    8    7        -0.0000001229
    9    7         0.0000002813
    8    8        -0.1745839014
    9    8         0.0000008378
    9    9        -0.2471181072
 end_one_electron_integrals

 begin_two_electron_integrals
    1    1    1    1        0.6370397423
    1    1    2    1        0.0326608988
    1    1    3    1        0.0000002729
    1    1    4    1        0.0000001935
    1    1    5    1        0.0000004307
    1    1    6    1       -0.0024312393
    1    1    7    1       -0.0000000414
    1    1    8    1        0.0459697168
    1    1    9    1       -0.0000009479
    1    1    2    2        0.1402485033
    1    1    3    2        0.0000010506
    1    1    4    2       -0.0000001311
    1    1    5    2       -0.0000002571
    1    1    6    2       -0.0011706178
    1    1    7    2       -0.0000000172
    1    1    8    2        0.0359914350
    1    1    9    2        0.0000005040
    1    1    3    3        0.1829265104
    1    1    4    3        0.0000000235
    1    1    5    3       -0.0000000079
    1    1    6    3        0.0000037496
    1    1    7    3       -0.0000001567
    1    1    8    3        0.0000001016
    1    1    9    3        0.0707660153
    1    1    4    4        0.1605776308
    1    1    5    4       -0.0000000013
    1    1    6    4        0.0000015974
    1    1    7    4       -0.0000041239
    1    1    8    4        0.0000000478
    1    1    9    4       -0.0000350598
    1    1    5    5        0.1605776282
    1    1    6    5        0.0000033775
    1    1    7    5        0.0000019647
    1    1    8    5        0.0000001801
    1    1    9    5       -0.0000134616
    1    1    6    6        0.1396041176
    1    1    7    6        0.0000000377
    1    1    8    6       -0.0005666701
    1    1    9    6        0.0000067982
    1    1    7    7        0.1385119819
    1    1    8    7        0.0000000590
    1    1    9    7       -0.0000001747
    1    1    8    8        0.1460160989
    1    1    9    8       -0.0000002480
    1    1    9    9        0.2095986164
    2    1    2    1        0.0026066659
    2    1    3    1        0.0000006525
    2    1    4    1       -0.0000001603
    2    1    5    1       -0.0000003320
    2    1    6    1       -0.0002077232
    2    1    7    1       -0.0000000039
    2    1    8    1        0.0038005547
    2    1    9    1        0.0000007651
    2    1    2    2        0.0004465860
    2    1    3    2       -0.0000024087
    2    1    4    2        0.0000012294
    2    1    5    2        0.0000025651
    2    1    6    2        0.0000112685
    2    1    7    2       -0.0000000005
    2    1    8    2        0.0006536763
    2    1    9    2        0.0000000400
    2    1    3    3        0.0015798030
    2    1    4    3        0.0000000011
    2    1    5    3        0.0000000012
    2    1    6    3        0.0000015641
    2    1    7    3       -0.0000000084
    2    1    8    3       -0.0000007072
    2    1    9    3        0.0022260276
    2    1    4    4        0.0007206458
    2    1    5    4       -0.0000000012
    2    1    6    4        0.0000003692
    2    1    7    4       -0.0000013066
    2    1    8    4        0.0000002811
    2    1    9    4       -0.0000007661
    2    1    5    5        0.0007206440
    2    1    6    5        0.0000007717
    2    1    7    5        0.0000006267
    2    1    8    5        0.0000005883
    2    1    9    5       -0.0000002954
    2    1    6    6        0.0001656619
    2    1    7    6        0.0000000007
    2    1    8    6       -0.0000054003
    2    1    9    6        0.0000016272
    2    1    7    7        0.0001780452
    2    1    8    7       -0.0000000007
    2    1    9    7       -0.0000000115
    2    1    8    8        0.0009835453
    2    1    9    8       -0.0000017520
    2    1    9    9        0.0033831343
    3    1    3    1        0.0077720221
    3    1    4    1        0.0000000005
    3    1    5    1       -0.0000000040
    3    1    6    1       -0.0000002283
    3    1    7    1       -0.0000000489
    3    1    8    1        0.0000003765
    3    1    9    1        0.0117954230
    3    1    2    2       -0.0000753712
    3    1    3    2       -0.0050678219
    3    1    4    2       -0.0000000101
    3    1    5    2       -0.0000000100
    3    1    6    2        0.0000912616
    3    1    7    2        0.0000000017
    3    1    8    2        0.0000232941
    3    1    9    2       -0.0010822555
    3    1    3    3       -0.0000007411
    3    1    4    3        0.0000000388
    3    1    5    3        0.0000000738
    3    1    6    3        0.0029838518
    3    1    7    3        0.0000000126
    3    1    8    3       -0.0033351753
    3    1    9    3       -0.0000004445
    3    1    4    4       -0.0000614155
    3    1    5    4        0.0000000001
    3    1    6    4        0.0000000026
    3    1    7    4        0.0000000022
    3    1    8    4       -0.0000000142
    3    1    9    4       -0.0000009853
    3    1    5    5       -0.0000614166
    3    1    6    5        0.0000000027
    3    1    7    5        0.0000000002
    3    1    8    5       -0.0000000113
    3    1    9    5       -0.0000010547
    3    1    6    6       -0.0001376082
    3    1    7    6        0.0000000003
    3    1    8    6        0.0000153223
    3    1    9    6        0.0037679097
    3    1    7    7       -0.0000572924
    3    1    8    7       -0.0000000051
    3    1    9    7       -0.0000000674
    3    1    8    8       -0.0000812096
    3    1    9    8       -0.0041269664
    3    1    9    9        0.0000001431
    4    1    4    1        0.0022091628
    4    1    5    1       -0.0000000002
    4    1    6    1        0.0000000149
    4    1    7    1        0.0000001280
    4    1    8    1       -0.0000000757
    4    1    9    1       -0.0000025851
    4    1    2    2        0.0000297063
    4    1    3    2        0.0000000029
    4    1    4    2       -0.0034003405
    4    1    5    2       -0.0000000012
    4    1    6    2        0.0000182825
    4    1    7    2       -0.0000656492
    4    1    8    2       -0.0000089754
    4    1    9    2        0.0000009869
    4    1    3    3        0.0000197793
    4    1    4    3       -0.0000005261
    4    1    5    3        0.0000000013
    4    1    6    3       -0.0000000010
    4    1    7    3       -0.0000000038
    4    1    8    3       -0.0000000100
    4    1    9    3       -0.0000218343
    4    1    4    4       -0.0000071080
    4    1    5    4       -0.0000152439
    4    1    6    4       -0.0007389559
    4    1    7    4        0.0010772950
    4    1    8    4       -0.0020197934
    4    1    9    4        0.0000000484
    4    1    5    5        0.0000316112
    4    1    6    5       -0.0000000023
    4    1    7    5        0.0008655525
    4    1    8    5        0.0000000045
    4    1    9    5       -0.0000000012
    4    1    6    6        0.0000306330
    4    1    7    6       -0.0000289825
    4    1    8    6        0.0000029540
    4    1    9    6        0.0000009355
    4    1    7    7        0.0000468658
    4    1    8    7       -0.0000102147
    4    1    9    7       -0.0000016079
    4    1    8    8        0.0000328543
    4    1    9    8        0.0000023971
    4    1    9    9        0.0000290191
    5    1    5    1        0.0022091626
    5    1    6    1        0.0000000364
    5    1    7    1       -0.0000000585
    5    1    8    1       -0.0000001496
    5    1    9    1       -0.0000009972
    5    1    2    2        0.0000619742
    5    1    3    2        0.0000000054
    5    1    4    2       -0.0000000012
    5    1    5    2       -0.0034003427
    5    1    6    2        0.0000381381
    5    1    7    2        0.0000314666
    5    1    8    2       -0.0000187257
    5    1    9    2        0.0000003705
    5    1    3    3        0.0000412620
    5    1    4    3        0.0000000014
    5    1    5    3       -0.0000005300
    5    1    6    3       -0.0000000034
    5    1    7    3        0.0000000002
    5    1    8    3       -0.0000000083
    5    1    9    3       -0.0000449130
    5    1    4    4        0.0000344504
    5    1    5    4        0.0000077927
    5    1    6    4       -0.0000000022
    5    1    7    4        0.0008655465
    5    1    8    4        0.0000000046
    5    1    9    4        0.0000000247
    5    1    5    5        0.0000166763
    5    1    6    5       -0.0007389596
    5    1    7    5       -0.0010772935
    5    1    8    5       -0.0020197874
    5    1    9    5        0.0000000571
    5    1    6    6        0.0000639042
    5    1    7    6        0.0000138919
    5    1    8    6        0.0000061578
    5    1    9    6        0.0000003483
    5    1    7    7        0.0000977723
    5    1    8    7        0.0000048961
    5    1    9    7       -0.0000005262
    5    1    8    8        0.0000685332
    5    1    9    8        0.0000009283
    5    1    9    9        0.0000607607
    6    1    6    1        0.0001722950
    6    1    7    1        0.0000000011
    6    1    8    1       -0.0003017694
    6    1    9    1       -0.0000001178
    6    1    2    2       -0.0000258210
    6    1    3    2        0.0000036146
    6    1    4    2        0.0000008062
    6    1    5    2        0.0000016752
    6    1    6    2       -0.0006974848
    6    1    7    2       -0.0000000004
    6    1    8    2       -0.0000533422
    6    1    9    2        0.0000000031
    6    1    3    3        0.0003720999
    6    1    4    3       -0.0000000013
    6    1    5    3       -0.0000000021
    6    1    6    3       -0.0000022159
    6    1    7    3       -0.0000000004
    6    1    8    3        0.0000010393
    6    1    9    3        0.0006946398
    6    1    4    4       -0.0001890202
    6    1    5    4       -0.0000000016
    6    1    6    4        0.0000002768
    6    1    7    4       -0.0000007276
    6    1    8    4        0.0000001553
    6    1    9    4        0.0000003223
    6    1    5    5       -0.0001890230
    6    1    6    5        0.0000005747
    6    1    7    5        0.0000003477
    6    1    8    5        0.0000003191
    6    1    9    5        0.0000001233
    6    1    6    6        0.0002598631
    6    1    7    6       -0.0000000010
    6    1    8    6       -0.0005425852
    6    1    9    6       -0.0000020386
    6    1    7    7       -0.0002492591
    6    1    8    7       -0.0000000015
    6    1    9    7       -0.0000000029
    6    1    8    8       -0.0000875441
    6    1    9    8        0.0000024961
    6    1    9    9        0.0006440337
    7    1    7    1        0.0001132926
    7    1    8    1       -0.0000000058
    7    1    9    1       -0.0000000754
    7    1    2    2        0.0000000001
    7    1    3    2        0.0000000191
    7    1    4    2       -0.0000031882
    7    1    5    2        0.0000015262
    7    1    6    2       -0.0000000024
    7    1    7    2       -0.0006150704
    7    1    8    2       -0.0000000010
    7    1    9    2        0.0000000027
    7    1    3    3        0.0000000019
    7    1    4    3        0.0000000003
    7    1    5    3       -0.0000000000
    7    1    6    3       -0.0000000132
    7    1    7    3       -0.0000001820
    7    1    8    3        0.0000000130
    7    1    9    3       -0.0000000090
    7    1    4    4        0.0001706161
    7    1    5    4        0.0001370834
    7    1    6    4       -0.0000007963
    7    1    7    4        0.0000007769
    7    1    8    4       -0.0000006770
    7    1    9    4       -0.0000003921
    7    1    5    5       -0.0001706167
    7    1    6    5        0.0000003811
    7    1    7    5        0.0000016178
    7    1    8    5        0.0000003229
    7    1    9    5       -0.0000001281
    7    1    6    6        0.0000000013
    7    1    7    6       -0.0002008804
    7    1    8    6       -0.0000000023
    7    1    9    6       -0.0000000187
    7    1    7    7       -0.0000000028
    7    1    8    7       -0.0004685970
    7    1    9    7        0.0000000553
    7    1    8    8       -0.0000000013
    7    1    9    8        0.0000000146
    7    1    9    9        0.0000000045
    8    1    8    1        0.0055774532
    8    1    9    1        0.0000003494
    8    1    2    2        0.0005050020
    8    1    3    2       -0.0000010650
    8    1    4    2        0.0000005490
    8    1    5    2        0.0000011396
    8    1    6    2        0.0000014856
    8    1    7    2       -0.0000000012
    8    1    8    2        0.0007428662
    8    1    9    2       -0.0000001914
    8    1    3    3        0.0018235712
    8    1    4    3       -0.0000000029
    8    1    5    3       -0.0000000040
    8    1    6    3        0.0000009743
    8    1    7    3       -0.0000000112
    8    1    8    3       -0.0000005264
    8    1    9    3        0.0026978307
    8    1    4    4        0.0007297362
    8    1    5    4        0.0000000015
    8    1    6    4        0.0000002441
    8    1    7    4       -0.0000008118
    8    1    8    4        0.0000002489
    8    1    9    4       -0.0000008190
    8    1    5    5        0.0007297381
    8    1    6    5        0.0000005092
    8    1    7    5        0.0000003885
    8    1    8    5        0.0000005175
    8    1    9    5       -0.0000003146
    8    1    6    6        0.0000829967
    8    1    7    6        0.0000000004
    8    1    8    6       -0.0000176032
    8    1    9    6        0.0000010586
    8    1    7    7        0.0001001806
    8    1    8    7       -0.0000000016
    8    1    9    7       -0.0000000165
    8    1    8    8        0.0011766894
    8    1    9    8       -0.0000008174
    8    1    9    9        0.0042047343
    9    1    9    1        0.0180680159
    9    1    2    2       -0.0000948973
    9    1    3    2       -0.0063595826
    9    1    4    2        0.0000033163
    9    1    5    2        0.0000012495
    9    1    6    2        0.0001158091
    9    1    7    2        0.0000000528
    9    1    8    2        0.0000274614
    9    1    9    2       -0.0015622125
    9    1    3    3       -0.0000010229
    9    1    4    3       -0.0000007114
    9    1    5    3       -0.0000012767
    9    1    6    3        0.0040977669
    9    1    7    3        0.0000000102
    9    1    8    3       -0.0044014202
    9    1    9    3       -0.0000004834
    9    1    4    4       -0.0000773236
    9    1    5    4        0.0000000130
    9    1    6    4        0.0000008499
    9    1    7    4       -0.0000015332
    9    1    8    4        0.0000021347
    9    1    9    4       -0.0000011114
    9    1    5    5       -0.0000773574
    9    1    6    5        0.0000003414
    9    1    7    5       -0.0000004989
    9    1    8    5        0.0000008205
    9    1    9    5       -0.0000009625
    9    1    6    6       -0.0001759559
    9    1    7    6        0.0000000233
    9    1    8    6        0.0000211520
    9    1    9    6        0.0050805288
    9    1    7    7       -0.0000715383
    9    1    8    7        0.0000000007
    9    1    9    7       -0.0000000773
    9    1    8    8       -0.0001011318
    9    1    9    8       -0.0053538327
    9    1    9    9        0.0000001833
    2    2    2    2        0.1190330147
    2    2    3    2        0.0004449902
    2    2    4    2       -0.0002730684
    2    2    5    2       -0.0005696793
    2    2    6    2       -0.0003748443
    2    2    7    2       -0.0000000139
    2    2    8    2        0.0096164980
    2    2    9    2       -0.0000844627
    2    2    3    3        0.1260937152
    2    2    4    3       -0.0000014462
    2    2    5    3       -0.0000030297
    2    2    6    3       -0.0002048173
    2    2    7    3       -0.0000000045
    2    2    8    3        0.0000506755
    2    2    9    3        0.0091597471
    2    2    4    4        0.1239897036
    2    2    5    4        0.0000019095
    2    2    6    4       -0.0000567778
    2    2    7    4        0.0002077812
    2    2    8    4       -0.0000153306
    2    2    9    4       -0.0000056584
    2    2    5    5        0.1239927722
    2    2    6    5       -0.0001184464
    2    2    7    5       -0.0000996050
    2    2    8    5       -0.0000319712
    2    2    9    5       -0.0000011305
    2    2    6    6        0.1200892840
    2    2    7    6        0.0000000055
    2    2    8    6        0.0000228187
    2    2    9    6       -0.0002091252
    2    2    7    7        0.1198494239
    2    2    8    7        0.0000000393
    2    2    9    7       -0.0000001442
    2    2    8    8        0.1147880239
    2    2    9    8        0.0003264928
    2    2    9    9        0.1232373392
    3    2    3    2        0.0231993718
    3    2    4    2       -0.0000011991
    3    2    5    2       -0.0000025057
    3    2    6    2       -0.0004903991
    3    2    7    2       -0.0000000095
    3    2    8    2       -0.0002204916
    3    2    9    2       -0.0040795273
    3    2    3    3        0.0000020285
    3    2    4    3       -0.0000752802
    3    2    5    3       -0.0001570276
    3    2    6    3       -0.0070220068
    3    2    7    3       -0.0000000442
    3    2    8    3        0.0056433405
    3    2    9    3        0.0000024157
    3    2    4    4        0.0003594585
    3    2    5    4        0.0000000066
    3    2    6    4        0.0000011406
    3    2    7    4        0.0000009063
    3    2    8    4        0.0000010511
    3    2    9    4        0.0000377573
    3    2    5    5        0.0003594736
    3    2    6    5        0.0000023884
    3    2    7    5       -0.0000004349
    3    2    8    5        0.0000021303
    3    2    9    5        0.0000743707
    3    2    6    6        0.0006941430
    3    2    7    6       -0.0000000025
    3    2    8    6       -0.0000136382
    3    2    9    6       -0.0118360684
    3    2    7    7        0.0003595759
    3    2    8    7        0.0000000416
    3    2    9    7        0.0000004361
    3    2    8    8        0.0005514109
    3    2    9    8        0.0155487095
    3    2    9    9       -0.0000000747
    4    2    4    2        0.0245261397
    4    2    5    2        0.0000016794
    4    2    6    2       -0.0001547266
    4    2    7    2        0.0005513690
    4    2    8    2        0.0001352007
    4    2    9    2        0.0000021307
    4    2    3    3       -0.0001786197
    4    2    4    3        0.0001429043
    4    2    5    3        0.0000000021
    4    2    6    3       -0.0000002505
    4    2    7    3        0.0000026350
    4    2    8    3        0.0000010384
    4    2    9    3        0.0002099836
    4    2    4    4        0.0001212512
    4    2    5    4        0.0000738610
    4    2    6    4        0.0027718085
    4    2    7    4       -0.0040312610
    4    2    8    4        0.0040131042
    4    2    9    4       -0.0000346741
    4    2    5    5       -0.0003417446
    4    2    6    5        0.0000013415
    4    2    7    5       -0.0032403314
    4    2    8    5       -0.0000013671
    4    2    9    5       -0.0000000076
    4    2    6    6       -0.0002730837
    4    2    7    6        0.0001912468
    4    2    8    6       -0.0000016505
    4    2    9    6       -0.0000045259
    4    2    7    7       -0.0003794081
    4    2    8    7        0.0000037524
    4    2    9    7        0.0000064198
    4    2    8    8       -0.0003464184
    4    2    9    8       -0.0000148774
    4    2    9    9       -0.0002990533
    5    2    5    2        0.0245288407
    5    2    6    2       -0.0003227834
    5    2    7    2       -0.0002642800
    5    2    8    2        0.0002820564
    5    2    9    2        0.0000033621
    5    2    3    3       -0.0003726165
    5    2    4    3        0.0000000021
    5    2    5    3        0.0001429312
    5    2    6    3       -0.0000005151
    5    2    7    3       -0.0000012564
    5    2    8    3        0.0000020786
    5    2    9    3        0.0004340715
    5    2    4    4       -0.0002004940
    5    2    5    4       -0.0002102396
    5    2    6    4        0.0000013414
    5    2    7    4       -0.0032374362
    5    2    8    4       -0.0000013680
    5    2    9    4       -0.0000002367
    5    2    5    5       -0.0002595257
    5    2    6    5        0.0027739648
    5    2    7    5        0.0040312228
    5    2    8    5        0.0040109068
    5    2    9    5       -0.0000348738
    5    2    6    6       -0.0005697042
    5    2    7    6       -0.0000916754
    5    2    8    6       -0.0000034332
    5    2    9    6       -0.0000007984
    5    2    7    7       -0.0007915458
    5    2    8    7       -0.0000018121
    5    2    9    7        0.0000038316
    5    2    8    8       -0.0007226532
    5    2    9    8       -0.0000085245
    5    2    9    9       -0.0006217697
    6    2    6    2        0.0131275443
    6    2    7    2       -0.0000000015
    6    2    8    2       -0.0000632194
    6    2    9    2        0.0000463666
    6    2    3    3       -0.0023546890
    6    2    4    3        0.0000007570
    6    2    5    3        0.0000015712
    6    2    6    3        0.0002600832
    6    2    7    3        0.0000000024
    6    2    8    3       -0.0001013590
    6    2    9    3       -0.0072942700
    6    2    4    4       -0.0001144514
    6    2    5    4        0.0000021492
    6    2    6    4       -0.0000717519
    6    2    7    4        0.0000919256
    6    2    8    4       -0.0000226999
    6    2    9    4       -0.0000029864
    6    2    5    5       -0.0001109969
    6    2    6    5       -0.0001496867
    6    2    7    5       -0.0000440666
    6    2    8    5       -0.0000473502
    6    2    9    5       -0.0000015579
    6    2    6    6       -0.0014074696
    6    2    7    6        0.0000000194
    6    2    8    6        0.0049780713
    6    2    9    6        0.0002529932
    6    2    7    7        0.0005857261
    6    2    8    7        0.0000000137
    6    2    9    7       -0.0000000591
    6    2    8    8       -0.0000721642
    6    2    9    8       -0.0003443857
    6    2    9    9       -0.0006854378
    7    2    7    2        0.0130339031
    7    2    8    2        0.0000000036
    7    2    9    2       -0.0000000077
    7    2    3    3       -0.0000000212
    7    2    4    3        0.0000029573
    7    2    5    3       -0.0000014189
    7    2    6    3        0.0000000057
    7    2    7    3        0.0000746588
    7    2    8    3        0.0000000130
    7    2    9    3        0.0000002684
    7    2    4    4       -0.0005347707
    7    2    5    4       -0.0004296435
    7    2    6    4        0.0000890065
    7    2    7    4       -0.0001227417
    7    2    8    4        0.0000799616
    7    2    9    4        0.0000037531
    7    2    5    5        0.0005347383
    7    2    6    5       -0.0000426649
    7    2    7    5       -0.0002560707
    7    2    8    5       -0.0000383324
    7    2    9    5        0.0000019515
    7    2    6    6       -0.0000000056
    7    2    7    6        0.0008498540
    7    2    8    6        0.0000000088
    7    2    9    6       -0.0000000380
    7    2    7    7        0.0000000086
    7    2    8    7        0.0046526871
    7    2    9    7       -0.0000249862
    7    2    8    8        0.0000000087
    7    2    9    8       -0.0000002310
    7    2    9    9       -0.0000001874
    8    2    8    2        0.0114644327
    8    2    9    2        0.0001212050
    8    2    3    3        0.0163631200
    8    2    4    3        0.0000022461
    8    2    5    3        0.0000046413
    8    2    6    3        0.0000447501
    8    2    7    3        0.0000000015
    8    2    8    3        0.0000520799
    8    2    9    3        0.0113052083
    8    2    4    4        0.0137250369
    8    2    5    4       -0.0000028663
    8    2    6    4        0.0000114283
    8    2    7    4       -0.0000443013
    8    2    8    4       -0.0000412493
    8    2    9    4       -0.0000089186
    8    2    5    5        0.0137204302
    8    2    6    5        0.0000238481
    8    2    7    5        0.0000212270
    8    2    8    5       -0.0000860305
    8    2    9    5       -0.0000052300
    8    2    6    6        0.0129564168
    8    2    7    6        0.0000000121
    8    2    8    6        0.0001417462
    8    2    9    6        0.0000689730
    8    2    7    7        0.0126408626
    8    2    8    7        0.0000000358
    8    2    9    7        0.0000000548
    8    2    8    8        0.0064394584
    8    2    9    8       -0.0001896880
    8    2    9    9        0.0142934905
    9    2    9    2        0.0071032545
    9    2    3    3        0.0000009933
    9    2    4    3        0.0000899027
    9    2    5    3        0.0001853052
    9    2    6    3       -0.0034520492
    9    2    7    3        0.0000001753
    9    2    8    3        0.0046221058
    9    2    9    3       -0.0000001880
    9    2    4    4       -0.0000633372
    9    2    5    4       -0.0000000971
    9    2    6    4       -0.0000030671
    9    2    7    4        0.0000020841
    9    2    8    4       -0.0000056962
    9    2    9    4       -0.0000497744
    9    2    5    5       -0.0000634955
    9    2    6    5       -0.0000034089
    9    2    7    5        0.0000013655
    9    2    8    5       -0.0000044297
    9    2    9    5       -0.0001025491
    9    2    6    6       -0.0000272003
    9    2    7    6       -0.0000000129
    9    2    8    6       -0.0000607713
    9    2    9    6        0.0010754199
    9    2    7    7       -0.0000763803
    9    2    8    7       -0.0000000402
    9    2    9    7       -0.0000001703
    9    2    8    8       -0.0001926765
    9    2    9    8       -0.0029533178
    9    2    9    9        0.0000000556
    3    3    3    3        0.1427753835
    3    3    4    3        0.0000000004
    3    3    5    3        0.0000000340
    3    3    6    3       -0.0000002950
    3    3    7    3        0.0000000021
    3    3    8    3        0.0000012656
    3    3    9    3        0.0222510014
    3    3    4    4        0.1346061565
    3    3    5    4        0.0000010406
    3    3    6    4       -0.0000362381
    3    3    7    4        0.0001421285
    3    3    8    4       -0.0000131493
    3    3    9    4       -0.0000120324
    3    3    5    5        0.1346078284
    3    3    6    5       -0.0000755899
    3    3    7    5       -0.0000681386
    3    3    8    5       -0.0000274027
    3    3    9    5       -0.0000046284
    3    3    6    6        0.1271233456
    3    3    7    6        0.0000000096
    3    3    8    6       -0.0019765551
    3    3    9    6        0.0000014065
    3    3    7    7        0.1268393887
    3    3    8    7        0.0000000453
    3    3    9    7       -0.0000001244
    3    3    8    8        0.1219478595
    3    3    9    8        0.0000011890
    3    3    9    9        0.1421943554
    4    3    4    3        0.0129496884
    4    3    5    3        0.0000004259
    4    3    6    3       -0.0000271165
    4    3    7    3        0.0001637358
    4    3    8    3        0.0000440759
    4    3    9    3       -0.0000008343
    4    3    4    4        0.0000006463
    4    3    5    4        0.0000004104
    4    3    6    4       -0.0001487737
    4    3    7    4       -0.0000232889
    4    3    8    4       -0.0000863427
    4    3    9    4       -0.0014229774
    4    3    5    5       -0.0000016055
    4    3    6    5       -0.0000000004
    4    3    7    5       -0.0000187139
    4    3    8    5       -0.0000000189
    4    3    9    5       -0.0000007076
    4    3    6    6       -0.0000005756
    4    3    7    6       -0.0000022312
    4    3    8    6       -0.0000007323
    4    3    9    6        0.0000460141
    4    3    7    7       -0.0000019482
    4    3    8    7       -0.0000030068
    4    3    9    7       -0.0001339504
    4    3    8    8       -0.0000042105
    4    3    9    8       -0.0000809795
    4    3    9    9       -0.0000089118
    5    3    5    3        0.0129503733
    5    3    6    3       -0.0000565712
    5    3    7    3       -0.0000784860
    5    3    8    3        0.0000919602
    5    3    9    3       -0.0000003492
    5    3    4    4       -0.0000009609
    5    3    5    4       -0.0000009558
    5    3    6    4       -0.0000000003
    5    3    7    4       -0.0000187043
    5    3    8    4       -0.0000000191
    5    3    9    4       -0.0000007159
    5    3    5    5       -0.0000011402
    5    3    6    5       -0.0001487781
    5    3    7    5        0.0000232881
    5    3    8    5       -0.0000863581
    5    3    9    5       -0.0014240112
    5    3    6    6       -0.0000012076
    5    3    7    6        0.0000010774
    5    3    8    6       -0.0000015270
    5    3    9    6        0.0000963579
    5    3    7    7       -0.0000040403
    5    3    8    7        0.0000014367
    5    3    9    7        0.0000640241
    5    3    8    8       -0.0000088027
    5    3    9    8       -0.0001690361
    5    3    9    9       -0.0000033956
    6    3    6    3        0.0073966418
    6    3    7    3        0.0000000090
    6    3    8    3       -0.0046318100
    6    3    9    3        0.0000003273
    6    3    4    4       -0.0001685248
    6    3    5    4        0.0000000076
    6    3    6    4        0.0000002036
    6    3    7    4       -0.0000000093
    6    3    8    4        0.0000002374
    6    3    9    4        0.0000173815
    6    3    5    5       -0.0001685150
    6    3    6    5        0.0000004309
    6    3    7    5        0.0000000073
    6    3    8    5        0.0000005180
    6    3    9    5        0.0000375872
    6    3    6    6       -0.0003970858
    6    3    7    6        0.0000000167
    6    3    8    6        0.0000532474
    6    3    9    6        0.0043523287
    6    3    7    7       -0.0001577425
    6    3    8    7       -0.0000000045
    6    3    9    7       -0.0000000981
    6    3    8    8       -0.0001919817
    6    3    9    8       -0.0054533236
    6    3    9    9        0.0000016735
    7    3    7    3        0.0077055964
    7    3    8    3       -0.0000000091
    7    3    9    3       -0.0000000438
    7    3    4    4       -0.0000026126
    7    3    5    4       -0.0000020905
    7    3    6    4       -0.0000026183
    7    3    7    4       -0.0000005606
    7    3    8    4       -0.0000018438
    7    3    9    4       -0.0000527645
    7    3    5    5        0.0000025941
    7    3    6    5        0.0000012585
    7    3    7    5       -0.0000011548
    7    3    8    5        0.0000008876
    7    3    9    5        0.0000252576
    7    3    6    6        0.0000000048
    7    3    7    6       -0.0000771552
    7    3    8    6        0.0000000012
    7    3    9    6        0.0000000098
    7    3    7    7       -0.0000000468
    7    3    8    7       -0.0000389479
    7    3    9    7       -0.0021622579
    7    3    8    8       -0.0000000162
    7    3    9    8        0.0000000141
    7    3    9    9       -0.0000001013
    8    3    8    3        0.0072611773
    8    3    9    3        0.0000007754
    8    3    4    4        0.0000445780
    8    3    5    4       -0.0000000162
    8    3    6    4       -0.0000008143
    8    3    7    4       -0.0000004836
    8    3    8    4       -0.0000009377
    8    3    9    4       -0.0000295651
    8    3    5    5        0.0000445566
    8    3    6    5       -0.0000016987
    8    3    7    5        0.0000002234
    8    3    8    5       -0.0000019843
    8    3    9    5       -0.0000626890
    8    3    6    6        0.0001801257
    8    3    7    6       -0.0000000010
    8    3    8    6       -0.0000621675
    8    3    9    6       -0.0039068703
    8    3    7    7        0.0000367401
    8    3    8    7       -0.0000000001
    8    3    9    7        0.0000000920
    8    3    8    8       -0.0000260415
    8    3    9    8        0.0026503778
    8    3    9    9        0.0000001442
    9    3    9    3        0.0242498128
    9    3    4    4        0.0145805514
    9    3    5    4       -0.0000022181
    9    3    6    4        0.0000503952
    9    3    7    4       -0.0001377889
    9    3    8    4        0.0000034052
    9    3    9    4       -0.0000109354
    9    3    5    5        0.0145769849
    9    3    6    5        0.0001048086
    9    3    7    5        0.0000656049
    9    3    8    5        0.0000063383
    9    3    9    5       -0.0000041911
    9    3    6    6        0.0125491043
    9    3    7    6        0.0000000330
    9    3    8    6       -0.0035401773
    9    3    9    6        0.0000014876
    9    3    7    7        0.0088061450
    9    3    8    7        0.0000000926
    9    3    9    7        0.0000000786
    9    3    8    8        0.0101256422
    9    3    9    8        0.0000006841
    9    3    9    9        0.0259843996
    4    4    4    4        0.1381842538
    4    4    5    4       -0.0059312604
    4    4    6    4        0.0000531386
    4    4    7    4        0.0001464186
    4    4    8    4       -0.0000299705
    4    4    9    4       -0.0000110454
    4    4    5    5        0.1263087672
    4    4    6    5        0.0000120113
    4    4    7    5       -0.0001504441
    4    4    8    5       -0.0000909003
    4    4    9    5       -0.0000040834
    4    4    6    6        0.1250309976
    4    4    7    6        0.0003713123
    4    4    8    6        0.0006784129
    4    4    9    6       -0.0001677130
    4    4    7    7        0.1242077019
    4    4    8    7       -0.0008763360
    4    4    9    7       -0.0000021040
    4    4    8    8        0.1193834091
    4    4    9    8        0.0002590196
    4    4    9    9        0.1313142920
    5    4    5    4        0.0085545474
    5    4    6    4       -0.0000172931
    5    4    7    4       -0.0001411078
    5    4    8    4        0.0000500822
    5    4    9    4       -0.0000001729
    5    4    5    5        0.0059312207
    5    4    6    5       -0.0001155059
    5    4    7    5        0.0000031624
    5    4    8    5        0.0000816675
    5    4    9    5        0.0000008961
    5    4    6    6        0.0000033688
    5    4    7    6        0.0002983332
    5    4    8    6       -0.0000021210
    5    4    9    6       -0.0000000578
    5    4    7    7        0.0000000150
    5    4    8    7       -0.0007041293
    5    4    9    7       -0.0000017557
    5    4    8    8        0.0000054960
    5    4    9    8        0.0000000604
    5    4    9    9        0.0000046509
    6    4    6    4        0.0080097693
    6    4    7    4        0.0006784293
    6    4    8    4        0.0018872816
    6    4    9    4        0.0000190862
    6    4    5    5       -0.0001014609
    6    4    6    5        0.0000012699
    6    4    7    5        0.0005439604
    6    4    8    5       -0.0000008569
    6    4    9    5       -0.0000000022
    6    4    6    6       -0.0000987552
    6    4    7    6        0.0001047276
    6    4    8    6        0.0000095255
    6    4    9    6       -0.0000010771
    6    4    7    7       -0.0000568341
    6    4    8    7        0.0000485299
    6    4    9    7        0.0000036584
    6    4    8    8       -0.0000544371
    6    4    9    8       -0.0000006333
    6    4    9    9       -0.0000800271
    7    4    7    4        0.0071277147
    7    4    8    4       -0.0025483219
    7    4    9    4       -0.0000048270
    7    4    5    5        0.0000226203
    7    4    6    5        0.0005462143
    7    4    7    5       -0.0000007632
    7    4    8    5       -0.0020485440
    7    4    9    5       -0.0000039399
    7    4    6    6        0.0001767461
    7    4    7    6       -0.0000386427
    7    4    8    6        0.0000481767
    7    4    9    6        0.0000014791
    7    4    7    7        0.0003917216
    7    4    8    7       -0.0000153046
    7    4    9    7       -0.0000019670
    7    4    8    8        0.0001989343
    7    4    9    8        0.0000041258
    7    4    9    9        0.0001613314
    8    4    8    4        0.0069884090
    8    4    9    4        0.0000501470
    8    4    5    5        0.0000140823
    8    4    6    5       -0.0000008570
    8    4    7    5       -0.0020463477
    8    4    8    5        0.0000013229
    8    4    9    5        0.0000000471
    8    4    6    6       -0.0000305474
    8    4    7    6        0.0000679216
    8    4    8    6       -0.0000207291
    8    4    9    6       -0.0000019050
    8    4    7    7       -0.0000667374
    8    4    8    7        0.0000721473
    8    4    9    7        0.0000038605
    8    4    8    8        0.0000365135
    8    4    9    8        0.0000000899
    8    4    9    9        0.0000105914
    9    4    9    4        0.0044694895
    9    4    5    5       -0.0000088449
    9    4    6    5       -0.0000000280
    9    4    7    5       -0.0000039881
    9    4    8    5        0.0000000160
    9    4    9    5        0.0000010266
    9    4    6    6       -0.0000070838
    9    4    7    6        0.0000012866
    9    4    8    6       -0.0000009832
    9    4    9    6       -0.0000347377
    9    4    7    7       -0.0000073710
    9    4    8    7        0.0000029970
    9    4    9    7        0.0000504597
    9    4    8    8       -0.0000039707
    9    4    9    8        0.0000585691
    9    4    9    9       -0.0000110575
    5    5    5    5        0.1381841886
    5    5    6    5       -0.0001128124
    5    5    7    5        0.0000693813
    5    5    8    5        0.0000577777
    5    5    9    5       -0.0000027769
    5    5    6    6        0.1250364107
    5    5    7    6       -0.0003712916
    5    5    8    6        0.0006750063
    5    5    9    6       -0.0001676959
    5    5    7    7        0.1242077461
    5    5    8    7        0.0008764356
    5    5    9    7        0.0000020055
    5    5    8    8        0.1193922431
    5    5    9    8        0.0002593946
    5    5    9    9        0.1313218709
    6    5    6    5        0.0080118101
    6    5    7    5       -0.0006784305
    6    5    8    5        0.0018859068
    6    5    9    5        0.0000190895
    6    5    6    6       -0.0002060284
    6    5    7    6       -0.0000501874
    6    5    8    6        0.0000198820
    6    5    9    6       -0.0000011355
    6    5    7    7       -0.0001185845
    6    5    8    7       -0.0000232638
    6    5    9    7       -0.0000004974
    6    5    8    8       -0.0001135496
    6    5    9    8        0.0000020517
    6    5    9    9       -0.0001659605
    7    5    7    5        0.0071265074
    7    5    8    5        0.0025483348
    7    5    9    5        0.0000048477
    7    5    6    6       -0.0000847193
    7    5    7    6       -0.0000806332
    7    5    8    6       -0.0000230938
    7    5    9    6        0.0000005980
    7    5    7    7       -0.0001877746
    7    5    8    7       -0.0000319263
    7    5    9    7       -0.0000000357
    7    5    8    8       -0.0000953541
    7    5    9    8        0.0000007734
    7    5    9    9       -0.0000775387
    8    5    8    5        0.0069905385
    8    5    9    5        0.0000502463
    8    5    6    6       -0.0000637053
    8    5    7    6       -0.0000325574
    8    5    8    6       -0.0000432322
    8    5    9    6       -0.0000016258
    8    5    7    7       -0.0001392082
    8    5    8    7       -0.0000345774
    8    5    9    7       -0.0000000574
    8    5    8    8        0.0000761917
    8    5    9    8        0.0000029164
    8    5    9    9        0.0000209419
    9    5    9    5        0.0044712840
    9    5    6    6       -0.0000023726
    9    5    7    6       -0.0000000852
    9    5    8    6        0.0000000426
    9    5    9    6       -0.0000700369
    9    5    7    7       -0.0000018629
    9    5    8    7        0.0000001027
    9    5    9    7       -0.0000243627
    9    5    8    8        0.0000022908
    9    5    9    8        0.0001186961
    9    5    9    9       -0.0000042481
    6    6    6    6        0.1285825645
    6    6    7    6       -0.0000000013
    6    6    8    6       -0.0030302785
    6    6    9    6       -0.0003867612
    6    6    7    7        0.1186606978
    6    6    8    7        0.0000000483
    6    6    9    7       -0.0000001502
    6    6    8    8        0.1138396976
    6    6    9    8        0.0004898884
    6    6    9    9        0.1259369234
    7    6    7    6        0.0045530725
    7    6    8    6        0.0000000138
    7    6    9    6       -0.0000000376
    7    6    7    7        0.0000000301
    7    6    8    7        0.0030792224
    7    6    9    7        0.0000231273
    7    6    8    8        0.0000000138
    7    6    9    8       -0.0000000853
    7    6    9    9       -0.0000000263
    8    6    8    6        0.0049582383
    8    6    9    6        0.0000495580
    8    6    7    7        0.0031637648
    8    6    8    7        0.0000000131
    8    6    9    7        0.0000000082
    8    6    8    8        0.0000274429
    8    6    9    8       -0.0000085612
    8    6    9    9       -0.0040032697
    9    6    9    6        0.0090951083
    9    6    7    7       -0.0001506573
    9    6    8    7       -0.0000000084
    9    6    9    7       -0.0000001783
    9    6    8    8       -0.0002446869
    9    6    9    8       -0.0096394634
    9    6    9    9        0.0000030887
    7    7    7    7        0.1278499464
    7    7    8    7        0.0000000827
    7    7    9    7       -0.0000002076
    7    7    8    8        0.1137458821
    7    7    9    8        0.0002429853
    7    7    9    9        0.1201288825
    8    7    8    7        0.0049280944
    8    7    9    7        0.0000173991
    8    7    8    8        0.0000000223
    8    7    9    8        0.0000000502
    8    7    9    9        0.0000000140
    9    7    9    7        0.0014453265
    9    7    8    8       -0.0000001570
    9    7    9    8        0.0000002239
    9    7    9    9       -0.0000001328
    8    8    8    8        0.1177968008
    8    8    9    8        0.0004735229
    8    8    9    9        0.1228572489
    9    8    9    8        0.0141847036
    9    8    9    9       -0.0000002132
    9    9    9    9        0.1507297928
 end_two_electron_integrals


 output epsi filename:./pspw_hf_H2.emovecs

 Total PSPW energy     :  -0.1132516177E+01


=== Spin Contamination ===

 <Sexact^2> =    0.0000000000000000     
 <S^2>      =    0.0000000000000000     



== Center of Charge ==

spin up     (    0.0000,    0.0000,    0.0000 )
spin down   (    0.0000,    0.0000,    0.0000 )
     total  (    0.0000,    0.0000,    0.0000 )
ionic       (    0.0000,    0.0000,    0.0000 )


== Molecular Dipole wrt Center of Mass ==

mu   =  (   -0.0000,   -0.0000,   -0.0000 ) au
|mu| =     0.0000 au,       0.0000 Debye

 output psi filename:./pspw_hf_H2.movecs

 Writing Crystallographic Information File:./H2.cif
   - cell not shifted (nwpw:cif_shift_cell .false.)


== Timing ==

cputime in seconds
  prologue    :   0.857559E+01
  main loop   :   0.210873E+03
  epilogue    :   0.109109E-01
  total       :   0.219460E+03
  cputime/step:   0.229210E+01       (      92 evalulations,      41 linesearches)


Time spent doing                        total          step       percent
  total time                 :   0.219460E+03  0.238543E+01       100.0 %
  i/o time                   :   0.106802E+00  0.116089E-02         0.0 %
  FFTs                       :   0.188638E+03  0.205041E+01        86.0 %
  dot products               :   0.223595E+00  0.243038E-02         0.1 %
  geodesic                   :   0.583452E-01  0.634187E-03         0.0 %
  ffm_dgemm                  :   0.602144E-02  0.654505E-04         0.0 %
  fmf_dgemm                  :   0.269303E-01  0.292720E-03         0.0 %
  mmm_dgemm                  :   0.118602E-02  0.128915E-04         0.0 %
  m_diagonalize              :   0.756648E-03  0.822443E-05         0.0 %
  local pseudopotentials     :   0.215954E-01  0.234733E-03         0.0 %
  non-local pseudopotentials :   0.568069E+00  0.617466E-02         0.3 %
  structure factors          :   0.259640E+00  0.282218E-02         0.1 %
  phase factors              :   0.944200E-05  0.102630E-06         0.0 %
  masking and packing        :   0.282710E+01  0.307293E-01         1.3 %
  queue fft                  :   0.129659E+01  0.140933E-01         0.6 %
  queue fft (serial)         :   0.779275E+00  0.847038E-02         0.4 %
  queue fft (message passing):   0.474618E+00  0.515890E-02         0.2 %
  HFX potential              :   0.149350E+03  0.162337E+01        68.1 %
  non-local psp FFM          :   0.281751E+00  0.306251E-02         0.1 %
  non-local psp FMF          :   0.692520E-01  0.752739E-03         0.0 %
  non-local psp FFM A        :   0.764329E-01  0.830792E-03         0.0 %
  non-local psp FFM B        :   0.538778E-01  0.585628E-03         0.0 %

== HFX Counters ==
  HFX Evalulations         =    92
  Lin ACE HFX Evalulations =     0


     >>>  JOB COMPLETED     AT Thu May  1 12:55:47 2025  <<<

 Task  times  cpu:      219.1s     wall:      219.5s
 Summary of allocated global arrays
-----------------------------------
  No active global arrays


MA_summarize_allocated_blocks: starting scan ...
MA_summarize_allocated_blocks: scan completed: 0 heap blocks, 0 stack blocks
MA usage statistics:

	allocation statistics:
					      heap	     stack
					      ----	     -----
	current number of blocks	         0	         0
	maximum number of blocks	       313	        17
	current total bytes		         0	         0
	maximum total bytes		 365984128	  89294136
	maximum total K-bytes		    365985	     89295
	maximum total M-bytes		       366	        90


                                NWChem Input Module
                                -------------------




                                     CITATION
                                     --------
                Please cite the following reference when publishing
                           results obtained with NWChem:

          E. Apra, E. J. Bylaska, W. A. de Jong, N. Govind, K. Kowalski,
       T. P. Straatsma, M. Valiev, H. J. J. van Dam, Y. Alexeev, J. Anchell,
       V. Anisimov, F. W. Aquino, R. Atta-Fynn, J. Autschbach, N. P. Bauman,
     J. C. Becca, D. E. Bernholdt, K. Bhaskaran-Nair, S. Bogatko, P. Borowski,
         J. Boschen, J. Brabec, A. Bruner, E. Cauet, Y. Chen, G. N. Chuev,
      C. J. Cramer, J. Daily, M. J. O. Deegan, T. H. Dunning Jr., M. Dupuis,
   K. G. Dyall, G. I. Fann, S. A. Fischer, A. Fonari, H. Fruchtl, L. Gagliardi,
      J. Garza, N. Gawande, S. Ghosh, K. Glaesemann, A. W. Gotz, J. Hammond,
       V. Helms, E. D. Hermes, K. Hirao, S. Hirata, M. Jacquelin, L. Jensen,
   B. G. Johnson, H. Jonsson, R. A. Kendall, M. Klemm, R. Kobayashi, V. Konkov,
      S. Krishnamoorthy, M. Krishnan, Z. Lin, R. D. Lins, R. J. Littlefield,
      A. J. Logsdail, K. Lopata, W. Ma, A. V. Marenich, J. Martin del Campo,
   D. Mejia-Rodriguez, J. E. Moore, J. M. Mullin, T. Nakajima, D. R. Nascimento,
    J. A. Nichols, P. J. Nichols, J. Nieplocha, A. Otero-de-la-Roza, B. Palmer,
    A. Panyala, T. Pirojsirikul, B. Peng, R. Peverati, J. Pittner, L. Pollack,
   R. M. Richard, P. Sadayappan, G. C. Schatz, W. A. Shelton, D. W. Silverstein,
   D. M. A. Smith, T. A. Soares, D. Song, M. Swart, H. L. Taylor, G. S. Thomas,
            V. Tipparaju, D. G. Truhlar, K. Tsemekhman, T. Van Voorhis,
      A. Vazquez-Mayagoitia, P. Verma, O. Villa, A. Vishnu, K. D. Vogiatzis,
        D. Wang, J. H. Weare, M. J. Williamson, T. L. Windus, K. Wolinski,
        A. T. Wong, Q. Wu, C. Yang, Q. Yu, M. Zacharias, Z. Zhang, Y. Zhao,
                                and R. J. Harrison
                        "NWChem: Past, present, and future
                         J. Chem. Phys. 152, 184102 (2020)
                               doi:10.1063/5.0004997

                                      AUTHORS
                                      -------
  E. Apra, E. J. Bylaska, N. Govind, K. Kowalski, M. Valiev, D. Mejia-Rodriguez,
       A. Kunitsa, N. P. Bauman, A. Panyala, W. A. de Jong, T. P. Straatsma,
   H. J. J. van Dam, D. Wang, T. L. Windus, J. Hammond, J. Autschbach, A. Woods,
    K. Bhaskaran-Nair, J. Brabec, K. Lopata, S. A. Fischer, S. Krishnamoorthy,
     M. Jacquelin, W. Ma, M. Klemm, O. Villa, Y. Chen, V. Anisimov, F. Aquino,
     S. Hirata, M. T. Hackler, E. Hermes, L. Jensen, J. E. Moore, J. C. Becca,
      V. Konjkov, T. Risthaus, M. Malagoli, A. Marenich, A. Otero-de-la-Roza,
        J. Mullin, P. Nichols, R. Peverati, J. Pittner, Y. Zhao, P.-D. Fan,
        A. Fonari, M. J. Williamson, R. J. Harrison, J. R. Rehr, M. Dupuis,
     D. Silverstein, D. M. A. Smith, J. Nieplocha, V. Tipparaju, M. Krishnan,
     B. E. Van Kuiken, A. Vazquez-Mayagoitia, M. Swart, Q. Wu, T. Van Voorhis,
     A. A. Auer, M. Nooijen, L. D. Crosby, E. Brown, G. Cisneros, G. I. Fann,
   H. Fruchtl, J. Garza, K. Hirao, R. A. Kendall, J. A. Nichols, K. Tsemekhman,
    K. Wolinski, J. Anchell, D. E. Bernholdt, P. Borowski, T. Clark, D. Clerc,
   H. Dachsel, M. J. O. Deegan, K. Dyall, D. Elwood, E. Glendening, M. Gutowski,
   A. C. Hess, J. Jaffe, B. G. Johnson, J. Ju, R. Kobayashi, R. Kutteh, Z. Lin,
   R. Littlefield, X. Long, B. Meng, T. Nakajima, S. Niu, L. Pollack, M. Rosing,
   K. Glaesemann, G. Sandrone, M. Stave, H. Taylor, G. Thomas, J. H. van Lenthe,
                               A. T. Wong, Z. Zhang.

 Total times  cpu:      219.1s     wall:      219.5s
