 argument  1 = H2-0.9.nw



============================== echo of input deck ==============================
title "swnc: e theory=pspw4 xc=hf formula=H2 charge=0 mult=1"
#machinejob:expert

echo

start pspw_hf_H2

memory heap 1200 mb stack 1200 mb global 10 mb

charge 0

geometry
H    0.00000    0.00000   -0.45000
H    0.00000    0.00000    0.45000
end

nwpw
  ### pseudopotential block begin ###
  ### pseudopotential block end   ###
  simulation_cell
     SC 15.0000
     boundary_conditions aperiodic
  end

  cutoff 50.0
  mult 1
  xc hf
  lmbfgs
  tolerances 1.0e-9 1.0e-9

  virtual 8
end
set nwpw:cif_filename H2

#set nwpw:CI_maxit_orb 15
#set nwpw:CI_maxit_linesearch 15
set pspw:HFX_screening_radius 14.0


set nwpw:2qintegrals .true.
#set nwpw:3x3_virtual .true.

task pspw energy

================================================================================


                                         
                                         


             Northwest Computational Chemistry Package (NWChem) 7.2.2
             --------------------------------------------------------


                    Environmental Molecular Sciences Laboratory
                       Pacific Northwest National Laboratory
                                Richland, WA 99352

                              Copyright (c) 1994-2022
                       Pacific Northwest National Laboratory
                            Battelle Memorial Institute

             NWChem is an open-source computational chemistry package
                        distributed under the terms of the
                      Educational Community License (ECL) 2.0
             A copy of the license is included with this distribution
                              in the LICENSE.TXT file

                                  ACKNOWLEDGMENT
                                  --------------

            This software and its documentation were developed at the
            EMSL at Pacific Northwest National Laboratory, a multiprogram
            national laboratory, operated for the U.S. Department of Energy
            by Battelle under Contract Number DE-AC05-76RL01830. Support
            for this work was provided by the Department of Energy Office
            of Biological and Environmental Research, Office of Basic
            Energy Sciences, and the Office of Advanced Scientific Computing.


           Job information
           ---------------

    hostname        = LAPTOP-JJQSTSEL
    program         = nwchem
    date            = Thu May  1 12:57:29 2025

    compiled        = Fri_Jun_07_07:50:04_2024
    source          = /home/conda/feedstock_root/build_artifacts/nwchem_1717738148552/work
    nwchem branch   = 7.2.2
    nwchem revision = 64ba0f0
    ga revision     = 5.8.0
    use scalapack   = T
    input           = H2-0.9.nw
    prefix          = pspw_hf_H2.
    data base       = ./pspw_hf_H2.db
    status          = startup
    nproc           =        1
    time left       =     -1s



           Memory information
           ------------------

    heap     =  157286398 doubles =   1200.0 Mbytes
    stack    =  157286395 doubles =   1200.0 Mbytes
    global   =    1310720 doubles =     10.0 Mbytes (distinct from heap & stack)
    total    =  315883513 doubles =   2410.0 Mbytes
    verify   = yes
    hardfail = no 


           Directory information
           ---------------------

  0 permanent = .
  0 scratch   = .




                                NWChem Input Module
                                -------------------


               swnc: e theory=pspw4 xc=hf formula=H2 charge=0 mult=1
               -----------------------------------------------------

 Scaling coordinates for geometry "geometry" by  1.889725989
 (inverse scale =  0.529177249)

 ORDER OF PRIMARY AXIS IS BEING SET TO 4
 D4H symmetry detected

          ------
          auto-z
          ------
  no constraints, skipping    0.0000000000000000     
  no constraints, skipping    0.0000000000000000     


                             Geometry "geometry" -> ""
                             -------------------------

 Output coordinates in angstroms (scale by  1.889725989 to convert to a.u.)

  No.       Tag          Charge          X              Y              Z
 ---- ---------------- ---------- -------------- -------------- --------------
    1 H                    1.0000     0.00000000     0.00000000    -0.45000000
    2 H                    1.0000     0.00000000     0.00000000     0.45000000

      Atomic Mass 
      ----------- 

      H                  1.007825


 Effective nuclear repulsion energy (a.u.)       0.5879747211

            Nuclear Dipole moment (a.u.) 
            ----------------------------
        X                 Y               Z
 ---------------- ---------------- ----------------
     0.0000000000     0.0000000000     0.0000000000

      Symmetry information
      --------------------

 Group name             D4h       
 Group number             28
 Group order              16
 No. of unique centers     1

      Symmetry unique atoms

     1



                                Z-matrix (autoz)
                                -------- 

 Units are Angstrom for bonds and degrees for angles

      Type          Name      I     J     K     L     M      Value
      ----------- --------  ----- ----- ----- ----- ----- ----------
    1 Stretch                  1     2                       0.90000


            XYZ format geometry
            -------------------
     2
 geometry
 H                     0.00000000     0.00000000    -0.45000000
 H                     0.00000000     0.00000000     0.45000000

          ****************************************************
          *                                                  *
          *               NWPW PSPW Calculation              *
          *                                                  *
          * [ (Grassmann/Stiefel manifold implementation)  ] *
          *                                                  *
          *      [ NorthWest Chemistry implementation ]      *
          *                                                  *
          *            version #5.10   06/12/02              *
          *                                                  *
          *    This code was developed by Eric J. Bylaska,   *
          *    and was based upon algorithms and code        *
          *    developed by the group of Prof. John H. Weare *
          *                                                  *
          ****************************************************
     >>>  JOB STARTED       AT Thu May  1 12:57:29 2025  <<<
          ================ input data ========================

 input psi filename:./pspw_hf_H2.movecs

 number of processors used:         1
 processor grid           :   1 x   1
 parallel mapping         :2d-hilbert
 parallel mapping         :  balanced
 number of threads        :         1
 parallel io              :       off

 options:
      boundary conditions  = aperiodic   (version4)
      electron spin        = restricted
      exchange-correlation = Hartree-Fock
      - HFX relaxed
      - HFX restricted orbitals :    1
      - HFX free-space coulomb solver


 elements involved in the cluster:
      1: H   valence charge:  1.0000  lmax=  1
             comment    : Parameterized (Chem.Phys.Lett., vol 322, page 447) Hamman psp
             pseudpotential type            :   0
             highest angular component      :   1
             local potential used           :   1
             number of non-local projections:   1
             aperiodic cutoff radius        :  1.000
             cutoff =   0.800   0.800


 total charge:   0.000

 atomic composition:
     H   :    2

 number of electrons: spin up=     1 (   1 per task)  down=     1 (   1 per task) (Fourier space)
 number of orbitals : spin up=     1 (   1 per task)  down=     1 (   1 per task) (Fourier space)

 supercell:
      cell_name:  cell_default                                      
      lattice:    a1=<  15.000   0.000   0.000 >
                  a2=<   0.000  15.000   0.000 >
                  a3=<   0.000   0.000  15.000 >
      reciprocal: b1=<   0.419   0.000   0.000 >
                  b2=<   0.000   0.419   0.000 >
                  b3=<   0.000   0.000   0.419 >
      lattice:    a=      15.000 b=     15.000 c=      15.000
                  alpha=  90.000 beta=  90.000 gamma=  90.000
                  omega=      3375.0

      density cutoff=100.000  fft= 70x 70x 70(    80618 waves    80618 per task)
      wavefnc cutoff= 50.000  fft= 70x 70x 70(    28526 waves    28526 per task)

 technical parameters:
      time step=      5.80     fictitious mass=  400000.0
      tolerance=0.100E-08 (energy)   0.100E-08 (density)
      maximum iterations =      1000 (   10 inner    100 outer )





== Energy Calculation ==


          ============ Grassmann lmbfgs iteration ============
     >>>  ITERATION STARTED AT Thu May  1 12:57:38 2025  <<<
    iter.           Energy         DeltaE       DeltaRho 
    ------------------------------------------------------
      10   -0.1119265884E+01   -0.69851E-04    0.19046E-02
      20   -0.1119416714E+01   -0.19044E-05    0.30205E-05
      30   -0.1119421476E+01   -0.73912E-07    0.58017E-08
      40   -0.1119421638E+01   -0.16403E-08    0.15739E-10
      50   -0.1119421640E+01   -0.81329E-09    0.36217E-12
  *** tolerance ok. iteration terminated
     >>>  ITERATION ENDED   AT Thu May  1 12:58:16 2025  <<<


==  Summary Of Results  ==

 number of electrons: spin up=    1.00000  down=    1.00000 (real space)

 total     energy    :  -0.1119421640E+01 (   -0.55971E+00/ion)
 total orbital energy:  -0.1101846665E+01 (   -0.11018E+01/electron)
 hartree   energy    :   0.1211099392E+01 (    0.12111E+01/electron)
 exc-corr  energy    :   0.0000000000E+00 (    0.00000E+00/electron)
 HF exchange energy  :  -0.6055496958E+00 (   -0.60555E+00/electron)
 ion-ion   energy    :   0.5879747211E+00 (    0.29399E+00/ion)

 kinetic (planewave) :   0.9357409318E+00 (    0.93574E+00/electron)
 V_local (planewave) :  -0.2987518388E+01 (   -0.29875E+01/electron)
 V_nl    (planewave) :  -0.2611686006E+00 (   -0.26117E+00/electron)
 V_Coul  (planewave) :   0.2422198783E+01 (    0.24222E+01/electron)
 V_xc.   (planewave) :   0.0000000000E+00 (    0.00000E+00/electron)
 K.S. HFX energy     :  -0.1211099392E+01 (   -0.12111E+01/electron)
 Virial Coefficient  :  -0.8832446858E+00

 orbital energies:
    -0.5509233E+00 ( -14.992eV)


== Virtual Orbital Calculation ==


 input epsi filename:./pspw_hf_H2.emovecs
     orbital   1 current e= 0.695E-02 (error=0.811E-09) iterations  43(  17 preconditioned, Ep,Sp= 20.0  200.0)
     orbital   2 current e= 0.774E-01 (error=0.862E-09) iterations  69(  31 preconditioned, Ep,Sp= 20.0  200.0)
     orbital   3 current e= 0.854E-01 (error=0.981E-09) iterations  44(   9 preconditioned, Ep,Sp= 20.0  200.0)
     orbital   4 current e= 0.854E-01 (error=0.981E-09) iterations  44(   9 preconditioned, Ep,Sp= 20.0  200.0)
     orbital   5 current e= 0.871E-01 (error=0.852E-09) iterations  39(   3 preconditioned, Ep,Sp= 20.0  200.0)
     orbital   6 current e= 0.879E-01 (error=0.852E-09) iterations  24(   1 preconditioned, Ep,Sp= 20.0  200.0)
     orbital   7 current e= 0.113E+00 (error=0.757E-09) iterations  58(  28 preconditioned, Ep,Sp= 20.0  200.0)
     orbital   8 current e= 0.147E+00 (error=0.904E-09) iterations  68(  42 preconditioned, Ep,Sp= 20.0  200.0)

 virtual orbital energies:
     0.1474896E+00 (   4.013eV)
     0.1129288E+00 (   3.073eV)
     0.8791132E-01 (   2.392eV)
     0.8705723E-01 (   2.369eV)
     0.8539970E-01 (   2.324eV)
     0.8539970E-01 (   2.324eV)
     0.7739610E-01 (   2.106eV)
     0.6946662E-02 (   0.189eV)


 == Generating One-Electron and Two-Electron Integrals ==

 begin_one_electron_integrals
    1    1        -1.1564730284
    2    1        -0.0327685425
    3    1        -0.0000002793
    4    1         0.0000000414
    5    1        -0.0000006807
    6    1        -0.0028598768
    7    1         0.0000000273
    8    1        -0.0448891949
    9    1         0.0000014189
    2    2        -0.2697732374
    3    2        -0.0000024322
    4    2        -0.0000000148
    5    2         0.0000002564
    6    2        -0.0024316955
    7    2         0.0000000293
    8    2        -0.0669960269
    9    2        -0.0000005972
    3    3        -0.3024831774
    4    3         0.0000000926
    5    3        -0.0000000885
    6    3         0.0000103333
    7    3         0.0000001714
    8    3         0.0000001358
    9    3        -0.1435439282
    4    4        -0.2339998941
    5    4         0.0000000003
    6    4        -0.0000005723
    7    4         0.0000115406
    8    4         0.0000000315
    9    4        -0.0000258726
    5    5        -0.2339998949
    6    5         0.0000094994
    7    5         0.0000006724
    8    5        -0.0000007219
    9    5         0.0000242244
    6    6        -0.1923462842
    7    6         0.0000000414
    8    6        -0.0009526578
    9    6         0.0000153060
    7    7        -0.1888045072
    8    7        -0.0000000300
    9    7         0.0000004140
    8    8        -0.1712711265
    9    8         0.0000008926
    9    9        -0.2624577722
 end_one_electron_integrals

 begin_two_electron_integrals
    1    1    1    1        0.6055496958
    1    1    2    1        0.0327770385
    1    1    3    1        0.0000002776
    1    1    4    1       -0.0000000414
    1    1    5    1        0.0000006803
    1    1    6    1        0.0028562720
    1    1    7    1       -0.0000000273
    1    1    8    1        0.0448785716
    1    1    9    1       -0.0000014197
    1    1    2    2        0.1397532030
    1    1    3    2        0.0000017739
    1    1    4    2        0.0000000225
    1    1    5    2       -0.0000003814
    1    1    6    2        0.0013464111
    1    1    7    2       -0.0000000162
    1    1    8    2        0.0354697727
    1    1    9    2        0.0000009047
    1    1    3    3        0.1960605483
    1    1    4    3       -0.0000000456
    1    1    5    3        0.0000000438
    1    1    6    3       -0.0000049814
    1    1    7    3       -0.0000000995
    1    1    8    3        0.0000002524
    1    1    9    3        0.0802224833
    1    1    4    4        0.1609496144
    1    1    5    4       -0.0000000002
    1    1    6    4        0.0000002885
    1    1    7    4       -0.0000056797
    1    1    8    4       -0.0000000089
    1    1    9    4        0.0000134960
    1    1    5    5        0.1609496148
    1    1    6    5       -0.0000047875
    1    1    7    5       -0.0000003295
    1    1    8    5        0.0000002502
    1    1    9    5       -0.0000126359
    1    1    6    6        0.1398129704
    1    1    7    6       -0.0000000211
    1    1    8    6        0.0006605665
    1    1    9    6       -0.0000075721
    1    1    7    7        0.1384254496
    1    1    8    7        0.0000000126
    1    1    9    7       -0.0000002291
    1    1    8    8        0.1449384979
    1    1    9    8       -0.0000001638
    1    1    9    9        0.2167526712
    2    1    2    1        0.0027865067
    2    1    3    1        0.0000011220
    2    1    4    1        0.0000000302
    2    1    5    1       -0.0000005067
    2    1    6    1        0.0002618154
    2    1    7    1       -0.0000000026
    2    1    8    1        0.0039624820
    2    1    9    1        0.0000012151
    2    1    2    2        0.0005072968
    2    1    3    2       -0.0000030930
    2    1    4    2       -0.0000002142
    2    1    5    2        0.0000035845
    2    1    6    2       -0.0000142031
    2    1    7    2       -0.0000000004
    2    1    8    2        0.0007283499
    2    1    9    2        0.0000004132
    2    1    3    3        0.0024148154
    2    1    4    3       -0.0000000016
    2    1    5    3        0.0000000041
    2    1    6    3       -0.0000021448
    2    1    7    3       -0.0000000063
    2    1    8    3       -0.0000010092
    2    1    9    3        0.0031426092
    2    1    4    4        0.0008467223
    2    1    5    4        0.0000000002
    2    1    6    4        0.0000000657
    2    1    7    4       -0.0000018501
    2    1    8    4       -0.0000000495
    2    1    9    4        0.0000003392
    2    1    5    5        0.0008467184
    2    1    6    5       -0.0000010980
    2    1    7    5       -0.0000001099
    2    1    8    5        0.0000008312
    2    1    9    5       -0.0000003193
    2    1    6    6        0.0002029330
    2    1    7    6       -0.0000000005
    2    1    8    6        0.0000063783
    2    1    9    6       -0.0000019177
    2    1    7    7        0.0002156638
    2    1    8    7       -0.0000000006
    2    1    9    7       -0.0000000105
    2    1    8    8        0.0010748547
    2    1    9    8       -0.0000020986
    2    1    9    9        0.0043883431
    3    1    3    1        0.0122418227
    3    1    4    1       -0.0000000067
    3    1    5    1        0.0000000070
    3    1    6    1        0.0000003649
    3    1    7    1       -0.0000000361
    3    1    8    1        0.0000006440
    3    1    9    1        0.0169032286
    3    1    2    2       -0.0000941131
    3    1    3    2       -0.0059681697
    3    1    4    2        0.0000000074
    3    1    5    2       -0.0000000244
    3    1    6    2       -0.0001131886
    3    1    7    2       -0.0000000003
    3    1    8    2        0.0000279572
    3    1    9    2       -0.0004085327
    3    1    3    3       -0.0000010591
    3    1    4    3        0.0000000111
    3    1    5    3       -0.0000001998
    3    1    6    3       -0.0039175372
    3    1    7    3        0.0000000099
    3    1    8    3       -0.0040113654
    3    1    9    3       -0.0000005367
    3    1    4    4       -0.0000756988
    3    1    5    4        0.0000000002
    3    1    6    4        0.0000000029
    3    1    7    4       -0.0000000036
    3    1    8    4        0.0000000049
    3    1    9    4        0.0000003189
    3    1    5    5       -0.0000756987
    3    1    6    5       -0.0000000153
    3    1    7    5        0.0000000007
    3    1    8    5       -0.0000000170
    3    1    9    5       -0.0000016004
    3    1    6    6       -0.0001703611
    3    1    7    6       -0.0000000010
    3    1    8    6       -0.0000212032
    3    1    9    6       -0.0043023563
    3    1    7    7       -0.0000709188
    3    1    8    7       -0.0000000050
    3    1    9    7        0.0000000411
    3    1    8    8       -0.0001014918
    3    1    9    8       -0.0041592589
    3    1    9    9        0.0000001442
    4    1    4    1        0.0024996347
    4    1    5    1       -0.0000000000
    4    1    6    1        0.0000000048
    4    1    7    1        0.0000001812
    4    1    8    1        0.0000000137
    4    1    9    1        0.0000010968
    4    1    2    2       -0.0000045514
    4    1    3    2        0.0000000006
    4    1    4    2       -0.0036929853
    4    1    5    2        0.0000000002
    4    1    6    2        0.0000027761
    4    1    7    2       -0.0000801112
    4    1    8    2        0.0000013404
    4    1    9    2       -0.0000003830
    4    1    3    3       -0.0000026581
    4    1    4    3       -0.0000006773
    4    1    5    3        0.0000000012
    4    1    6    3        0.0000000017
    4    1    7    3       -0.0000000089
    4    1    8    3        0.0000000044
    4    1    9    3        0.0000033188
    4    1    4    4        0.0000017178
    4    1    5    4       -0.0000294476
    4    1    6    4        0.0008046000
    4    1    7    4       -0.0001809865
    4    1    8    4       -0.0021676408
    4    1    9    4        0.0000001618
    4    1    5    5       -0.0000054299
    4    1    6    5       -0.0000000004
    4    1    7    5        0.0015090943
    4    1    8    5       -0.0000000008
    4    1    9    5        0.0000000045
    4    1    6    6       -0.0000046420
    4    1    7    6        0.0000351931
    4    1    8    6        0.0000004877
    4    1    9    6        0.0000003870
    4    1    7    7       -0.0000071172
    4    1    8    7       -0.0000134791
    4    1    9    7       -0.0000006957
    4    1    8    8       -0.0000050648
    4    1    9    8       -0.0000009754
    4    1    9    9       -0.0000045124
    5    1    5    1        0.0024996346
    5    1    6    1       -0.0000000752
    5    1    7    1        0.0000000134
    5    1    8    1       -0.0000002219
    5    1    9    1       -0.0000010259
    5    1    2    2        0.0000761736
    5    1    3    2        0.0000000031
    5    1    4    2        0.0000000003
    5    1    5    2       -0.0036929893
    5    1    6    2       -0.0000464622
    5    1    7    2       -0.0000047865
    5    1    8    2       -0.0000224365
    5    1    9    2        0.0000003451
    5    1    3    3        0.0000444703
    5    1    4    3        0.0000000012
    5    1    5    3       -0.0000006770
    5    1    6    3       -0.0000000015
    5    1    7    3       -0.0000000015
    5    1    8    3       -0.0000000134
    5    1    9    3       -0.0000534575
    5    1    4    4        0.0000305776
    5    1    5    4       -0.0000018433
    5    1    6    4       -0.0000000004
    5    1    7    4        0.0015090918
    5    1    8    4       -0.0000000008
    5    1    9    4       -0.0000000097
    5    1    5    5        0.0000315472
    5    1    6    5        0.0008046072
    5    1    7    5        0.0001809885
    5    1    8    5       -0.0021676275
    5    1    9    5        0.0000001750
    5    1    6    6        0.0000776930
    5    1    7    6        0.0000021033
    5    1    8    6       -0.0000081606
    5    1    9    6       -0.0000003535
    5    1    7    7        0.0001191298
    5    1    8    7       -0.0000008055
    5    1    9    7        0.0000005952
    5    1    8    8        0.0000847498
    5    1    9    8        0.0000009266
    5    1    9    9        0.0000759296
    6    1    6    1        0.0002224269
    6    1    7    1       -0.0000000008
    6    1    8    1        0.0003709348
    6    1    9    1        0.0000001605
    6    1    2    2        0.0000353234
    6    1    3    2       -0.0000046228
    6    1    4    2        0.0000001343
    6    1    5    2       -0.0000022546
    6    1    6    2       -0.0008074269
    6    1    7    2        0.0000000002
    6    1    8    2        0.0000694676
    6    1    9    2        0.0000004501
    6    1    3    3       -0.0004696005
    6    1    4    3       -0.0000000001
    6    1    5    3        0.0000000017
    6    1    6    3       -0.0000029396
    6    1    7    3        0.0000000000
    6    1    8    3       -0.0000014962
    6    1    9    3       -0.0007510697
    6    1    4    4        0.0002293801
    6    1    5    4       -0.0000000003
    6    1    6    4       -0.0000000454
    6    1    7    4        0.0000009652
    6    1    8    4        0.0000000258
    6    1    9    4        0.0000001451
    6    1    5    5        0.0002293860
    6    1    6    5        0.0000007627
    6    1    7    5        0.0000000580
    6    1    8    5       -0.0000004339
    6    1    9    5       -0.0000001372
    6    1    6    6       -0.0003023117
    6    1    7    6       -0.0000000005
    6    1    8    6       -0.0006306511
    6    1    9    6       -0.0000022674
    6    1    7    7        0.0002909171
    6    1    8    7        0.0000000005
    6    1    9    7       -0.0000000014
    6    1    8    8        0.0001130235
    6    1    9    8       -0.0000030025
    6    1    9    9       -0.0005713922
    7    1    7    1        0.0001350684
    7    1    8    1       -0.0000000039
    7    1    9    1       -0.0000000515
    7    1    2    2        0.0000000000
    7    1    3    2        0.0000000100
    7    1    4    2       -0.0000043649
    7    1    5    2       -0.0000002630
    7    1    6    2        0.0000000015
    7    1    7    2       -0.0006954802
    7    1    8    2       -0.0000000006
    7    1    9    2        0.0000000008
    7    1    3    3        0.0000000008
    7    1    4    3       -0.0000000058
    7    1    5    3       -0.0000000004
    7    1    6    3        0.0000000080
    7    1    7    3       -0.0000002333
    7    1    8    3        0.0000000069
    7    1    9    3        0.0000000058
    7    1    4    4       -0.0000293676
    7    1    5    4        0.0002448596
    7    1    6    4        0.0000010806
    7    1    7    4       -0.0000001315
    7    1    8    4       -0.0000009379
    7    1    9    4       -0.0000001760
    7    1    5    5        0.0000293668
    7    1    6    5        0.0000000652
    7    1    7    5        0.0000022245
    7    1    8    5       -0.0000000575
    7    1    9    5        0.0000001485
    7    1    6    6        0.0000000008
    7    1    7    6        0.0002244009
    7    1    8    6        0.0000000012
    7    1    9    6        0.0000000078
    7    1    7    7       -0.0000000016
    7    1    8    7       -0.0005282939
    7    1    9    7        0.0000001189
    7    1    8    8       -0.0000000004
    7    1    9    8        0.0000000075
    7    1    9    9       -0.0000000014
    8    1    8    1        0.0056770350
    8    1    9    1        0.0000005732
    8    1    2    2        0.0005553255
    8    1    3    2       -0.0000013611
    8    1    4    2       -0.0000000938
    8    1    5    2        0.0000015596
    8    1    6    2       -0.0000015993
    8    1    7    2       -0.0000000006
    8    1    8    2        0.0007971013
    8    1    9    2       -0.0000000678
    8    1    3    3        0.0027898415
    8    1    4    3       -0.0000000011
    8    1    5    3       -0.0000000027
    8    1    6    3       -0.0000013607
    8    1    7    3       -0.0000000082
    8    1    8    3       -0.0000007247
    8    1    9    3        0.0037994016
    8    1    4    4        0.0008304046
    8    1    5    4       -0.0000000003
    8    1    6    4        0.0000000441
    8    1    7    4       -0.0000011500
    8    1    8    4       -0.0000000442
    8    1    9    4        0.0000003518
    8    1    5    5        0.0008304096
    8    1    6    5       -0.0000007335
    8    1    7    5       -0.0000000677
    8    1    8    5        0.0000007350
    8    1    9    5       -0.0000003279
    8    1    6    6        0.0000961873
    8    1    7    6       -0.0000000004
    8    1    8    6        0.0000213462
    8    1    9    6       -0.0000012861
    8    1    7    7        0.0001160716
    8    1    8    7       -0.0000000008
    8    1    9    7       -0.0000000127
    8    1    8    8        0.0012446337
    8    1    9    8       -0.0000009476
    8    1    9    9        0.0054190157
    9    1    9    1        0.0235579946
    9    1    2    2       -0.0001066329
    9    1    3    2       -0.0067053802
    9    1    4    2       -0.0000013477
    9    1    5    2        0.0000012205
    9    1    6    2       -0.0001293603
    9    1    7    2       -0.0000000273
    9    1    8    2        0.0000295159
    9    1    9    2       -0.0005992776
    9    1    3    3       -0.0000013334
    9    1    4    3        0.0000001647
    9    1    5    3       -0.0000020253
    9    1    6    3       -0.0048613174
    9    1    7    3        0.0000000149
    9    1    8    3       -0.0047191243
    9    1    9    3       -0.0000006127
    9    1    4    4       -0.0000858167
    9    1    5    4       -0.0000000109
    9    1    6    4        0.0000003520
    9    1    7    4       -0.0000006567
    9    1    8    4       -0.0000008644
    9    1    9    4        0.0000003417
    9    1    5    5       -0.0000858191
    9    1    6    5       -0.0000003657
    9    1    7    5        0.0000005571
    9    1    8    5        0.0000008103
    9    1    9    5       -0.0000011990
    9    1    6    6       -0.0001961503
    9    1    7    6        0.0000000109
    9    1    8    6       -0.0000261909
    9    1    9    6       -0.0052548761
    9    1    7    7       -0.0000796476
    9    1    8    7       -0.0000000099
    9    1    9    7        0.0000000456
    9    1    8    8       -0.0001137567
    9    1    9    8       -0.0047649541
    9    1    9    9        0.0000000899
    2    2    2    2        0.1187686365
    2    2    3    2        0.0004375968
    2    2    4    2        0.0000378417
    2    2    5    2       -0.0006333290
    2    2    6    2        0.0004135206
    2    2    7    2       -0.0000000089
    2    2    8    2        0.0094228283
    2    2    9    2       -0.0001280184
    2    2    3    3        0.1269298882
    2    2    4    3        0.0000001891
    2    2    5    3       -0.0000032689
    2    2    6    3        0.0002114985
    2    2    7    3       -0.0000000021
    2    2    8    3        0.0000644605
    2    2    9    3        0.0089845161
    2    2    4    4        0.1238470448
    2    2    5    4       -0.0000002934
    2    2    6    4       -0.0000078693
    2    2    7    4        0.0002320076
    2    2    8    4        0.0000023340
    2    2    9    4        0.0000022636
    2    2    5    5        0.1238519370
    2    2    6    5        0.0001317017
    2    2    7    5        0.0000138611
    2    2    8    5       -0.0000390451
    2    2    9    5       -0.0000005223
    2    2    6    6        0.1199624120
    2    2    7    6       -0.0000000027
    2    2    8    6       -0.0000256516
    2    2    9    6        0.0001819629
    2    2    7    7        0.1196762051
    2    2    8    7        0.0000000150
    2    2    9    7        0.0000000492
    2    2    8    8        0.1145167842
    2    2    9    8        0.0003071538
    2    2    9    9        0.1230540256
    3    2    3    2        0.0219181871
    3    2    4    2        0.0000001561
    3    2    5    2       -0.0000025860
    3    2    6    2        0.0004796046
    3    2    7    2       -0.0000000027
    3    2    8    2       -0.0002098840
    3    2    9    2       -0.0058511597
    3    2    3    3        0.0000025412
    3    2    4    3        0.0000094147
    3    2    5    3       -0.0001574910
    3    2    6    3        0.0073362840
    3    2    7    3       -0.0000000238
    3    2    8    3        0.0061995447
    3    2    9    3        0.0000025846
    3    2    4    4        0.0003486758
    3    2    5    4       -0.0000000012
    3    2    6    4        0.0000001427
    3    2    7    4        0.0000009382
    3    2    8    4       -0.0000001364
    3    2    9    4       -0.0000060701
    3    2    5    5        0.0003486930
    3    2    6    5       -0.0000024537
    3    2    7    5        0.0000000511
    3    2    8    5        0.0000021893
    3    2    9    5        0.0000886475
    3    2    6    6        0.0006783453
    3    2    7    6        0.0000000026
    3    2    8    6        0.0000241581
    3    2    9    6        0.0104141622
    3    2    7    7        0.0003501390
    3    2    8    7        0.0000000223
    3    2    9    7       -0.0000001536
    3    2    8    8        0.0005390189
    3    2    9    8        0.0137588186
    3    2    9    9        0.0000000456
    4    2    4    2        0.0243303058
    4    2    5    2       -0.0000002545
    4    2    6    2       -0.0000212922
    4    2    7    2        0.0006090024
    4    2    8    2       -0.0000184291
    4    2    9    2       -0.0000005611
    4    2    3    3        0.0000216160
    4    2    4    3        0.0001395224
    4    2    5    3       -0.0000000046
    4    2    6    3       -0.0000000358
    4    2    7    3        0.0000027439
    4    2    8    3       -0.0000001466
    4    2    9    3       -0.0000282460
    4    2    4    4       -0.0000263102
    4    2    5    4        0.0002441051
    4    2    6    4       -0.0027372923
    4    2    7    4        0.0006172254
    4    2    8    4        0.0040693285
    4    2    9    4       -0.0000467050
    4    2    5    5        0.0000563992
    4    2    6    5        0.0000002027
    4    2    7    5       -0.0051480460
    4    2    8    5        0.0000002056
    4    2    9    5       -0.0000000473
    4    2    6    6        0.0000374165
    4    2    7    6       -0.0002107342
    4    2    8    6       -0.0000005411
    4    2    9    6       -0.0000017803
    4    2    7    7        0.0000521303
    4    2    8    7        0.0000124366
    4    2    9    7        0.0000007751
    4    2    8    8        0.0000481049
    4    2    9    8        0.0000052218
    4    2    9    9        0.0000418509
    5    2    5    2        0.0243345499
    5    2    6    2        0.0003563480
    5    2    7    2        0.0000363862
    5    2    8    2        0.0003084312
    5    2    9    2        0.0000038930
    5    2    3    3       -0.0003616761
    5    2    4    3       -0.0000000050
    5    2    5    3        0.0001395393
    5    2    6    3        0.0000005465
    5    2    7    3        0.0000001713
    5    2    8    3        0.0000021326
    5    2    9    3        0.0004611584
    5    2    4    4       -0.0000542653
    5    2    5    4        0.0000385715
    5    2    6    4        0.0000002027
    5    2    7    4       -0.0051451945
    5    2    8    4        0.0000002057
    5    2    9    4        0.0000000660
    5    2    5    5       -0.0004493194
    5    2    6    5       -0.0027406767
    5    2    7    5       -0.0006172494
    5    2    8    5        0.0040658968
    5    2    9    5       -0.0000468801
    5    2    6    6       -0.0006262223
    5    2    7    6       -0.0000125931
    5    2    8    6        0.0000090311
    5    2    9    6        0.0000005394
    5    2    7    7       -0.0008724810
    5    2    8    7        0.0000007425
    5    2    9    7       -0.0000030585
    5    2    8    8       -0.0008050186
    5    2    9    8       -0.0000084336
    5    2    9    9       -0.0006923329
    6    2    6    2        0.0131066688
    6    2    7    2        0.0000000008
    6    2    8    2        0.0000737437
    6    2    9    2       -0.0000947678
    6    2    3    3        0.0030053613
    6    2    4    3        0.0000001029
    6    2    5    3       -0.0000016757
    6    2    6    3        0.0002667348
    6    2    7    3       -0.0000000008
    6    2    8    3        0.0001155840
    6    2    9    3        0.0069165138
    6    2    4    4        0.0001639784
    6    2    5    4        0.0000003275
    6    2    6    4        0.0000098901
    6    2    7    4       -0.0001022599
    6    2    8    4       -0.0000032712
    6    2    9    4       -0.0000010424
    6    2    5    5        0.0001585160
    6    2    6    5       -0.0001655265
    6    2    7    5       -0.0000061110
    6    2    8    5        0.0000547315
    6    2    9    5        0.0000016563
    6    2    6    6        0.0014640040
    6    2    7    6        0.0000000118
    6    2    8    6        0.0051382481
    6    2    9    6        0.0002179805
    6    2    7    7       -0.0005390719
    6    2    8    7       -0.0000000019
    6    2    9    7       -0.0000000264
    6    2    8    8        0.0000696029
    6    2    9    8        0.0003177284
    6    2    9    9        0.0000855832
    7    2    7    2        0.0130064185
    7    2    8    2        0.0000000007
    7    2    9    2        0.0000000165
    7    2    3    3       -0.0000000134
    7    2    4    3        0.0000031800
    7    2    5    3        0.0000001949
    7    2    6    3       -0.0000000021
    7    2    7    3        0.0000723007
    7    2    8    3        0.0000000054
    7    2    9    3       -0.0000001012
    7    2    4    4        0.0000867513
    7    2    5    4       -0.0007234519
    7    2    6    4       -0.0000986199
    7    2    7    4        0.0000170008
    7    2    8    4        0.0000922299
    7    2    9    4        0.0000005808
    7    2    5    5       -0.0000867742
    7    2    6    5       -0.0000058928
    7    2    7    5       -0.0002845414
    7    2    8    5        0.0000055099
    7    2    9    5       -0.0000016554
    7    2    6    6       -0.0000000039
    7    2    7    6       -0.0008320520
    7    2    8    6        0.0000000006
    7    2    9    6       -0.0000000282
    7    2    7    7        0.0000000054
    7    2    8    7        0.0047520622
    7    2    9    7       -0.0000334739
    7    2    8    8       -0.0000000049
    7    2    9    8        0.0000000954
    7    2    9    9        0.0000000723
    8    2    8    2        0.0113799678
    8    2    9    2        0.0001385450
    8    2    3    3        0.0176141891
    8    2    4    3       -0.0000003090
    8    2    5    3        0.0000049980
    8    2    6    3       -0.0000441791
    8    2    7    3       -0.0000000002
    8    2    8    3        0.0000450195
    8    2    9    3        0.0112729136
    8    2    4    4        0.0137061464
    8    2    5    4        0.0000004382
    8    2    6    4        0.0000014942
    8    2    7    4       -0.0000473376
    8    2    8    4        0.0000056745
    8    2    9    4        0.0000031576
    8    2    5    5        0.0136988391
    8    2    6    5       -0.0000250148
    8    2    7    5       -0.0000028283
    8    2    8    5       -0.0000949339
    8    2    9    5       -0.0000056312
    8    2    6    6        0.0129880483
    8    2    7    6       -0.0000000038
    8    2    8    6       -0.0001619658
    8    2    9    6       -0.0000592966
    8    2    7    7        0.0126064061
    8    2    8    7        0.0000000108
    8    2    9    7       -0.0000000591
    8    2    8    8        0.0061745392
    8    2    9    8       -0.0001819401
    8    2    9    9        0.0141256406
    9    2    9    2        0.0074559989
    9    2    3    3        0.0000009739
    9    2    4    3       -0.0000126064
    9    2    5    3        0.0002043664
    9    2    6    3        0.0024785126
    9    2    7    3       -0.0000000557
    9    2    8    3        0.0035752725
    9    2    9    3       -0.0000002818
    9    2    4    4       -0.0000968751
    9    2    5    4        0.0000000072
    9    2    6    4       -0.0000008154
    9    2    7    4        0.0000001330
    9    2    8    4        0.0000018163
    9    2    9    4        0.0000079780
    9    2    5    5       -0.0000970213
    9    2    6    5        0.0000037325
    9    2    7    5       -0.0000010364
    9    2    8    5       -0.0000046078
    9    2    9    5       -0.0001278539
    9    2    6    6       -0.0000968781
    9    2    7    6       -0.0000000003
    9    2    8    6        0.0000552256
    9    2    9    6       -0.0021625592
    9    2    7    7       -0.0001108867
    9    2    8    7        0.0000000019
    9    2    9    7        0.0000000736
    9    2    8    8       -0.0002406136
    9    2    9    8       -0.0042478793
    9    2    9    9        0.0000005387
    3    3    3    3        0.1494117570
    3    3    4    3        0.0000000026
    3    3    5    3        0.0000000308
    3    3    6    3        0.0000000031
    3    3    7    3       -0.0000000039
    3    3    8    3        0.0000014987
    3    3    9    3        0.0268378836
    3    3    4    4        0.1366477871
    3    3    5    4       -0.0000001334
    3    3    6    4       -0.0000043354
    3    3    7    4        0.0001393769
    3    3    8    4        0.0000017891
    3    3    9    4        0.0000051318
    3    3    5    5        0.1366500107
    3    3    6    5        0.0000725663
    3    3    7    5        0.0000083255
    3    3    8    5       -0.0000298898
    3    3    9    5       -0.0000048169
    3    3    6    6        0.1286756405
    3    3    7    6       -0.0000000064
    3    3    8    6        0.0023475972
    3    3    9    6       -0.0000018105
    3    3    7    7        0.1277479958
    3    3    8    7        0.0000000154
    3    3    9    7       -0.0000000225
    3    3    8    8        0.1230385543
    3    3    9    8        0.0000010505
    3    3    9    9        0.1466976026
    4    3    4    3        0.0125542931
    4    3    5    3       -0.0000000550
    4    3    6    3       -0.0000033289
    4    3    7    3        0.0001658088
    4    3    8    3       -0.0000053055
    4    3    9    3        0.0000004459
    4    3    4    4       -0.0000001504
    4    3    5    4        0.0000011961
    4    3    6    4        0.0001450039
    4    3    7    4        0.0000035463
    4    3    8    4       -0.0000813718
    4    3    9    4       -0.0021299131
    4    3    5    5        0.0000002334
    4    3    6    5       -0.0000000012
    4    3    7    5       -0.0000295798
    4    3    8    5       -0.0000000006
    4    3    9    5        0.0000001102
    4    3    6    6        0.0000000683
    4    3    7    6        0.0000023759
    4    3    8    6       -0.0000000970
    4    3    9    6        0.0000059106
    4    3    7    7        0.0000002384
    4    3    8    7       -0.0000031744
    4    3    9    7       -0.0001571550
    4    3    8    8        0.0000005566
    4    3    9    8        0.0000103375
    4    3    9    9        0.0000033293
    5    3    5    3        0.0125552073
    5    3    6    3        0.0000557424
    5    3    7    3        0.0000099035
    5    3    8    3        0.0000888052
    5    3    9    3       -0.0000004525
    5    3    4    4       -0.0000002772
    5    3    5    4        0.0000001557
    5    3    6    4       -0.0000000012
    5    3    7    4       -0.0000295674
    5    3    8    4       -0.0000000006
    5    3    9    4        0.0000001137
    5    3    5    5       -0.0000018633
    5    3    6    5        0.0001450097
    5    3    7    5       -0.0000035457
    5    3    8    5       -0.0000814089
    5    3    9    5       -0.0021314872
    5    3    6    6       -0.0000012579
    5    3    7    6        0.0000001356
    5    3    8    6        0.0000016134
    5    3    9    6       -0.0001001003
    5    3    7    7       -0.0000042947
    5    3    8    7       -0.0000001889
    5    3    9    7       -0.0000093200
    5    3    8    8       -0.0000094345
    5    3    9    8       -0.0001733219
    5    3    9    9       -0.0000030798
    6    3    6    3        0.0076304590
    6    3    7    3       -0.0000000066
    6    3    8    3        0.0049363703
    6    3    9    3       -0.0000007748
    6    3    4    4        0.0001716341
    6    3    5    4        0.0000000003
    6    3    6    4       -0.0000000262
    6    3    7    4        0.0000000059
    6    3    8    4        0.0000000263
    6    3    9    4        0.0000022044
    6    3    5    5        0.0001716209
    6    3    6    5        0.0000004550
    6    3    7    5       -0.0000000060
    6    3    8    5       -0.0000005147
    6    3    9    5       -0.0000411514
    6    3    6    6        0.0004067041
    6    3    7    6        0.0000000102
    6    3    8    6        0.0000599142
    6    3    9    6        0.0039233587
    6    3    7    7        0.0001609484
    6    3    8    7        0.0000000038
    6    3    9    7       -0.0000000467
    6    3    8    8        0.0002003101
    6    3    9    8        0.0051269910
    6    3    9    9       -0.0000020518
    7    3    7    3        0.0071938683
    7    3    8    3       -0.0000000066
    7    3    9    3       -0.0000000149
    7    3    4    4        0.0000004124
    7    3    5    4       -0.0000034865
    7    3    6    4        0.0000027192
    7    3    7    4        0.0000000617
    7    3    8    4       -0.0000018862
    7    3    9    4       -0.0000685344
    7    3    5    5       -0.0000004231
    7    3    6    5        0.0000001567
    7    3    7    5       -0.0000011843
    7    3    8    5       -0.0000001123
    7    3    9    5       -0.0000040804
    7    3    6    6        0.0000000032
    7    3    7    6        0.0000741701
    7    3    8    6       -0.0000000003
    7    3    9    6       -0.0000000175
    7    3    7    7       -0.0000000230
    7    3    8    7       -0.0000365903
    7    3    9    7       -0.0028042824
    7    3    8    8       -0.0000000092
    7    3    9    8       -0.0000000325
    7    3    9    9       -0.0000000001
    8    3    8    3        0.0072587196
    8    3    9    3        0.0000008214
    8    3    4    4        0.0000551670
    8    3    5    4        0.0000000009
    8    3    6    4       -0.0000001062
    8    3    7    4       -0.0000004728
    8    3    8    4        0.0000001164
    8    3    9    4        0.0000038605
    8    3    5    5        0.0000551311
    8    3    6    5        0.0000017326
    8    3    7    5       -0.0000000283
    8    3    8    5       -0.0000020020
    8    3    9    5       -0.0000679665
    8    3    6    6        0.0001993970
    8    3    7    6        0.0000000020
    8    3    8    6        0.0000639252
    8    3    9    6        0.0037503369
    8    3    7    7        0.0000470467
    8    3    8    7        0.0000000009
    8    3    9    7       -0.0000000470
    8    3    8    8       -0.0000054963
    8    3    9    8        0.0024402025
    8    3    9    9        0.0000002514
    9    3    9    3        0.0271698002
    9    3    4    4        0.0149479847
    9    3    5    4        0.0000002983
    9    3    6    4        0.0000065696
    9    3    7    4       -0.0001528854
    9    3    8    4       -0.0000010185
    9    3    9    4        0.0000044049
    9    3    5    5        0.0149430160
    9    3    6    5       -0.0001090343
    9    3    7    5       -0.0000089698
    9    3    8    5        0.0000146645
    9    3    9    5       -0.0000041119
    9    3    6    6        0.0126275164
    9    3    7    6        0.0000000074
    9    3    8    6        0.0036157444
    9    3    9    6       -0.0000018152
    9    3    7    7        0.0084486181
    9    3    8    7       -0.0000000338
    9    3    9    7       -0.0000001049
    9    3    8    8        0.0103745230
    9    3    9    8        0.0000007962
    9    3    9    9        0.0286172807
    4    4    4    4        0.1455771405
    4    4    5    4        0.0014293198
    4    4    6    4        0.0000115159
    4    4    7    4        0.0002540524
    4    4    8    4        0.0000062577
    4    4    9    4        0.0000040792
    4    4    5    5        0.1193684844
    4    4    6    5       -0.0000848630
    4    4    7    5        0.0000261561
    4    4    8    5       -0.0001383133
    4    4    9    5       -0.0000043633
    4    4    6    6        0.1251546797
    4    4    7    6        0.0000553892
    4    4    8    6       -0.0006911388
    4    4    9    6        0.0001434903
    4    4    7    7        0.1242682683
    4    4    8    7        0.0001363707
    4    4    9    7        0.0000001879
    4    4    8    8        0.1192019368
    4    4    9    8        0.0002398440
    4    4    9    9        0.1316248836
    5    4    5    4        0.0013578749
    5    4    6    4       -0.0000525427
    5    4    7    4        0.0000248518
    5    4    8    4        0.0000175374
    5    4    9    4       -0.0000007964
    5    4    5    5       -0.0014293128
    5    4    6    5       -0.0000200585
    5    4    7    5       -0.0000900093
    5    4    8    5       -0.0000131675
    5    4    9    5       -0.0000000021
    5    4    6    6       -0.0000005092
    5    4    7    6       -0.0004618497
    5    4    8    6       -0.0000003189
    5    4    9    6       -0.0000000228
    5    4    7    7       -0.0000000023
    5    4    8    7       -0.0011369194
    5    4    9    7       -0.0000020662
    5    4    8    8       -0.0000008405
    5    4    9    8        0.0000000402
    5    4    9    9       -0.0000006440
    6    4    6    4        0.0079948507
    6    4    7    4        0.0001015758
    6    4    8    4       -0.0018912223
    6    4    9    4       -0.0000319297
    6    4    5    5       -0.0000181272
    6    4    6    5       -0.0000001910
    6    4    7    5       -0.0008458178
    6    4    8    5       -0.0000001278
    6    4    9    5        0.0000000018
    6    4    6    6       -0.0000135426
    6    4    7    6        0.0001156349
    6    4    8    6       -0.0000011484
    6    4    9    6        0.0000002865
    6    4    7    7       -0.0000078543
    6    4    8    7       -0.0000555232
    6    4    9    7       -0.0000031595
    6    4    8    8       -0.0000076037
    6    4    9    8       -0.0000005672
    6    4    9    9       -0.0000109197
    7    4    7    4        0.0071399975
    7    4    8    4        0.0003910139
    7    4    9    4        0.0000003137
    7    4    5    5       -0.0000682175
    7    4    6    5       -0.0008480399
    7    4    7    5        0.0000001153
    7    4    8    5       -0.0032613820
    7    4    9    5       -0.0000028725
    7    4    6    6        0.0001957362
    7    4    7    6       -0.0000053668
    7    4    8    6       -0.0000550784
    7    4    9    6       -0.0000004882
    7    4    7    7        0.0004341841
    7    4    8    7        0.0000023687
    7    4    9    7        0.0000008678
    7    4    8    8        0.0002236593
    7    4    9    8        0.0000021068
    7    4    9    9        0.0001896897
    8    4    8    4        0.0069254717
    8    4    9    4        0.0000552685
    8    4    5    5       -0.0000038537
    8    4    6    5       -0.0000001278
    8    4    7    5       -0.0032592276
    8    4    8    5       -0.0000001978
    8    4    9    5       -0.0000000040
    8    4    6    6        0.0000044424
    8    4    7    6       -0.0000761868
    8    4    8    6       -0.0000029323
    8    4    9    6       -0.0000005873
    8    4    7    7        0.0000095047
    8    4    8    7        0.0000814757
    8    4    9    7        0.0000028133
    8    4    8    8       -0.0000047163
    8    4    9    8        0.0000003781
    8    4    9    9       -0.0000008419
    9    4    9    4        0.0045749402
    9    4    5    5        0.0000037490
    9    4    6    5       -0.0000000111
    9    4    7    5       -0.0000028879
    9    4    8    5        0.0000000125
    9    4    9    5       -0.0000001392
    9    4    6    6        0.0000027790
    9    4    7    6       -0.0000011490
    9    4    8    6       -0.0000004297
    9    4    9    6       -0.0000052189
    9    4    7    7        0.0000029530
    9    4    8    7        0.0000022143
    9    4    9    7        0.0000714339
    9    4    8    8        0.0000019961
    9    4    9    8       -0.0000087733
    9    4    9    9        0.0000040942
    5    5    5    5        0.1455770239
    5    5    6    5        0.0001955038
    5    5    7    5       -0.0000150559
    5    5    8    5        0.0000981473
    5    5    9    5       -0.0000018255
    5    5    6    6        0.1251631699
    5    5    7    6       -0.0000553999
    5    5    8    6       -0.0006858227
    5    5    9    6        0.0001435416
    5    5    7    7        0.1242682439
    5    5    8    7       -0.0001363343
    5    5    9    7       -0.0000002227
    5    5    8    8        0.1192159537
    5    5    9    8        0.0002400543
    5    5    9    9        0.1316358816
    6    5    6    5        0.0079980354
    6    5    7    5       -0.0001015740
    6    5    8    5       -0.0018890965
    6    5    9    5       -0.0000319233
    6    5    6    6        0.0002266406
    6    5    7    6        0.0000069125
    6    5    8    6        0.0000192132
    6    5    9    6       -0.0000011408
    6    5    7    7        0.0001314195
    6    5    8    7       -0.0000033174
    6    5    9    7        0.0000003800
    6    5    8    8        0.0001272506
    6    5    9    8       -0.0000023238
    6    5    9    9        0.0001799794
    7    5    7    5        0.0071380364
    7    5    8    5       -0.0003910098
    7    5    9    5       -0.0000003155
    7    5    6    6        0.0000116964
    7    5    7    6        0.0000897945
    7    5    8    6       -0.0000032908
    7    5    9    6        0.0000005428
    7    5    7    7        0.0000259421
    7    5    8    7       -0.0000396647
    7    5    9    7        0.0000002084
    7    5    8    8        0.0000133628
    7    5    9    8       -0.0000010995
    7    5    9    9        0.0000113788
    8    5    8    5        0.0069287687
    8    5    9    5        0.0000553534
    8    5    6    6       -0.0000743392
    8    5    7    6       -0.0000045526
    8    5    8    6        0.0000490696
    8    5    9    6        0.0000016568
    8    5    7    7       -0.0001590704
    8    5    8    7        0.0000048689
    8    5    9    7       -0.0000006471
    8    5    8    8        0.0000789613
    8    5    9    8        0.0000032399
    8    5    9    9        0.0000110918
    9    5    9    5        0.0045775783
    9    5    6    6       -0.0000020407
    9    5    7    6        0.0000001762
    9    5    8    6       -0.0000002375
    9    5    9    6        0.0000808344
    9    5    7    7       -0.0000011759
    9    5    8    7       -0.0000005777
    9    5    9    7        0.0000043264
    9    5    8    8        0.0000036696
    9    5    9    8        0.0001371011
    9    5    9    9       -0.0000038406
    6    6    6    6        0.1286891346
    6    6    7    6       -0.0000000009
    6    6    8    6        0.0030367253
    6    6    9    6        0.0003334312
    6    6    7    7        0.1186760528
    6    6    8    7        0.0000000186
    6    6    9    7        0.0000000423
    6    6    8    8        0.1137314847
    6    6    9    8        0.0004479647
    6    6    9    9        0.1255157708
    7    6    7    6        0.0045451804
    7    6    8    6        0.0000000062
    7    6    9    6        0.0000000207
    7    6    7    7       -0.0000000112
    7    6    8    7       -0.0030815057
    7    6    9    7       -0.0000311840
    7    6    8    8       -0.0000000049
    7    6    9    8       -0.0000000380
    7    6    9    9       -0.0000000236
    8    6    8    6        0.0050722280
    8    6    9    6        0.0000476633
    8    6    7    7       -0.0031806575
    8    6    8    7       -0.0000000029
    8    6    9    7        0.0000000024
    8    6    8    8       -0.0000359324
    8    6    9    8        0.0000094672
    8    6    9    9        0.0033780831
    9    6    9    6        0.0077341849
    9    6    7    7        0.0001285911
    9    6    8    7        0.0000000102
    9    6    9    7       -0.0000000596
    9    6    8    8        0.0002174088
    9    6    9    8        0.0079662350
    9    6    9    9       -0.0000033257
    7    7    7    7        0.1278165939
    7    7    8    7        0.0000000346
    7    7    9    7        0.0000001004
    7    7    8    8        0.1135876123
    7    7    9    8        0.0002263069
    7    7    9    9        0.1204982544
    8    7    8    7        0.0050047360
    8    7    9    7        0.0000207764
    8    7    8    8        0.0000000027
    8    7    9    8        0.0000000131
    8    7    9    9        0.0000000248
    9    7    9    7        0.0019150010
    9    7    8    8        0.0000000605
    9    7    9    8       -0.0000000752
    9    7    9    9       -0.0000000234
    8    8    8    8        0.1175467736
    8    8    9    8        0.0004526552
    8    8    9    9        0.1225311831
    9    8    9    8        0.0122999931
    9    8    9    9       -0.0000004740
    9    9    9    9        0.1523408508
 end_two_electron_integrals


 output epsi filename:./pspw_hf_H2.emovecs

 Total PSPW energy     :  -0.1119421640E+01


=== Spin Contamination ===

 <Sexact^2> =    0.0000000000000000     
 <S^2>      =    0.0000000000000000     



== Center of Charge ==

spin up     (    0.0000,    0.0000,    0.0000 )
spin down   (    0.0000,    0.0000,    0.0000 )
     total  (    0.0000,    0.0000,    0.0000 )
ionic       (    0.0000,    0.0000,    0.0000 )


== Molecular Dipole wrt Center of Mass ==

mu   =  (   -0.0000,   -0.0000,   -0.0000 ) au
|mu| =     0.0000 au,       0.0000 Debye

 output psi filename:./pspw_hf_H2.movecs

 Writing Crystallographic Information File:./H2.cif
   - cell not shifted (nwpw:cif_shift_cell .false.)


== Timing ==

cputime in seconds
  prologue    :   0.889252E+01
  main loop   :   0.217567E+03
  epilogue    :   0.861311E-02
  total       :   0.226468E+03
  cputime/step:   0.231454E+01       (      94 evalulations,      42 linesearches)


Time spent doing                        total          step       percent
  total time                 :   0.226468E+03  0.240924E+01       100.0 %
  i/o time                   :   0.980031E-01  0.104259E-02         0.0 %
  FFTs                       :   0.193191E+03  0.205522E+01        85.3 %
  dot products               :   0.253780E+00  0.269979E-02         0.1 %
  geodesic                   :   0.699676E-01  0.744336E-03         0.0 %
  ffm_dgemm                  :   0.710340E-02  0.755681E-04         0.0 %
  fmf_dgemm                  :   0.344121E-01  0.366086E-03         0.0 %
  mmm_dgemm                  :   0.133525E-02  0.142048E-04         0.0 %
  m_diagonalize              :   0.811743E-03  0.863556E-05         0.0 %
  local pseudopotentials     :   0.123375E-01  0.131250E-03         0.0 %
  non-local pseudopotentials :   0.604157E+00  0.642721E-02         0.3 %
  structure factors          :   0.264403E+00  0.281280E-02         0.1 %
  phase factors              :   0.690600E-05  0.734681E-07         0.0 %
  masking and packing        :   0.297080E+01  0.316043E-01         1.3 %
  queue fft                  :   0.137464E+01  0.146239E-01         0.6 %
  queue fft (serial)         :   0.736915E+00  0.783952E-02         0.3 %
  queue fft (message passing):   0.584896E+00  0.622230E-02         0.3 %
  HFX potential              :   0.155648E+03  0.165583E+01        68.7 %
  non-local psp FFM          :   0.298500E+00  0.317553E-02         0.1 %
  non-local psp FMF          :   0.793273E-01  0.843908E-03         0.0 %
  non-local psp FFM A        :   0.803371E-01  0.854650E-03         0.0 %
  non-local psp FFM B        :   0.582535E-01  0.619718E-03         0.0 %

== HFX Counters ==
  HFX Evalulations         =    94
  Lin ACE HFX Evalulations =     0


     >>>  JOB COMPLETED     AT Thu May  1 13:01:15 2025  <<<

 Task  times  cpu:      226.4s     wall:      226.5s
 Summary of allocated global arrays
-----------------------------------
  No active global arrays


MA_summarize_allocated_blocks: starting scan ...
MA_summarize_allocated_blocks: scan completed: 0 heap blocks, 0 stack blocks
MA usage statistics:

	allocation statistics:
					      heap	     stack
					      ----	     -----
	current number of blocks	         0	         0
	maximum number of blocks	       313	        17
	current total bytes		         0	         0
	maximum total bytes		 365984128	  89294136
	maximum total K-bytes		    365985	     89295
	maximum total M-bytes		       366	        90


                                NWChem Input Module
                                -------------------




                                     CITATION
                                     --------
                Please cite the following reference when publishing
                           results obtained with NWChem:

          E. Apra, E. J. Bylaska, W. A. de Jong, N. Govind, K. Kowalski,
       T. P. Straatsma, M. Valiev, H. J. J. van Dam, Y. Alexeev, J. Anchell,
       V. Anisimov, F. W. Aquino, R. Atta-Fynn, J. Autschbach, N. P. Bauman,
     J. C. Becca, D. E. Bernholdt, K. Bhaskaran-Nair, S. Bogatko, P. Borowski,
         J. Boschen, J. Brabec, A. Bruner, E. Cauet, Y. Chen, G. N. Chuev,
      C. J. Cramer, J. Daily, M. J. O. Deegan, T. H. Dunning Jr., M. Dupuis,
   K. G. Dyall, G. I. Fann, S. A. Fischer, A. Fonari, H. Fruchtl, L. Gagliardi,
      J. Garza, N. Gawande, S. Ghosh, K. Glaesemann, A. W. Gotz, J. Hammond,
       V. Helms, E. D. Hermes, K. Hirao, S. Hirata, M. Jacquelin, L. Jensen,
   B. G. Johnson, H. Jonsson, R. A. Kendall, M. Klemm, R. Kobayashi, V. Konkov,
      S. Krishnamoorthy, M. Krishnan, Z. Lin, R. D. Lins, R. J. Littlefield,
      A. J. Logsdail, K. Lopata, W. Ma, A. V. Marenich, J. Martin del Campo,
   D. Mejia-Rodriguez, J. E. Moore, J. M. Mullin, T. Nakajima, D. R. Nascimento,
    J. A. Nichols, P. J. Nichols, J. Nieplocha, A. Otero-de-la-Roza, B. Palmer,
    A. Panyala, T. Pirojsirikul, B. Peng, R. Peverati, J. Pittner, L. Pollack,
   R. M. Richard, P. Sadayappan, G. C. Schatz, W. A. Shelton, D. W. Silverstein,
   D. M. A. Smith, T. A. Soares, D. Song, M. Swart, H. L. Taylor, G. S. Thomas,
            V. Tipparaju, D. G. Truhlar, K. Tsemekhman, T. Van Voorhis,
      A. Vazquez-Mayagoitia, P. Verma, O. Villa, A. Vishnu, K. D. Vogiatzis,
        D. Wang, J. H. Weare, M. J. Williamson, T. L. Windus, K. Wolinski,
        A. T. Wong, Q. Wu, C. Yang, Q. Yu, M. Zacharias, Z. Zhang, Y. Zhao,
                                and R. J. Harrison
                        "NWChem: Past, present, and future
                         J. Chem. Phys. 152, 184102 (2020)
                               doi:10.1063/5.0004997

                                      AUTHORS
                                      -------
  E. Apra, E. J. Bylaska, N. Govind, K. Kowalski, M. Valiev, D. Mejia-Rodriguez,
       A. Kunitsa, N. P. Bauman, A. Panyala, W. A. de Jong, T. P. Straatsma,
   H. J. J. van Dam, D. Wang, T. L. Windus, J. Hammond, J. Autschbach, A. Woods,
    K. Bhaskaran-Nair, J. Brabec, K. Lopata, S. A. Fischer, S. Krishnamoorthy,
     M. Jacquelin, W. Ma, M. Klemm, O. Villa, Y. Chen, V. Anisimov, F. Aquino,
     S. Hirata, M. T. Hackler, E. Hermes, L. Jensen, J. E. Moore, J. C. Becca,
      V. Konjkov, T. Risthaus, M. Malagoli, A. Marenich, A. Otero-de-la-Roza,
        J. Mullin, P. Nichols, R. Peverati, J. Pittner, Y. Zhao, P.-D. Fan,
        A. Fonari, M. J. Williamson, R. J. Harrison, J. R. Rehr, M. Dupuis,
     D. Silverstein, D. M. A. Smith, J. Nieplocha, V. Tipparaju, M. Krishnan,
     B. E. Van Kuiken, A. Vazquez-Mayagoitia, M. Swart, Q. Wu, T. Van Voorhis,
     A. A. Auer, M. Nooijen, L. D. Crosby, E. Brown, G. Cisneros, G. I. Fann,
   H. Fruchtl, J. Garza, K. Hirao, R. A. Kendall, J. A. Nichols, K. Tsemekhman,
    K. Wolinski, J. Anchell, D. E. Bernholdt, P. Borowski, T. Clark, D. Clerc,
   H. Dachsel, M. J. O. Deegan, K. Dyall, D. Elwood, E. Glendening, M. Gutowski,
   A. C. Hess, J. Jaffe, B. G. Johnson, J. Ju, R. Kobayashi, R. Kutteh, Z. Lin,
   R. Littlefield, X. Long, B. Meng, T. Nakajima, S. Niu, L. Pollack, M. Rosing,
   K. Glaesemann, G. Sandrone, M. Stave, H. Taylor, G. Thomas, J. H. van Lenthe,
                               A. T. Wong, Z. Zhang.

 Total times  cpu:      226.4s     wall:      226.5s
