 argument  1 = H2-4.5.nw



============================== echo of input deck ==============================
title "swnc: e theory=pspw4 xc=hf formula=H2 charge=0 mult=1"
#machinejob:expert

echo

start pspw_hf_H2

memory heap 1200 mb stack 1200 mb global 10 mb

charge 0

geometry
H    0.00000    0.00000   -2.25000
H    0.00000    0.00000    2.25000
end

nwpw
  ### pseudopotential block begin ###
  ### pseudopotential block end   ###
  simulation_cell
     SC 20.0000
     boundary_conditions aperiodic
  end

  cutoff 50.0
  mult 1
  xc hf
  lmbfgs
  tolerances 1.0e-9 1.0e-9

  virtual 8
end
set nwpw:cif_filename H2

#set nwpw:CI_maxit_orb 15
#set nwpw:CI_maxit_linesearch 15
set pspw:HFX_screening_radius 14.0


set nwpw:2qintegrals .true.
#set nwpw:3x3_virtual .true.

task pspw energy

================================================================================


                                         
                                         


             Northwest Computational Chemistry Package (NWChem) 7.2.2
             --------------------------------------------------------


                    Environmental Molecular Sciences Laboratory
                       Pacific Northwest National Laboratory
                                Richland, WA 99352

                              Copyright (c) 1994-2022
                       Pacific Northwest National Laboratory
                            Battelle Memorial Institute

             NWChem is an open-source computational chemistry package
                        distributed under the terms of the
                      Educational Community License (ECL) 2.0
             A copy of the license is included with this distribution
                              in the LICENSE.TXT file

                                  ACKNOWLEDGMENT
                                  --------------

            This software and its documentation were developed at the
            EMSL at Pacific Northwest National Laboratory, a multiprogram
            national laboratory, operated for the U.S. Department of Energy
            by Battelle under Contract Number DE-AC05-76RL01830. Support
            for this work was provided by the Department of Energy Office
            of Biological and Environmental Research, Office of Basic
            Energy Sciences, and the Office of Advanced Scientific Computing.


           Job information
           ---------------

    hostname        = LAPTOP-JJQSTSEL
    program         = nwchem
    date            = Thu May  1 14:13:11 2025

    compiled        = Fri_Jun_07_07:50:04_2024
    source          = /home/conda/feedstock_root/build_artifacts/nwchem_1717738148552/work
    nwchem branch   = 7.2.2
    nwchem revision = 64ba0f0
    ga revision     = 5.8.0
    use scalapack   = T
    input           = H2-4.5.nw
    prefix          = pspw_hf_H2.
    data base       = ./pspw_hf_H2.db
    status          = startup
    nproc           =        1
    time left       =     -1s



           Memory information
           ------------------

    heap     =  157286400 doubles =   1200.0 Mbytes
    stack    =  157286397 doubles =   1200.0 Mbytes
    global   =    1310720 doubles =     10.0 Mbytes (distinct from heap & stack)
    total    =  315883517 doubles =   2410.0 Mbytes
    verify   = yes
    hardfail = no 


           Directory information
           ---------------------

  0 permanent = .
  0 scratch   = .




                                NWChem Input Module
                                -------------------


               swnc: e theory=pspw4 xc=hf formula=H2 charge=0 mult=1
               -----------------------------------------------------

 Scaling coordinates for geometry "geometry" by  1.889725989
 (inverse scale =  0.529177249)

 ORDER OF PRIMARY AXIS IS BEING SET TO 4
 D4H symmetry detected

          ------
          auto-z
          ------
     1 autoz failed with cvr_scaling = 1.2 changing to 1.3
     2 autoz failed with cvr_scaling = 1.3 changing to 1.4
     3 autoz failed with cvr_scaling = 1.4 changing to 1.5
     4 autoz failed with cvr_scaling = 1.5 changing to 1.6
     5 autoz failed with cvr_scaling = 1.6 changing to 1.7

 AUTOZ failed to generate good internal coordinates.
 Cartesian coordinates will be used in optimizations.



                             Geometry "geometry" -> ""
                             -------------------------

 Output coordinates in angstroms (scale by  1.889725989 to convert to a.u.)

  No.       Tag          Charge          X              Y              Z
 ---- ---------------- ---------- -------------- -------------- --------------
    1 H                    1.0000     0.00000000     0.00000000    -2.25000000
    2 H                    1.0000     0.00000000     0.00000000     2.25000000

      Atomic Mass 
      ----------- 

      H                  1.007825


 Effective nuclear repulsion energy (a.u.)       0.1175949442

            Nuclear Dipole moment (a.u.) 
            ----------------------------
        X                 Y               Z
 ---------------- ---------------- ----------------
     0.0000000000     0.0000000000     0.0000000000

      Symmetry information
      --------------------

 Group name             D4h       
 Group number             28
 Group order              16
 No. of unique centers     1

      Symmetry unique atoms

     1


            XYZ format geometry
            -------------------
     2
 geometry
 H                     0.00000000     0.00000000    -2.25000000
 H                     0.00000000     0.00000000     2.25000000

          ****************************************************
          *                                                  *
          *               NWPW PSPW Calculation              *
          *                                                  *
          * [ (Grassmann/Stiefel manifold implementation)  ] *
          *                                                  *
          *      [ NorthWest Chemistry implementation ]      *
          *                                                  *
          *            version #5.10   06/12/02              *
          *                                                  *
          *    This code was developed by Eric J. Bylaska,   *
          *    and was based upon algorithms and code        *
          *    developed by the group of Prof. John H. Weare *
          *                                                  *
          ****************************************************
     >>>  JOB STARTED       AT Thu May  1 14:13:11 2025  <<<
          ================ input data ========================

 input psi filename:./pspw_hf_H2.movecs

 number of processors used:         1
 processor grid           :   1 x   1
 parallel mapping         :2d-hilbert
 parallel mapping         :  balanced
 number of threads        :         1
 parallel io              :       off

 options:
      boundary conditions  = aperiodic   (version4)
      electron spin        = restricted
      exchange-correlation = Hartree-Fock
      - HFX relaxed
      - HFX restricted orbitals :    1
      - HFX free-space coulomb solver


 elements involved in the cluster:
      1: H   valence charge:  1.0000  lmax=  1
             comment    : Parameterized (Chem.Phys.Lett., vol 322, page 447) Hamman psp
             pseudpotential type            :   0
             highest angular component      :   1
             local potential used           :   1
             number of non-local projections:   1
             aperiodic cutoff radius        :  1.000
             cutoff =   0.800   0.800


 total charge:   0.000

 atomic composition:
     H   :    2

 number of electrons: spin up=     1 (   1 per task)  down=     1 (   1 per task) (Fourier space)
 number of orbitals : spin up=     1 (   1 per task)  down=     1 (   1 per task) (Fourier space)

 supercell:
      cell_name:  cell_default                                      
      lattice:    a1=<  20.000   0.000   0.000 >
                  a2=<   0.000  20.000   0.000 >
                  a3=<   0.000   0.000  20.000 >
      reciprocal: b1=<   0.314   0.000   0.000 >
                  b2=<   0.000   0.314   0.000 >
                  b3=<   0.000   0.000   0.314 >
      lattice:    a=      20.000 b=     20.000 c=      20.000
                  alpha=  90.000 beta=  90.000 gamma=  90.000
                  omega=      8000.0

      density cutoff=100.000  fft= 96x 96x 96(   191162 waves   191162 per task)
      wavefnc cutoff= 50.000  fft= 96x 96x 96(    67522 waves    67522 per task)

 technical parameters:
      time step=      5.80     fictitious mass=  400000.0
      tolerance=0.100E-08 (energy)   0.100E-08 (density)
      maximum iterations =      1000 (   10 inner    100 outer )





== Energy Calculation ==


          ============ Grassmann lmbfgs iteration ============
     >>>  ITERATION STARTED AT Thu May  1 14:13:21 2025  <<<
    iter.           Energy         DeltaE       DeltaRho 
    ------------------------------------------------------
      10   -0.7755627555E+00   -0.14689E-02    0.71989E-02
     -  10 steepest descent iterations performed
      20   -0.7801790595E+00   -0.12802E-03    0.54639E-04
      30   -0.7804460162E+00   -0.68594E-05    0.48686E-05
      40   -0.7804676179E+00   -0.43347E-06    0.11201E-06
      50   -0.7804691179E+00   -0.24140E-07    0.85885E-08
      60   -0.7804692002E+00   -0.21691E-08    0.12057E-09
      70   -0.7804692043E+00   -0.85167E-09    0.57534E-11
  *** tolerance ok. iteration terminated
     >>>  ITERATION ENDED   AT Thu May  1 14:15:58 2025  <<<


==  Summary Of Results  ==

 number of electrons: spin up=    1.00000  down=    1.00000 (real space)

 total     energy    :  -0.7804692043E+00 (   -0.39023E+00/ion)
 total orbital energy:  -0.5876429165E+00 (   -0.58764E+00/electron)
 hartree   energy    :   0.6208424640E+00 (    0.62084E+00/electron)
 exc-corr  energy    :   0.0000000000E+00 (    0.00000E+00/electron)
 HF exchange energy  :  -0.3104212320E+00 (   -0.31042E+00/electron)
 ion-ion   energy    :   0.1175949442E+00 (    0.58797E-01/ion)

 kinetic (planewave) :   0.6544696980E+00 (    0.65447E+00/electron)
 V_local (planewave) :  -0.1711106907E+01 (   -0.17111E+01/electron)
 V_nl    (planewave) :  -0.1518481717E+00 (   -0.15185E+00/electron)
 V_Coul  (planewave) :   0.1241684928E+01 (    0.12417E+01/electron)
 V_xc.   (planewave) :   0.0000000000E+00 (    0.00000E+00/electron)
 K.S. HFX energy     :  -0.6208424640E+00 (   -0.62084E+00/electron)
 Virial Coefficient  :  -0.9492725980E+00

 orbital energies:
    -0.2938215E+00 (  -7.995eV)


== Virtual Orbital Calculation ==


 input epsi filename:./pspw_hf_H2.emovecs
     orbital   1 current e=-0.168E+00 (error=0.944E-09) iterations  60(  43 preconditioned, Ep,Sp= 20.0  200.0)
     orbital   2 current e= 0.707E-02 (error=0.965E-09) iterations  91(  47 preconditioned, Ep,Sp= 20.0  200.0)
     orbital   3 current e= 0.474E-01 (error=0.965E-09) iterations  57(  14 preconditioned, Ep,Sp= 20.0  200.0)
     orbital   4 current e= 0.474E-01 (error=0.964E-09) iterations  57(  14 preconditioned, Ep,Sp= 20.0  200.0)
     orbital   5 current e= 0.473E-01 (error=0.896E-09) iterations 114(  38 preconditioned, Ep,Sp= 20.0  200.0)
     orbital   6 current e= 0.496E-01 (error=0.809E-09) iterations  34(   1 preconditioned, Ep,Sp= 20.0  200.0)
     orbital   7 current e= 0.571E-01 (error=0.878E-09) iterations  83(  40 preconditioned, Ep,Sp= 20.0  200.0)
     orbital   8 current e= 0.702E-01 (error=0.912E-09) iterations 109(  77 preconditioned, Ep,Sp= 20.0  200.0)

 virtual orbital energies:
     0.7021983E-01 (   1.911eV)
     0.5705220E-01 (   1.552eV)
     0.4956870E-01 (   1.349eV)
     0.4736858E-01 (   1.289eV)
     0.4736857E-01 (   1.289eV)
     0.4731313E-01 (   1.287eV)
     0.7070205E-02 (   0.192eV)
    -0.1684653E+00 (  -4.584eV)


 == Generating One-Electron and Two-Electron Integrals ==

 begin_one_electron_integrals
    1    1        -0.6042426902
    2    1         0.0000075702
    3    1         0.0210297001
    4    1        -0.0026517556
    5    1        -0.0000071496
    6    1        -0.0000000000
    7    1         0.0000000000
    8    1         0.0000017640
    9    1        -0.0263867132
    2    2        -0.6013270126
    3    2         0.0000444626
    4    2        -0.0000839452
    5    2        -0.0000002001
    6    2        -0.0000000000
    7    2        -0.0000000000
    8    2        -0.0221774053
    9    2        -0.0000543538
    3    3        -0.1888088454
    4    3        -0.0065555685
    5    3        -0.0000158205
    6    3        -0.0000000000
    7    3        -0.0000000000
    8    3         0.0000000689
    9    3         0.0404302030
    4    4        -0.1761740810
    5    4         0.0000122998
    6    4         0.0000000000
    7    4        -0.0000000000
    8    4        -0.0000130400
    9    4         0.0023940064
    5    5        -0.1811592386
    6    5         0.0000000000
    7    5        -0.0000000000
    8    5        -0.0000000397
    9    5         0.0000056969
    6    6        -0.1811592658
    7    6         0.0000116358
    8    6        -0.0000000000
    9    6         0.0000000000
    7    7        -0.1502073616
    8    7        -0.0000000000
    9    7         0.0000000000
    8    8        -0.1413767132
    9    8        -0.0000040682
    9    9        -0.1293433214
 end_one_electron_integrals

 begin_two_electron_integrals
    1    1    1    1        0.3104212320
    1    1    2    1       -0.0000075461
    1    1    3    1       -0.0210294348
    1    1    4    1        0.0026561334
    1    1    5    1        0.0000071599
    1    1    6    1        0.0000000000
    1    1    7    1       -0.0000000000
    1    1    8    1       -0.0000017992
    1    1    9    1        0.0263854602
    1    1    2    2        0.3143781621
    1    1    3    2       -0.0000216138
    1    1    4    2        0.0000355717
    1    1    5    2        0.0000000828
    1    1    6    2       -0.0000000000
    1    1    7    2        0.0000000000
    1    1    8    2        0.0198202313
    1    1    9    2        0.0000232386
    1    1    3    3        0.0991868829
    1    1    4    3        0.0032052560
    1    1    5    3        0.0000080774
    1    1    6    3        0.0000000000
    1    1    7    3        0.0000000000
    1    1    8    3       -0.0000008482
    1    1    9    3       -0.0218649527
    1    1    4    4        0.1128330126
    1    1    5    4       -0.0000060909
    1    1    6    4       -0.0000000000
    1    1    7    4        0.0000000000
    1    1    8    4        0.0000081045
    1    1    9    4       -0.0011432466
    1    1    5    5        0.1153070055
    1    1    6    5       -0.0000000000
    1    1    7    5        0.0000000000
    1    1    8    5        0.0000000227
    1    1    9    5       -0.0000025940
    1    1    6    6        0.1153070190
    1    1    7    6       -0.0000056937
    1    1    8    6        0.0000000000
    1    1    9    6       -0.0000000000
    1    1    7    7        0.0999592278
    1    1    8    7        0.0000000000
    1    1    9    7       -0.0000000000
    1    1    8    8        0.1002613999
    1    1    9    8        0.0000026024
    1    1    9    9        0.1019938149
    2    1    2    1        0.1958945714
    2    1    3    1        0.0000010990
    2    1    4    1       -0.0000127773
    2    1    5    1       -0.0000000344
    2    1    6    1       -0.0000000000
    2    1    7    1        0.0000000000
    2    1    8    1        0.0174658819
    2    1    9    1       -0.0000078915
    2    1    2    2       -0.0000131798
    2    1    3    2       -0.0198754685
    2    1    4    2       -0.0064368593
    2    1    5    2       -0.0000148329
    2    1    6    2       -0.0000000000
    2    1    7    2       -0.0000000000
    2    1    8    2       -0.0000071642
    2    1    9    2        0.0262082139
    2    1    3    3        0.0002453659
    2    1    4    3       -0.0003376391
    2    1    5    3       -0.0000008160
    2    1    6    3       -0.0000000000
    2    1    7    3       -0.0000000000
    2    1    8    3       -0.0191740647
    2    1    9    3       -0.0000548915
    2    1    4    4        0.0005490898
    2    1    5    4        0.0000007574
    2    1    6    4        0.0000000000
    2    1    7    4        0.0000000000
    2    1    8    4        0.0037152984
    2    1    9    4        0.0002089200
    2    1    5    5        0.0002384855
    2    1    6    5        0.0000000000
    2    1    7    5        0.0000000000
    2    1    8    5        0.0000092730
    2    1    9    5        0.0000005058
    2    1    6    6        0.0002384837
    2    1    7    6       -0.0000000152
    2    1    8    6        0.0000000000
    2    1    9    6        0.0000000000
    2    1    7    7        0.0002071521
    2    1    8    7       -0.0000000000
    2    1    9    7        0.0000000000
    2    1    8    8        0.0000026115
    2    1    9    8        0.0099282645
    2    1    9    9        0.0003051457
    3    1    3    1        0.0024947158
    3    1    4    1       -0.0001306276
    3    1    5    1        0.0000003692
    3    1    6    1        0.0000000000
    3    1    7    1        0.0000000000
    3    1    8    1       -0.0000016450
    3    1    9    1       -0.0032958041
    3    1    2    2       -0.0216261579
    3    1    3    2        0.0000042925
    3    1    4    2       -0.0000068857
    3    1    5    2       -0.0000000145
    3    1    6    2        0.0000000000
    3    1    7    2       -0.0000000000
    3    1    8    2       -0.0023762585
    3    1    9    2       -0.0000054889
    3    1    3    3       -0.0005697921
    3    1    4    3       -0.0000460197
    3    1    5    3        0.0000039318
    3    1    6    3        0.0000000000
    3    1    7    3       -0.0000000000
    3    1    8    3       -0.0000102716
    3    1    9    3        0.0008010736
    3    1    4    4       -0.0009281808
    3    1    5    4        0.0000006631
    3    1    6    4        0.0000000000
    3    1    7    4       -0.0000000000
    3    1    8    4        0.0000036464
    3    1    9    4        0.0000558467
    3    1    5    5       -0.0008996851
    3    1    6    5        0.0000000000
    3    1    7    5       -0.0000000000
    3    1    8    5       -0.0000000004
    3    1    9    5       -0.0000006722
    3    1    6    6       -0.0008996915
    3    1    7    6        0.0000021354
    3    1    8    6       -0.0000000000
    3    1    9    6       -0.0000000000
    3    1    7    7       -0.0002200527
    3    1    8    7       -0.0000000000
    3    1    9    7        0.0000000000
    3    1    8    8       -0.0005497857
    3    1    9    8        0.0000007889
    3    1    9    9       -0.0011063194
    4    1    4    1        0.0021788118
    4    1    5    1        0.0000005136
    4    1    6    1        0.0000000000
    4    1    7    1        0.0000000000
    4    1    8    1        0.0000036308
    4    1    9    1        0.0001042698
    4    1    2    2        0.0014993805
    4    1    3    2       -0.0000040244
    4    1    4    2        0.0000091177
    4    1    5    2        0.0000000174
    4    1    6    2        0.0000000000
    4    1    7    2        0.0000000000
    4    1    8    2        0.0001505649
    4    1    9    2        0.0000060386
    4    1    3    3        0.0009056560
    4    1    4    3        0.0019498759
    4    1    5    3       -0.0000024425
    4    1    6    3       -0.0000000000
    4    1    7    3        0.0000000000
    4    1    8    3        0.0000229157
    4    1    9    3       -0.0003080172
    4    1    4    4        0.0007261308
    4    1    5    4       -0.0000024101
    4    1    6    4       -0.0000000000
    4    1    7    4        0.0000000000
    4    1    8    4       -0.0000091479
    4    1    9    4       -0.0018778457
    4    1    5    5        0.0014175486
    4    1    6    5       -0.0000000000
    4    1    7    5        0.0000000000
    4    1    8    5       -0.0000000041
    4    1    9    5       -0.0000004633
    4    1    6    6        0.0014175555
    4    1    7    6       -0.0000029813
    4    1    8    6        0.0000000000
    4    1    9    6       -0.0000000000
    4    1    7    7        0.0012381010
    4    1    8    7       -0.0000000000
    4    1    9    7       -0.0000000000
    4    1    8    8        0.0010618508
    4    1    9    8       -0.0000036411
    4    1    9    9        0.0008127696
    5    1    5    1        0.0020861982
    5    1    6    1        0.0000000000
    5    1    7    1       -0.0000000000
    5    1    8    1        0.0000000082
    5    1    9    1        0.0000001459
    5    1    2    2        0.0000043864
    5    1    3    2       -0.0000000075
    5    1    4    2        0.0000000183
    5    1    5    2        0.0000013715
    5    1    6    2        0.0000000000
    5    1    7    2        0.0000000000
    5    1    8    2       -0.0000002243
    5    1    9    2        0.0000000144
    5    1    3    3        0.0000664350
    5    1    4    3        0.0000135784
    5    1    5    3        0.0035845558
    5    1    6    3        0.0000000000
    5    1    7    3       -0.0000000000
    5    1    8    3       -0.0000000145
    5    1    9    3        0.0000242578
    5    1    4    4        0.0000425597
    5    1    5    4        0.0006206241
    5    1    6    4       -0.0000000000
    5    1    7    4       -0.0000000000
    5    1    8    4       -0.0000000119
    5    1    9    4       -0.0000024693
    5    1    5    5        0.0000283123
    5    1    6    5        0.0000000000
    5    1    7    5       -0.0000000010
    5    1    8    5       -0.0000036629
    5    1    9    5       -0.0018495935
    5    1    6    6        0.0000248182
    5    1    7    6        0.0014978030
    5    1    8    6       -0.0000000000
    5    1    9    6        0.0000000000
    5    1    7    7        0.0000889129
    5    1    8    7        0.0000000000
    5    1    9    7        0.0000000000
    5    1    8    8        0.0000709979
    5    1    9    8       -0.0000000479
    5    1    9    9        0.0000766069
    6    1    6    1        0.0020861967
    6    1    7    1        0.0000002431
    6    1    8    1        0.0000000000
    6    1    9    1        0.0000000000
    6    1    2    2        0.0000000000
    6    1    3    2        0.0000000000
    6    1    4    2        0.0000000000
    6    1    5    2        0.0000000000
    6    1    6    2        0.0000013715
    6    1    7    2        0.0000000021
    6    1    8    2       -0.0000000000
    6    1    9    2       -0.0000000000
    6    1    3    3        0.0000000000
    6    1    4    3        0.0000000000
    6    1    5    3        0.0000000000
    6    1    6    3        0.0035845336
    6    1    7    3        0.0000612109
    6    1    8    3        0.0000000000
    6    1    9    3        0.0000000000
    6    1    4    4        0.0000000000
    6    1    5    4       -0.0000000000
    6    1    6    4        0.0006206320
    6    1    7    4        0.0000102496
    6    1    8    4        0.0000000000
    6    1    9    4       -0.0000000000
    6    1    5    5        0.0000000000
    6    1    6    5       -0.0000189484
    6    1    7    5        0.0014978259
    6    1    8    5       -0.0000000000
    6    1    9    5        0.0000000000
    6    1    6    6       -0.0000000000
    6    1    7    6        0.0000000010
    6    1    8    6       -0.0000036629
    6    1    9    6       -0.0018496059
    6    1    7    7        0.0000000000
    6    1    8    7       -0.0000000647
    6    1    9    7       -0.0000148423
    6    1    8    8        0.0000000000
    6    1    9    8       -0.0000000000
    6    1    9    9        0.0000000000
    7    1    7    1        0.0001423936
    7    1    8    1        0.0000000000
    7    1    9    1       -0.0000000000
    7    1    2    2       -0.0000000000
    7    1    3    2       -0.0000000000
    7    1    4    2        0.0000000000
    7    1    5    2        0.0000000000
    7    1    6    2        0.0000000020
    7    1    7    2        0.0000001576
    7    1    8    2       -0.0000000000
    7    1    9    2        0.0000000000
    7    1    3    3        0.0000000000
    7    1    4    3        0.0000000000
    7    1    5    3       -0.0000000000
    7    1    6    3        0.0000041506
    7    1    7    3        0.0007935509
    7    1    8    3        0.0000000000
    7    1    9    3        0.0000000000
    7    1    4    4       -0.0000000000
    7    1    5    4       -0.0000000000
    7    1    6    4        0.0000001223
    7    1    7    4        0.0001610592
    7    1    8    4       -0.0000000000
    7    1    9    4       -0.0000000000
    7    1    5    5       -0.0000000002
    7    1    6    5        0.0002637678
    7    1    7    5        0.0000023731
    7    1    8    5        0.0000000000
    7    1    9    5        0.0000000000
    7    1    6    6        0.0000000002
    7    1    7    6        0.0000000000
    7    1    8    6       -0.0000000105
    7    1    9    6       -0.0000007995
    7    1    7    7        0.0000000000
    7    1    8    7       -0.0000011697
    7    1    9    7       -0.0006060064
    7    1    8    8        0.0000000000
    7    1    9    8        0.0000000000
    7    1    9    9       -0.0000000000
    8    1    8    1        0.0020938859
    8    1    9    1        0.0000017518
    8    1    2    2       -0.0000025532
    8    1    3    2       -0.0022742422
    8    1    4    2       -0.0001975251
    8    1    5    2       -0.0000006299
    8    1    6    2       -0.0000000000
    8    1    7    2       -0.0000000000
    8    1    8    2       -0.0000005302
    8    1    9    2        0.0030614018
    8    1    3    3       -0.0000026879
    8    1    4    3        0.0000034471
    8    1    5    3       -0.0000000063
    8    1    6    3        0.0000000000
    8    1    7    3       -0.0000000000
    8    1    8    3        0.0000946268
    8    1    9    3       -0.0000021936
    8    1    4    4       -0.0000027969
    8    1    5    4        0.0000000180
    8    1    6    4        0.0000000000
    8    1    7    4        0.0000000000
    8    1    8    4        0.0000078896
    8    1    9    4        0.0000015760
    8    1    5    5       -0.0000023605
    8    1    6    5       -0.0000000000
    8    1    7    5        0.0000000000
    8    1    8    5        0.0000015471
    8    1    9    5        0.0000000021
    8    1    6    6       -0.0000023606
    8    1    7    6       -0.0000000066
    8    1    8    6        0.0000000000
    8    1    9    6       -0.0000000000
    8    1    7    7       -0.0000031575
    8    1    8    7       -0.0000000000
    8    1    9    7        0.0000000000
    8    1    8    8        0.0000001212
    8    1    9    8        0.0004390921
    8    1    9    9       -0.0000018441
    9    1    9    1        0.0044244741
    9    1    2    2        0.0272575121
    9    1    3    2       -0.0000051804
    9    1    4    2        0.0000098928
    9    1    5    2        0.0000000238
    9    1    6    2       -0.0000000000
    9    1    7    2        0.0000000000
    9    1    8    2        0.0031350966
    9    1    9    2        0.0000068392
    9    1    3    3        0.0006332145
    9    1    4    3        0.0000703175
    9    1    5    3       -0.0000005466
    9    1    6    3       -0.0000000000
    9    1    7    3        0.0000000000
    9    1    8    3        0.0000130851
    9    1    9    3       -0.0007784216
    9    1    4    4        0.0006888090
    9    1    5    4       -0.0000004952
    9    1    6    4       -0.0000000000
    9    1    7    4        0.0000000000
    9    1    8    4       -0.0000048828
    9    1    9    4       -0.0000855303
    9    1    5    5        0.0007766658
    9    1    6    5        0.0000000000
    9    1    7    5        0.0000000000
    9    1    8    5       -0.0000000153
    9    1    9    5        0.0000004209
    9    1    6    6        0.0007766586
    9    1    7    6       -0.0000009520
    9    1    8    6        0.0000000000
    9    1    9    6        0.0000000000
    9    1    7    7        0.0001051058
    9    1    8    7        0.0000000000
    9    1    9    7       -0.0000000000
    9    1    8    8        0.0006474142
    9    1    9    8       -0.0000020661
    9    1    9    9        0.0012078513
    2    2    2    2        0.3192588467
    2    2    3    2       -0.0000215542
    2    2    4    2        0.0000363802
    2    2    5    2        0.0000000847
    2    2    6    2       -0.0000000000
    2    2    7    2        0.0000000000
    2    2    8    2        0.0203619804
    2    2    9    2        0.0000229982
    2    2    3    3        0.0990465372
    2    2    4    3        0.0026037942
    2    2    5    3        0.0000065978
    2    2    6    3        0.0000000000
    2    2    7    3        0.0000000000
    2    2    8    3        0.0000007838
    2    2    9    3       -0.0219036376
    2    2    4    4        0.1125519343
    2    2    5    4       -0.0000058935
    2    2    6    4       -0.0000000000
    2    2    7    4        0.0000000000
    2    2    8    4        0.0000074653
    2    2    9    4       -0.0004862970
    2    2    5    5        0.1149486100
    2    2    6    5       -0.0000000000
    2    2    7    5        0.0000000000
    2    2    8    5        0.0000000211
    2    2    9    5       -0.0000009936
    2    2    6    6        0.1149486229
    2    2    7    6       -0.0000057023
    2    2    8    6        0.0000000000
    2    2    9    6       -0.0000000000
    2    2    7    7        0.0996262782
    2    2    8    7        0.0000000000
    2    2    9    7       -0.0000000000
    2    2    8    8        0.1001151105
    2    2    9    8        0.0000024555
    2    2    9    9        0.1019453464
    3    2    3    2        0.0024968808
    3    2    4    2        0.0002490014
    3    2    5    2        0.0000007581
    3    2    6    2        0.0000000000
    3    2    7    2        0.0000000000
    3    2    8    2       -0.0000017090
    3    2    9    2       -0.0033586360
    3    2    3    3       -0.0000008404
    3    2    4    3       -0.0000018099
    3    2    5    3        0.0000000179
    3    2    6    3        0.0000000000
    3    2    7    3        0.0000000000
    3    2    8    3        0.0002391851
    3    2    9    3        0.0000032164
    3    2    4    4       -0.0000023167
    3    2    5    4       -0.0000000203
    3    2    6    4       -0.0000000000
    3    2    7    4       -0.0000000000
    3    2    8    4       -0.0000090991
    3    2    9    4       -0.0000015227
    3    2    5    5       -0.0000016888
    3    2    6    5       -0.0000000000
    3    2    7    5       -0.0000000000
    3    2    8    5       -0.0000014395
    3    2    9    5       -0.0000000033
    3    2    6    6       -0.0000016887
    3    2    7    6        0.0000000104
    3    2    8    6       -0.0000000000
    3    2    9    6        0.0000000000
    3    2    7    7       -0.0000000185
    3    2    8    7        0.0000000000
    3    2    9    7       -0.0000000000
    3    2    8    8       -0.0000018228
    3    2    9    8       -0.0005981694
    3    2    9    9       -0.0000023541
    4    2    4    2        0.0015169829
    4    2    5    2        0.0000001776
    4    2    6    2        0.0000000000
    4    2    7    2        0.0000000000
    4    2    8    2        0.0000042696
    4    2    9    2       -0.0002448816
    4    2    3    3       -0.0000348389
    4    2    4    3        0.0000563067
    4    2    5    3        0.0000000922
    4    2    6    3        0.0000000000
    4    2    7    3        0.0000000000
    4    2    8    3        0.0017859067
    4    2    9    3        0.0000087151
    4    2    4    4       -0.0000877612
    4    2    5    4       -0.0000000763
    4    2    6    4       -0.0000000000
    4    2    7    4       -0.0000000000
    4    2    8    4       -0.0007795561
    4    2    9    4       -0.0000392307
    4    2    5    5       -0.0000340041
    4    2    6    5       -0.0000000000
    4    2    7    5        0.0000000000
    4    2    8    5        0.0000024218
    4    2    9    5       -0.0000000836
    4    2    6    6       -0.0000340040
    4    2    7    6       -0.0000000138
    4    2    8    6        0.0000000000
    4    2    9    6       -0.0000000000
    4    2    7    7       -0.0000288811
    4    2    8    7        0.0000000000
    4    2    9    7       -0.0000000000
    4    2    8    8        0.0000029160
    4    2    9    8       -0.0005616883
    4    2    9    9       -0.0000445650
    5    2    5    2        0.0014394590
    5    2    6    2        0.0000000000
    5    2    7    2        0.0000000000
    5    2    8    2        0.0000000095
    5    2    9    2       -0.0000005263
    5    2    3    3        0.0000001782
    5    2    4    3       -0.0000001101
    5    2    5    3        0.0000158387
    5    2    6    3       -0.0000000000
    5    2    7    3       -0.0000000000
    5    2    8    3       -0.0000152291
    5    2    9    3        0.0000002193
    5    2    4    4        0.0000001077
    5    2    5    4       -0.0000208594
    5    2    6    4        0.0000000000
    5    2    7    4        0.0000000000
    5    2    8    4        0.0000019483
    5    2    9    4       -0.0000002120
    5    2    5    5       -0.0000000967
    5    2    6    5        0.0000000000
    5    2    7    5       -0.0000000000
    5    2    8    5       -0.0017973084
    5    2    9    5       -0.0000046526
    5    2    6    6       -0.0000000018
    5    2    7    6        0.0000054759
    5    2    8    6        0.0000000000
    5    2    9    6       -0.0000000000
    5    2    7    7        0.0000002735
    5    2    8    7        0.0000000000
    5    2    9    7       -0.0000000000
    5    2    8    8        0.0000000421
    5    2    9    8       -0.0000086537
    5    2    9    9        0.0000003023
    6    2    6    2        0.0014394586
    6    2    7    2       -0.0000002233
    6    2    8    2        0.0000000000
    6    2    9    2       -0.0000000000
    6    2    3    3        0.0000000000
    6    2    4    3       -0.0000000000
    6    2    5    3       -0.0000000000
    6    2    6    3        0.0000158390
    6    2    7    3        0.0000002506
    6    2    8    3       -0.0000000000
    6    2    9    3        0.0000000000
    6    2    4    4        0.0000000000
    6    2    5    4        0.0000000000
    6    2    6    4       -0.0000208595
    6    2    7    4       -0.0000002366
    6    2    8    4        0.0000000000
    6    2    9    4       -0.0000000000
    6    2    5    5        0.0000000000
    6    2    6    5       -0.0000001294
    6    2    7    5        0.0000054754
    6    2    8    5        0.0000000000
    6    2    9    5       -0.0000000000
    6    2    6    6       -0.0000000000
    6    2    7    6        0.0000000000
    6    2    8    6       -0.0017973170
    6    2    9    6       -0.0000046522
    6    2    7    7        0.0000000000
    6    2    8    7       -0.0000197643
    6    2    9    7        0.0000000367
    6    2    8    8       -0.0000000000
    6    2    9    8       -0.0000000000
    6    2    9    9        0.0000000000
    7    2    7    2        0.0000981336
    7    2    8    2        0.0000000000
    7    2    9    2       -0.0000000000
    7    2    3    3        0.0000000000
    7    2    4    3        0.0000000000
    7    2    5    3       -0.0000000000
    7    2    6    3        0.0000000232
    7    2    7    3        0.0000035846
    7    2    8    3        0.0000000000
    7    2    9    3       -0.0000000000
    7    2    4    4        0.0000000000
    7    2    5    4        0.0000000000
    7    2    6    4       -0.0000000194
    7    2    7    4       -0.0000041337
    7    2    8    4       -0.0000000000
    7    2    9    4       -0.0000000000
    7    2    5    5       -0.0000000000
    7    2    6    5        0.0000006906
    7    2    7    5        0.0000000014
    7    2    8    5        0.0000000000
    7    2    9    5       -0.0000000000
    7    2    6    6        0.0000000000
    7    2    7    6        0.0000000000
    7    2    8    6       -0.0000012797
    7    2    9    6        0.0000000000
    7    2    7    7        0.0000000000
    7    2    8    7       -0.0005095793
    7    2    9    7       -0.0000014743
    7    2    8    8        0.0000000000
    7    2    9    8       -0.0000000000
    7    2    9    9        0.0000000000
    8    2    8    2        0.0022904082
    8    2    9    2        0.0000019260
    8    2    3    3        0.0004839316
    8    2    4    3        0.0001040815
    8    2    5    3       -0.0000034682
    8    2    6    3       -0.0000000000
    8    2    7    3        0.0000000000
    8    2    8    3        0.0000017558
    8    2    9    3       -0.0007666316
    8    2    4    4        0.0009661790
    8    2    5    4       -0.0000000299
    8    2    6    4       -0.0000000000
    8    2    7    4        0.0000000000
    8    2    8    4        0.0000000353
    8    2    9    4       -0.0000906409
    8    2    5    5        0.0007629593
    8    2    6    5       -0.0000000000
    8    2    7    5        0.0000000000
    8    2    8    5        0.0000000025
    8    2    9    5        0.0000004537
    8    2    6    6        0.0007629637
    8    2    7    6       -0.0000019603
    8    2    8    6       -0.0000000000
    8    2    9    6        0.0000000000
    8    2    7    7        0.0001433726
    8    2    8    7        0.0000000000
    8    2    9    7       -0.0000000000
    8    2    8    8        0.0003726549
    8    2    9    8       -0.0000002574
    8    2    9    9        0.0010328373
    9    2    9    2        0.0045568561
    9    2    3    3        0.0000016612
    9    2    4    3        0.0000021769
    9    2    5    3        0.0000000078
    9    2    6    3        0.0000000000
    9    2    7    3       -0.0000000000
    9    2    8    3       -0.0005174295
    9    2    9    3       -0.0000014923
    9    2    4    4       -0.0000001964
    9    2    5    4       -0.0000000043
    9    2    6    4       -0.0000000000
    9    2    7    4        0.0000000000
    9    2    8    4       -0.0000102183
    9    2    9    4       -0.0000015600
    9    2    5    5        0.0000016046
    9    2    6    5        0.0000000000
    9    2    7    5        0.0000000000
    9    2    8    5        0.0000000431
    9    2    9    5       -0.0000000011
    9    2    6    6        0.0000016046
    9    2    7    6       -0.0000000013
    9    2    8    6        0.0000000000
    9    2    9    6       -0.0000000000
    9    2    7    7        0.0000006906
    9    2    8    7       -0.0000000000
    9    2    9    7        0.0000000000
    9    2    8    8        0.0000019409
    9    2    9    8        0.0007097583
    9    2    9    9        0.0000026773
    3    3    3    3        0.0876392976
    3    3    4    3        0.0034643170
    3    3    5    3        0.0004081814
    3    3    6    3        0.0000000001
    3    3    7    3        0.0000000000
    3    3    8    3       -0.0002219054
    3    3    9    3       -0.0051522918
    3    3    4    4        0.0892233278
    3    3    5    4        0.0000535870
    3    3    6    4        0.0000000000
    3    3    7    4        0.0000000000
    3    3    8    4        0.0000719571
    3    3    9    4       -0.0010813918
    3    3    5    5        0.0914442477
    3    3    6    5        0.0000000000
    3    3    7    5       -0.0000000000
    3    3    8    5       -0.0000014661
    3    3    9    5       -0.0000295131
    3    3    6    6        0.0914417000
    3    3    7    6        0.0001457440
    3    3    8    6        0.0000000000
    3    3    9    6       -0.0000000000
    3    3    7    7        0.0888711226
    3    3    8    7        0.0000000000
    3    3    9    7        0.0000000000
    3    3    8    8        0.0890351040
    3    3    9    8       -0.0000042519
    3    3    9    9        0.0848850620
    4    3    4    3        0.0085224058
    4    3    5    3        0.0000780216
    4    3    6    3        0.0000000000
    4    3    7    3       -0.0000000000
    4    3    8    3        0.0002743746
    4    3    9    3       -0.0004949320
    4    3    4    4        0.0033378990
    4    3    5    4        0.0000671174
    4    3    6    4        0.0000000000
    4    3    7    4       -0.0000000000
    4    3    8    4       -0.0000922206
    4    3    9    4       -0.0030374442
    4    3    5    5        0.0035481835
    4    3    6    5        0.0000000000
    4    3    7    5       -0.0000000000
    4    3    8    5        0.0000014185
    4    3    9    5       -0.0000154372
    4    3    6    6        0.0035474130
    4    3    7    6        0.0000223874
    4    3    8    6        0.0000000000
    4    3    9    6       -0.0000000000
    4    3    7    7        0.0036108444
    4    3    8    7       -0.0000000000
    4    3    9    7        0.0000000000
    4    3    8    8        0.0042413348
    4    3    9    8       -0.0000106071
    4    3    9    9        0.0026891302
    5    3    5    3        0.0176551684
    5    3    6    3        0.0000000000
    5    3    7    3       -0.0000000001
    5    3    8    3       -0.0000010458
    5    3    9    3        0.0002149520
    5    3    4    4        0.0002646193
    5    3    5    4        0.0019772418
    5    3    6    4        0.0000000000
    5    3    7    4       -0.0000000000
    5    3    8    4        0.0000001287
    5    3    9    4        0.0000011295
    5    3    5    5        0.0002615273
    5    3    6    5        0.0000000001
    5    3    7    5       -0.0000000025
    5    3    8    5       -0.0000773246
    5    3    9    5       -0.0031638892
    5    3    6    6        0.0000279859
    5    3    7    6        0.0038040659
    5    3    8    6       -0.0000000000
    5    3    9    6        0.0000000000
    5    3    7    7        0.0004805127
    5    3    8    7        0.0000000000
    5    3    9    7        0.0000000000
    5    3    8    8        0.0004359060
    5    3    9    8       -0.0000011922
    5    3    9    9        0.0005293437
    6    3    6    3        0.0176530298
    6    3    7    3        0.0003481117
    6    3    8    3       -0.0000000000
    6    3    9    3        0.0000000001
    6    3    4    4        0.0000000001
    6    3    5    4        0.0000000000
    6    3    6    4        0.0019767389
    6    3    7    4        0.0000556528
    6    3    8    4        0.0000000000
    6    3    9    4        0.0000000000
    6    3    5    5        0.0000000002
    6    3    6    5       -0.0001237809
    6    3    7    5        0.0038052794
    6    3    8    5       -0.0000000000
    6    3    9    5        0.0000000000
    6    3    6    6       -0.0000000001
    6    3    7    6        0.0000000025
    6    3    8    6       -0.0000773202
    6    3    9    6       -0.0031657935
    6    3    7    7        0.0000000002
    6    3    8    7       -0.0000014785
    6    3    9    7       -0.0000588525
    6    3    8    8        0.0000000001
    6    3    9    8       -0.0000000000
    6    3    9    9        0.0000000002
    7    3    7    3        0.0099411379
    7    3    8    3        0.0000000000
    7    3    9    3        0.0000000000
    7    3    4    4        0.0000000000
    7    3    5    4       -0.0000000000
    7    3    6    4        0.0000450061
    7    3    7    4        0.0009209518
    7    3    8    4       -0.0000000000
    7    3    9    4        0.0000000000
    7    3    5    5       -0.0000000004
    7    3    6    5        0.0006513065
    7    3    7    5        0.0001668665
    7    3    8    5        0.0000000000
    7    3    9    5        0.0000000000
    7    3    6    6        0.0000000004
    7    3    7    6        0.0000000001
    7    3    8    6       -0.0000014132
    7    3    9    6       -0.0000666072
    7    3    7    7       -0.0000000000
    7    3    8    7       -0.0000437668
    7    3    9    7       -0.0057892931
    7    3    8    8        0.0000000000
    7    3    9    8        0.0000000000
    7    3    9    9       -0.0000000000
    8    3    8    3        0.0180287754
    8    3    9    3       -0.0000267496
    8    3    4    4       -0.0003875897
    8    3    5    4        0.0000015400
    8    3    6    4        0.0000000000
    8    3    7    4       -0.0000000000
    8    3    8    4       -0.0016701522
    8    3    9    4       -0.0000714478
    8    3    5    5       -0.0001956205
    8    3    6    5       -0.0000000000
    8    3    7    5        0.0000000000
    8    3    8    5        0.0001523208
    8    3    9    5       -0.0000005556
    8    3    6    6       -0.0001956184
    8    3    7    6       -0.0000005822
    8    3    8    6        0.0000000000
    8    3    9    6       -0.0000000000
    8    3    7    7       -0.0001949178
    8    3    8    7        0.0000000000
    8    3    9    7        0.0000000000
    8    3    8    8       -0.0000023435
    8    3    9    8        0.0004544904
    8    3    9    9       -0.0002658532
    9    3    9    3        0.0080513879
    9    3    4    4       -0.0091871615
    9    3    5    4        0.0000183585
    9    3    6    4        0.0000000000
    9    3    7    4        0.0000000000
    9    3    8    4       -0.0000020916
    9    3    9    4        0.0002728359
    9    3    5    5       -0.0091784881
    9    3    6    5        0.0000000000
    9    3    7    5       -0.0000000000
    9    3    8    5       -0.0000016039
    9    3    9    5        0.0000545236
    9    3    6    6       -0.0091830034
    9    3    7    6        0.0000229313
    9    3    8    6       -0.0000000000
    9    3    9    6        0.0000000000
    9    3    7    7       -0.0096633583
    9    3    8    7        0.0000000000
    9    3    9    7       -0.0000000000
    9    3    8    8       -0.0049532537
    9    3    9    8       -0.0000428233
    9    3    9    9       -0.0030253381
    4    4    4    4        0.0961713260
    4    4    5    4        0.0000307044
    4    4    6    4        0.0000000000
    4    4    7    4        0.0000000000
    4    4    8    4        0.0001359619
    4    4    9    4        0.0003137492
    4    4    5    5        0.0959049353
    4    4    6    5        0.0000000000
    4    4    7    5       -0.0000000000
    4    4    8    5       -0.0000014667
    4    4    9    5       -0.0000220328
    4    4    6    6        0.0959035297
    4    4    7    6        0.0000968105
    4    4    8    6        0.0000000000
    4    4    9    6       -0.0000000000
    4    4    7    7        0.0911179015
    4    4    8    7        0.0000000000
    4    4    9    7        0.0000000000
    4    4    8    8        0.0889782951
    4    4    9    8        0.0000369509
    4    4    9    9        0.0866823153
    5    4    5    4        0.0066954844
    5    4    6    4        0.0000000000
    5    4    7    4       -0.0000000000
    5    4    8    4       -0.0000003266
    5    4    9    4        0.0000277938
    5    4    5    5        0.0000559526
    5    4    6    5        0.0000000000
    5    4    7    5       -0.0000000001
    5    4    8    5        0.0000980581
    5    4    9    5       -0.0009003452
    5    4    6    6        0.0000004948
    5    4    7    6        0.0001153766
    5    4    8    6       -0.0000000000
    5    4    9    6        0.0000000000
    5    4    7    7        0.0000579232
    5    4    8    7       -0.0000000000
    5    4    9    7        0.0000000000
    5    4    8    8        0.0000549900
    5    4    9    8        0.0000013147
    5    4    9    9        0.0000570072
    6    4    6    4        0.0066951705
    6    4    7    4        0.0000627694
    6    4    8    4        0.0000000000
    6    4    9    4        0.0000000000
    6    4    5    5        0.0000000000
    6    4    6    5       -0.0000061033
    6    4    7    5        0.0001157087
    6    4    8    5        0.0000000000
    6    4    9    5        0.0000000000
    6    4    6    6       -0.0000000000
    6    4    7    6        0.0000000001
    6    4    8    6        0.0000980530
    6    4    9    6       -0.0009007362
    6    4    7    7        0.0000000000
    6    4    8    7        0.0000018357
    6    4    9    7       -0.0000211492
    6    4    8    8        0.0000000000
    6    4    9    8        0.0000000000
    6    4    9    9        0.0000000000
    7    4    7    4        0.0044162160
    7    4    8    4        0.0000000000
    7    4    9    4        0.0000000000
    7    4    5    5        0.0000000000
    7    4    6    5       -0.0000707806
    7    4    7    5        0.0000278437
    7    4    8    5       -0.0000000000
    7    4    9    5        0.0000000000
    7    4    6    6       -0.0000000000
    7    4    7    6        0.0000000000
    7    4    8    6        0.0000014698
    7    4    9    6       -0.0000169212
    7    4    7    7       -0.0000000000
    7    4    8    7        0.0000543310
    7    4    9    7       -0.0015589005
    7    4    8    8       -0.0000000000
    7    4    9    8        0.0000000000
    7    4    9    9        0.0000000000
    8    4    8    4        0.0023444834
    8    4    9    4        0.0000352325
    8    4    5    5        0.0000677448
    8    4    6    5       -0.0000000000
    8    4    7    5        0.0000000000
    8    4    8    5       -0.0000060584
    8    4    9    5        0.0000001316
    8    4    6    6        0.0000677455
    8    4    7    6        0.0000001512
    8    4    8    6       -0.0000000000
    8    4    9    6       -0.0000000000
    8    4    7    7        0.0000653428
    8    4    8    7       -0.0000000000
    8    4    9    7        0.0000000000
    8    4    8    8        0.0000002631
    8    4    9    8        0.0005761900
    8    4    9    9        0.0000811787
    9    4    9    4        0.0047225211
    9    4    5    5       -0.0013669459
    9    4    6    5        0.0000000000
    9    4    7    5        0.0000000000
    9    4    8    5        0.0000012110
    9    4    9    5        0.0000125302
    9    4    6    6       -0.0013679790
    9    4    7    6       -0.0000107117
    9    4    8    6        0.0000000000
    9    4    9    6        0.0000000000
    9    4    7    7       -0.0022904169
    9    4    8    7        0.0000000000
    9    4    9    7        0.0000000000
    9    4    8    8       -0.0012183099
    9    4    9    8        0.0000516069
    9    4    9    9       -0.0014951924
    5    5    5    5        0.1089027549
    5    5    6    5        0.0000000057
    5    5    7    5        0.0000000000
    5    5    8    5       -0.0000003778
    5    5    9    5        0.0000627809
    5    5    6    6        0.0895215828
    5    5    7    6       -0.0000345484
    5    5    8    6        0.0000000000
    5    5    9    6        0.0000000000
    5    5    7    7        0.0930134159
    5    5    8    7        0.0000000000
    5    5    9    7        0.0000000007
    5    5    8    8        0.0928087956
    5    5    9    8        0.0000071158
    5    5    9    9        0.0882140741
    6    5    6    5        0.0009229514
    6    5    7    5       -0.0000474916
    6    5    8    5       -0.0000000000
    6    5    9    5        0.0000000000
    6    5    6    6       -0.0000000057
    6    5    7    6       -0.0000000001
    6    5    8    6        0.0000007338
    6    5    9    6        0.0000066751
    6    5    7    7        0.0000000000
    6    5    8    7       -0.0000022935
    6    5    9    7       -0.0011200875
    6    5    8    8        0.0000000000
    6    5    9    8        0.0000000000
    6    5    9    9        0.0000000000
    7    5    7    5        0.0053696236
    7    5    8    5        0.0000000000
    7    5    9    5        0.0000000019
    7    5    6    6       -0.0000000001
    7    5    7    6       -0.0000000000
    7    5    8    6       -0.0000150733
    7    5    9    6       -0.0028962640
    7    5    7    7       -0.0000000001
    7    5    8    7       -0.0000005397
    7    5    9    7       -0.0000547333
    7    5    8    8       -0.0000000001
    7    5    9    8       -0.0000000000
    7    5    9    9       -0.0000000000
    8    5    8    5        0.0094397708
    8    5    9    5       -0.0000058179
    8    5    6    6        0.0000001702
    8    5    7    6       -0.0000150713
    8    5    8    6        0.0000000000
    8    5    9    6        0.0000000000
    8    5    7    7       -0.0000016928
    8    5    8    7       -0.0000000000
    8    5    9    7       -0.0000000000
    8    5    8    8       -0.0000000240
    8    5    9    8        0.0000971135
    8    5    9    9       -0.0000030043
    9    5    9    5        0.0045044404
    9    5    6    6       -0.0000966881
    9    5    7    6       -0.0028973214
    9    5    8    6        0.0000000000
    9    5    9    6        0.0000000000
    9    5    7    7       -0.0001109487
    9    5    8    7       -0.0000000000
    9    5    9    7       -0.0000000000
    9    5    8    8       -0.0000304184
    9    5    9    8       -0.0000004896
    9    5    9    9        0.0000343529
    6    6    6    6        0.1089024533
    6    6    7    6        0.0001332357
    6    6    8    6        0.0000000000
    6    6    9    6       -0.0000000000
    6    6    7    7        0.0930131915
    6    6    8    7       -0.0000000000
    6    6    9    7       -0.0000000007
    6    6    8    8        0.0928060397
    6    6    9    8        0.0000071320
    6    6    9    9        0.0882053813
    7    6    7    6        0.0053702699
    7    6    8    6       -0.0000000000
    7    6    9    6       -0.0000000019
    7    6    7    7        0.0002384903
    7    6    8    7        0.0000000000
    7    6    9    7       -0.0000000000
    7    6    8    8        0.0001552924
    7    6    9    8       -0.0000001488
    7    6    9    9        0.0001320569
    8    6    8    6        0.0094389547
    8    6    9    6       -0.0000058078
    8    6    7    7        0.0000000000
    8    6    8    7        0.0001365915
    8    6    9    7       -0.0000003667
    8    6    8    8        0.0000000000
    8    6    9    8        0.0000000000
    8    6    9    9       -0.0000000000
    9    6    9    6        0.0045025340
    9    6    7    7       -0.0000000000
    9    6    8    7       -0.0000001087
    9    6    9    7        0.0000441374
    9    6    8    8       -0.0000000000
    9    6    9    8        0.0000000000
    9    6    9    9        0.0000000000
    7    7    7    7        0.0956830926
    7    7    8    7       -0.0000000000
    7    7    9    7        0.0000000000
    7    7    8    8        0.0902900083
    7    7    9    8        0.0000098343
    7    7    9    9        0.0844614265
    8    7    8    7        0.0069933725
    8    7    9    7        0.0000103261
    8    7    8    8       -0.0000000000
    8    7    9    8        0.0000000000
    8    7    9    9        0.0000000000
    9    7    9    7        0.0045536784
    9    7    8    8        0.0000000000
    9    7    9    8        0.0000000000
    9    7    9    9        0.0000000000
    8    8    8    8        0.0922416423
    8    8    9    8       -0.0000004180
    8    8    9    9        0.0859965459
    9    8    9    8        0.0052423453
    9    8    9    9       -0.0000288413
    9    9    9    9        0.0862437303
 end_two_electron_integrals


 output epsi filename:./pspw_hf_H2.emovecs

 Total PSPW energy     :  -0.7804692043E+00


=== Spin Contamination ===

 <Sexact^2> =    0.0000000000000000     
 <S^2>      =    0.0000000000000000     



== Center of Charge ==

spin up     (    0.0000,    0.0000,    0.0002 )
spin down   (    0.0000,    0.0000,    0.0002 )
     total  (    0.0000,    0.0000,    0.0002 )
ionic       (    0.0000,    0.0000,    0.0000 )


== Molecular Dipole wrt Center of Mass ==

mu   =  (   -0.0000,   -0.0000,   -0.0004 ) au
|mu| =     0.0004 au,       0.0009 Debye

 output psi filename:./pspw_hf_H2.movecs

 Writing Crystallographic Information File:./H2.cif
   - cell not shifted (nwpw:cif_shift_cell .false.)


== Timing ==

cputime in seconds
  prologue    :   0.963606E+01
  main loop   :   0.860380E+03
  epilogue    :   0.195565E-01
  total       :   0.870036E+03
  cputime/step:   0.569788E+01       (     151 evalulations,      63 linesearches)


Time spent doing                        total          step       percent
  total time                 :   0.870036E+03  0.576183E+01       100.0 %
  i/o time                   :   0.296372E+00  0.196273E-02         0.0 %
  FFTs                       :   0.756685E+03  0.501116E+01        87.0 %
  dot products               :   0.138240E+01  0.915494E-02         0.2 %
  geodesic                   :   0.265759E+00  0.175999E-02         0.0 %
  ffm_dgemm                  :   0.274487E-01  0.181779E-03         0.0 %
  fmf_dgemm                  :   0.164832E+00  0.109160E-02         0.0 %
  mmm_dgemm                  :   0.259858E-02  0.172092E-04         0.0 %
  m_diagonalize              :   0.210429E-02  0.139357E-04         0.0 %
  local pseudopotentials     :   0.272593E-01  0.180525E-03         0.0 %
  non-local pseudopotentials :   0.321836E+01  0.213137E-01         0.4 %
  structure factors          :   0.133884E+01  0.886646E-02         0.2 %
  phase factors              :   0.964400E-05  0.638675E-07         0.0 %
  masking and packing        :   0.112578E+02  0.745547E-01         1.3 %
  queue fft                  :   0.556769E+01  0.368721E-01         0.6 %
  queue fft (serial)         :   0.232876E+01  0.154222E-01         0.3 %
  queue fft (message passing):   0.300664E+01  0.199115E-01         0.3 %
  HFX potential              :   0.644930E+03  0.427106E+01        74.1 %
  non-local psp FFM          :   0.153733E+01  0.101810E-01         0.2 %
  non-local psp FMF          :   0.452688E+00  0.299794E-02         0.1 %
  non-local psp FFM A        :   0.512155E+00  0.339175E-02         0.1 %
  non-local psp FFM B        :   0.347715E+00  0.230275E-02         0.0 %

== HFX Counters ==
  HFX Evalulations         =   151
  Lin ACE HFX Evalulations =     0


     >>>  JOB COMPLETED     AT Thu May  1 14:27:41 2025  <<<

 Task  times  cpu:      869.3s     wall:      870.0s
 Summary of allocated global arrays
-----------------------------------
  No active global arrays


MA_summarize_allocated_blocks: starting scan ...
MA_summarize_allocated_blocks: scan completed: 0 heap blocks, 0 stack blocks
MA usage statistics:

	allocation statistics:
					      heap	     stack
					      ----	     -----
	current number of blocks	         0	         0
	maximum number of blocks	       313	        17
	current total bytes		         0	         0
	maximum total bytes		 933374192	 228700296
	maximum total K-bytes		    933375	    228701
	maximum total M-bytes		       934	       229


                                NWChem Input Module
                                -------------------




                                     CITATION
                                     --------
                Please cite the following reference when publishing
                           results obtained with NWChem:

          E. Apra, E. J. Bylaska, W. A. de Jong, N. Govind, K. Kowalski,
       T. P. Straatsma, M. Valiev, H. J. J. van Dam, Y. Alexeev, J. Anchell,
       V. Anisimov, F. W. Aquino, R. Atta-Fynn, J. Autschbach, N. P. Bauman,
     J. C. Becca, D. E. Bernholdt, K. Bhaskaran-Nair, S. Bogatko, P. Borowski,
         J. Boschen, J. Brabec, A. Bruner, E. Cauet, Y. Chen, G. N. Chuev,
      C. J. Cramer, J. Daily, M. J. O. Deegan, T. H. Dunning Jr., M. Dupuis,
   K. G. Dyall, G. I. Fann, S. A. Fischer, A. Fonari, H. Fruchtl, L. Gagliardi,
      J. Garza, N. Gawande, S. Ghosh, K. Glaesemann, A. W. Gotz, J. Hammond,
       V. Helms, E. D. Hermes, K. Hirao, S. Hirata, M. Jacquelin, L. Jensen,
   B. G. Johnson, H. Jonsson, R. A. Kendall, M. Klemm, R. Kobayashi, V. Konkov,
      S. Krishnamoorthy, M. Krishnan, Z. Lin, R. D. Lins, R. J. Littlefield,
      A. J. Logsdail, K. Lopata, W. Ma, A. V. Marenich, J. Martin del Campo,
   D. Mejia-Rodriguez, J. E. Moore, J. M. Mullin, T. Nakajima, D. R. Nascimento,
    J. A. Nichols, P. J. Nichols, J. Nieplocha, A. Otero-de-la-Roza, B. Palmer,
    A. Panyala, T. Pirojsirikul, B. Peng, R. Peverati, J. Pittner, L. Pollack,
   R. M. Richard, P. Sadayappan, G. C. Schatz, W. A. Shelton, D. W. Silverstein,
   D. M. A. Smith, T. A. Soares, D. Song, M. Swart, H. L. Taylor, G. S. Thomas,
            V. Tipparaju, D. G. Truhlar, K. Tsemekhman, T. Van Voorhis,
      A. Vazquez-Mayagoitia, P. Verma, O. Villa, A. Vishnu, K. D. Vogiatzis,
        D. Wang, J. H. Weare, M. J. Williamson, T. L. Windus, K. Wolinski,
        A. T. Wong, Q. Wu, C. Yang, Q. Yu, M. Zacharias, Z. Zhang, Y. Zhao,
                                and R. J. Harrison
                        "NWChem: Past, present, and future
                         J. Chem. Phys. 152, 184102 (2020)
                               doi:10.1063/5.0004997

                                      AUTHORS
                                      -------
  E. Apra, E. J. Bylaska, N. Govind, K. Kowalski, M. Valiev, D. Mejia-Rodriguez,
       A. Kunitsa, N. P. Bauman, A. Panyala, W. A. de Jong, T. P. Straatsma,
   H. J. J. van Dam, D. Wang, T. L. Windus, J. Hammond, J. Autschbach, A. Woods,
    K. Bhaskaran-Nair, J. Brabec, K. Lopata, S. A. Fischer, S. Krishnamoorthy,
     M. Jacquelin, W. Ma, M. Klemm, O. Villa, Y. Chen, V. Anisimov, F. Aquino,
     S. Hirata, M. T. Hackler, E. Hermes, L. Jensen, J. E. Moore, J. C. Becca,
      V. Konjkov, T. Risthaus, M. Malagoli, A. Marenich, A. Otero-de-la-Roza,
        J. Mullin, P. Nichols, R. Peverati, J. Pittner, Y. Zhao, P.-D. Fan,
        A. Fonari, M. J. Williamson, R. J. Harrison, J. R. Rehr, M. Dupuis,
     D. Silverstein, D. M. A. Smith, J. Nieplocha, V. Tipparaju, M. Krishnan,
     B. E. Van Kuiken, A. Vazquez-Mayagoitia, M. Swart, Q. Wu, T. Van Voorhis,
     A. A. Auer, M. Nooijen, L. D. Crosby, E. Brown, G. Cisneros, G. I. Fann,
   H. Fruchtl, J. Garza, K. Hirao, R. A. Kendall, J. A. Nichols, K. Tsemekhman,
    K. Wolinski, J. Anchell, D. E. Bernholdt, P. Borowski, T. Clark, D. Clerc,
   H. Dachsel, M. J. O. Deegan, K. Dyall, D. Elwood, E. Glendening, M. Gutowski,
   A. C. Hess, J. Jaffe, B. G. Johnson, J. Ju, R. Kobayashi, R. Kutteh, Z. Lin,
   R. Littlefield, X. Long, B. Meng, T. Nakajima, S. Niu, L. Pollack, M. Rosing,
   K. Glaesemann, G. Sandrone, M. Stave, H. Taylor, G. Thomas, J. H. van Lenthe,
                               A. T. Wong, Z. Zhang.

 Total times  cpu:      869.3s     wall:      870.1s
