 argument  1 = H2-0.9.nw



============================== echo of input deck ==============================
title "swnc: e theory=pspw4 xc=hf formula=H2 charge=0 mult=1"
#machinejob:expert

echo

start pspw_hf_H2

memory heap 1200 mb stack 1200 mb global 10 mb

charge 0

geometry
H    0.00000    0.00000   -0.4500
H    0.00000    0.00000    0.4500
end

nwpw
  ### pseudopotential block begin ###
  ### pseudopotential block end   ###
  simulation_cell
     SC 15.0000
     boundary_conditions aperiodic
  end

  cutoff 50.0
  mult 1
  xc hf
  lmbfgs
  tolerances 1.0e-9 1.0e-9

  virtual 4
end
set nwpw:cif_filename H2

#set nwpw:CI_maxit_orb 15
#set nwpw:CI_maxit_linesearch 15
set pspw:HFX_screening_radius 14.0


set nwpw:2qintegrals .true.
set nwpw:3x3_virtual .true.

task pspw energy
================================================================================


                                         
                                         


             Northwest Computational Chemistry Package (NWChem) 7.2.3
             --------------------------------------------------------


                    Environmental Molecular Sciences Laboratory
                       Pacific Northwest National Laboratory
                                Richland, WA 99352

                              Copyright (c) 1994-2022
                       Pacific Northwest National Laboratory
                            Battelle Memorial Institute

             NWChem is an open-source computational chemistry package
                        distributed under the terms of the
                      Educational Community License (ECL) 2.0
             A copy of the license is included with this distribution
                              in the LICENSE.TXT file

                                  ACKNOWLEDGMENT
                                  --------------

            This software and its documentation were developed at the
            EMSL at Pacific Northwest National Laboratory, a multiprogram
            national laboratory, operated for the U.S. Department of Energy
            by Battelle under Contract Number DE-AC05-76RL01830. Support
            for this work was provided by the Department of Energy Office
            of Biological and Environmental Research, Office of Basic
            Energy Sciences, and the Office of Advanced Scientific Computing.


           Job information
           ---------------

    hostname        = mqs-al
    program         = nwchem
    date            = Mon Apr  7 09:26:12 2025

    compiled        = Thu_Oct_31_08:55:15_2024
    source          = /home/conda/feedstock_root/build_artifacts/nwchem_1730356057992/work
    nwchem branch   = 7.2.3
    nwchem revision = c400b04
    ga revision     = 5.8.0
    use scalapack   = T
    input           = H2-0.9.nw
    prefix          = pspw_hf_H2.
    data base       = ./pspw_hf_H2.db
    status          = startup
    nproc           =       24
    time left       =     -1s



           Memory information
           ------------------

    heap     =  157286400 doubles =   1200.0 Mbytes
    stack    =  157286397 doubles =   1200.0 Mbytes
    global   =    1310720 doubles =     10.0 Mbytes (distinct from heap & stack)
    total    =  315883517 doubles =   2410.0 Mbytes
    verify   = yes
    hardfail = no 


           Directory information
           ---------------------

  0 permanent = .
  0 scratch   = .




                                NWChem Input Module
                                -------------------


               swnc: e theory=pspw4 xc=hf formula=H2 charge=0 mult=1
               -----------------------------------------------------

 Scaling coordinates for geometry "geometry" by  1.889725989
 (inverse scale =  0.529177249)

  zeroes
  zeroes
  zeroes
  zeroes
  zeroes
  zeroes
  zeroes
  zeroes
  zeroes
  zeroes
  zeroes
  zeroes
  zeroes
  zeroes
  zeroes
  zeroes
  zeroes
  zeroes
  zeroes
  zeroes
  zeroes
  zeroes
  zeroes
  zeroes
  zeroes
  zeroes
  zeroes
  zeroes
  zeroes
  zeroes
  zeroes
  zeroes
  zeroes
  zeroes
  zeroes
  zeroes
  zeroes
  zeroes
  zeroes
  zeroes
  zeroes
  zeroes
  zeroes
  zeroes
  zeroes
  zeroes
  zeroes
  zeroes
 ORDER OF PRIMARY AXIS IS BEING SET TO 4
 D4H symmetry detected

          ------
          auto-z
          ------
  no constraints, skipping    0.0000000000000000     
  no constraints, skipping    0.0000000000000000     


                             Geometry "geometry" -> ""
                             -------------------------

 Output coordinates in angstroms (scale by  1.889725989 to convert to a.u.)

  No.       Tag          Charge          X              Y              Z
 ---- ---------------- ---------- -------------- -------------- --------------
    1 H                    1.0000     0.00000000     0.00000000    -0.45000000
    2 H                    1.0000     0.00000000     0.00000000     0.45000000

      Atomic Mass 
      ----------- 

      H                  1.007825


 Effective nuclear repulsion energy (a.u.)       0.5879747211

            Nuclear Dipole moment (a.u.) 
            ----------------------------
        X                 Y               Z
 ---------------- ---------------- ----------------
     0.0000000000     0.0000000000     0.0000000000

      Symmetry information
      --------------------

 Group name             D4h       
 Group number             28
 Group order              16
 No. of unique centers     1

      Symmetry unique atoms

     1



                                Z-matrix (autoz)
                                -------- 

 Units are Angstrom for bonds and degrees for angles

      Type          Name      I     J     K     L     M      Value
      ----------- --------  ----- ----- ----- ----- ----- ----------
    1 Stretch                  1     2                       0.90000


            XYZ format geometry
            -------------------
     2
 geometry
 H                     0.00000000     0.00000000    -0.45000000
 H                     0.00000000     0.00000000     0.45000000

          ****************************************************
          *                                                  *
          *               NWPW PSPW Calculation              *
          *                                                  *
          * [ (Grassmann/Stiefel manifold implementation)  ] *
          *                                                  *
          *      [ NorthWest Chemistry implementation ]      *
          *                                                  *
          *            version #5.10   06/12/02              *
          *                                                  *
          *    This code was developed by Eric J. Bylaska,   *
          *    and was based upon algorithms and code        *
          *    developed by the group of Prof. John H. Weare *
          *                                                  *
          ****************************************************
     >>>  JOB STARTED       AT Mon Apr  7 09:26:12 2025  <<<
          ================ input data ========================

 input psi filename:./pspw_hf_H2.movecs

 number of processors used:        24
 processor grid           :  24 x   1
 parallel mapping         :2d-hilbert
 parallel mapping         :  balanced
 number of threads        :         1
 parallel io              :       off

 options:
      boundary conditions  = aperiodic   (version4)
      electron spin        = restricted
      exchange-correlation = Hartree-Fock
      - HFX relaxed
      - HFX restricted orbitals :    1
      - HFX free-space coulomb solver


 elements involved in the cluster:
      1: H   valence charge:  1.0000  lmax=  1
             comment    : Parameterized (Chem.Phys.Lett., vol 322, page 447) Hamman psp
             pseudpotential type            :   0
             highest angular component      :   1
             local potential used           :   1
             number of non-local projections:   1
             aperiodic cutoff radius        :  1.000
             cutoff =   0.800   0.800


 total charge:   0.000

 atomic composition:
     H   :    2

 number of electrons: spin up=     1 (   1 per task)  down=     1 (   1 per task) (Fourier space)
 number of orbitals : spin up=     1 (   1 per task)  down=     1 (   1 per task) (Fourier space)

 supercell:
      cell_name:  cell_default                                      
      lattice:    a1=<  15.000   0.000   0.000 >
                  a2=<   0.000  15.000   0.000 >
                  a3=<   0.000   0.000  15.000 >
      reciprocal: b1=<   0.419   0.000   0.000 >
                  b2=<   0.000   0.419   0.000 >
                  b3=<   0.000   0.000   0.419 >
      lattice:    a=      15.000 b=     15.000 c=      15.000
                  alpha=  90.000 beta=  90.000 gamma=  90.000
                  omega=      3375.0

      density cutoff=100.000  fft= 70x 70x 70(    80618 waves     3359 per task)
      wavefnc cutoff= 50.000  fft= 70x 70x 70(    28526 waves     1188 per task)

 technical parameters:
      time step=      5.80     fictitious mass=  400000.0
      tolerance=0.100E-08 (energy)   0.100E-08 (density)
      maximum iterations =      1000 (   10 inner    100 outer )





== Energy Calculation ==


          ============ Grassmann lmbfgs iteration ============
     >>>  ITERATION STARTED AT Mon Apr  7 09:26:18 2025  <<<
    iter.           Energy         DeltaE       DeltaRho 
    ------------------------------------------------------
      10   -0.4125403307E+00   -0.14057E+00    0.73434E-01
     -  10 steepest descent iterations performed
      20   -0.1109437850E+01   -0.45092E-02    0.29073E-01
      30   -0.1119178357E+01   -0.10558E-03    0.61468E-04
      40   -0.1119416932E+01   -0.18051E-05    0.82125E-06
      50   -0.1119421506E+01   -0.57104E-07    0.73006E-08
      60   -0.1119421639E+01   -0.15838E-08    0.11148E-09
      70   -0.1119421640E+01   -0.94802E-09    0.71116E-12
  *** tolerance ok. iteration terminated
     >>>  ITERATION ENDED   AT Mon Apr  7 09:26:24 2025  <<<


==  Summary Of Results  ==

 number of electrons: spin up=    1.00000  down=    1.00000 (real space)

 total     energy    :  -0.1119421640E+01 (   -0.55971E+00/ion)
 total orbital energy:  -0.1101854314E+01 (   -0.11019E+01/electron)
 hartree   energy    :   0.1211084094E+01 (    0.12111E+01/electron)
 exc-corr  energy    :   0.0000000000E+00 (    0.00000E+00/electron)
 HF exchange energy  :  -0.6055420468E+00 (   -0.60554E+00/electron)
 ion-ion   energy    :   0.5879747211E+00 (    0.29399E+00/ion)

 kinetic (planewave) :   0.9357212309E+00 (    0.93572E+00/electron)
 V_local (planewave) :  -0.2987495180E+01 (   -0.29875E+01/electron)
 V_nl    (planewave) :  -0.2611644587E+00 (   -0.26116E+00/electron)
 V_Coul  (planewave) :   0.2422168187E+01 (    0.24222E+01/electron)
 V_xc.   (planewave) :   0.0000000000E+00 (    0.00000E+00/electron)
 K.S. HFX energy     :  -0.1211084094E+01 (   -0.12111E+01/electron)
 Virial Coefficient  :  -0.8832667514E+00

 orbital energies:
    -0.5509272E+00 ( -14.992eV)


== Virtual Orbital Calculation ==


 input epsi filename:./pspw_hf_H2.emovecs

 COVOs Mimimization
 ------------------
CI gradient algorithm =         3
maxit_sweeps          =         3
maxit_orb             =       120
maxit_linesearch      =        15
maxerror              = 0.100E-08

     orb,it,eci,eold,eci-eold=                    1                    1  -1.1202439537369639       -1.1194220295531578       -8.2192418380611088E-004 F
     orb,it,eci,eold,eci-eold=                    1                    2  -1.1213564776129703       -1.1202439537369639       -1.1125238760063549E-003 F
     orb,it,eci,eold,eci-eold=                    1                    3  -1.1260389189761035       -1.1213564776129703       -4.6824413631332273E-003 F
     orb,it,eci,eold,eci-eold=                    1                    4  -1.1267598003891584       -1.1260389189761035       -7.2088141305481912E-004 F
     orb,it,eci,eold,eci-eold=                    1                    5  -1.1268799465709654       -1.1267598003891584       -1.2014618180700154E-004 F
     orb,it,eci,eold,eci-eold=                    1                    6  -1.1269127019795091       -1.1268799465709654       -3.2755408543749809E-005 F
     orb,it,eci,eold,eci-eold=                    1                    7  -1.1272764732434275       -1.1269127019795091       -3.6377126391839987E-004 F
     orb,it,eci,eold,eci-eold=                    1                    8  -1.1272984399160566       -1.1272764732434275       -2.1966672629103456E-005 F
     orb,it,eci,eold,eci-eold=                    1                    9  -1.1275180149096218       -1.1272984399160566       -2.1957499356517474E-004 F
     orb,it,eci,eold,eci-eold=                    1                   10  -1.1281396310673206       -1.1275180149096218       -6.2161615769884548E-004 F
     orb,it,eci,eold,eci-eold=                    1                   11  -1.1285759671408055       -1.1281396310673206       -4.3633607348492198E-004 F
     orb,it,eci,eold,eci-eold=                    1                   12  -1.1286539706439898       -1.1285759671408055       -7.8003503184209677E-005 F
     orb,it,eci,eold,eci-eold=                    1                   13  -1.1289424555004630       -1.1286539706439898       -2.8848485647325894E-004 F
     orb,it,eci,eold,eci-eold=                    1                   14  -1.1291073076608789       -1.1289424555004630       -1.6485216041584039E-004 F
     orb,it,eci,eold,eci-eold=                    1                   15  -1.1292182559521708       -1.1291073076608789       -1.1094829129199013E-004 F
     orb,it,eci,eold,eci-eold=                    1                   16  -1.1292494493649035       -1.1292182559521708       -3.1193412732610781E-005 F
     orb,it,eci,eold,eci-eold=                    1                   17  -1.1294024979805517       -1.1292494493649035       -1.5304861564824357E-004 F
     orb,it,eci,eold,eci-eold=                    1                   18  -1.1296176404502800       -1.1294024979805517       -2.1514246972831330E-004 F
     orb,it,eci,eold,eci-eold=                    1                   19  -1.1296359923751227       -1.1296176404502800       -1.8351924842674450E-005 F
     orb,it,eci,eold,eci-eold=                    1                   20  -1.1296430385329856       -1.1296359923751227       -7.0461578629554822E-006 F
     orb,it,eci,eold,eci-eold=                    1                   21  -1.1297625022762154       -1.1296430385329856       -1.1946374322979736E-004 F
     orb,it,eci,eold,eci-eold=                    1                   22  -1.1298270783302828       -1.1297625022762154       -6.4576054067400079E-005 F
     orb,it,eci,eold,eci-eold=                    1                   23  -1.1298354465614382       -1.1298270783302828       -8.3682311553534561E-006 F
     orb,it,eci,eold,eci-eold=                    1                   24  -1.1298924454175303       -1.1298354465614382       -5.6998856092116412E-005 F
     orb,it,eci,eold,eci-eold=                    1                   25  -1.1299384834592827       -1.1298924454175303       -4.6038041752405334E-005 F
     orb,it,eci,eold,eci-eold=                    1                   26  -1.1299933956215749       -1.1299384834592827       -5.4912162292142241E-005 F
     orb,it,eci,eold,eci-eold=                    1                   27  -1.1301939217638817       -1.1299933956215749       -2.0052614230681165E-004 F
     orb,it,eci,eold,eci-eold=                    1                   28  -1.1303749419285434       -1.1301939217638817       -1.8102016466170490E-004 F
     orb,it,eci,eold,eci-eold=                    1                   29  -1.1304624520889459       -1.1303749419285434       -8.7510160402537451E-005 F
     orb,it,eci,eold,eci-eold=                    1                   30  -1.1306678198503128       -1.1304624520889459       -2.0536776136692581E-004 F
     orb,it,eci,eold,eci-eold=                    1                   31  -1.1307260365681557       -1.1306678198503128       -5.8216717842896060E-005 F
     orb,it,eci,eold,eci-eold=                    1                   32  -1.1307425094517090       -1.1307260365681557       -1.6472883553220186E-005 F
     orb,it,eci,eold,eci-eold=                    1                   33  -1.1308712515984336       -1.1307425094517090       -1.2874214672464745E-004 F
     orb,it,eci,eold,eci-eold=                    1                   34  -1.1309885633078185       -1.1308712515984336       -1.1731170938489299E-004 F
     orb,it,eci,eold,eci-eold=                    1                   35  -1.1310922071456717       -1.1309885633078185       -1.0364383785321785E-004 F
     orb,it,eci,eold,eci-eold=                    1                   36  -1.1314071716487821       -1.1310922071456717       -3.1496450311041535E-004 F
     orb,it,eci,eold,eci-eold=                    1                   37  -1.1316459769543958       -1.1314071716487821       -2.3880530561370961E-004 F
     orb,it,eci,eold,eci-eold=                    1                   38  -1.1318236464760503       -1.1316459769543958       -1.7766952165443328E-004 F
     orb,it,eci,eold,eci-eold=                    1                   39  -1.1322868148228613       -1.1318236464760503       -4.6316834681103813E-004 F
     orb,it,eci,eold,eci-eold=                    1                   40  -1.1324833979688451       -1.1322868148228613       -1.9658314598380855E-004 F
     orb,it,eci,eold,eci-eold=                    1                   41  -1.1325906350967028       -1.1324833979688451       -1.0723712785765116E-004 F
     orb,it,eci,eold,eci-eold=                    1                   42  -1.1335860096815142       -1.1325906350967028       -9.9537458481147034E-004 F
     orb,it,eci,eold,eci-eold=                    1                   43  -1.1337080412123215       -1.1335860096815142       -1.2203153080725393E-004 F
     orb,it,eci,eold,eci-eold=                    1                   44  -1.1364056193865433       -1.1337080412123215       -2.6975781742217819E-003 F
     orb,it,eci,eold,eci-eold=                    1                   45  -1.1374769836123464       -1.1364056193865433       -1.0713642258031175E-003 F
     orb,it,eci,eold,eci-eold=                    1                   46  -1.1380085602065164       -1.1374769836123464       -5.3157659417002456E-004 F
     orb,it,eci,eold,eci-eold=                    1                   47  -1.1396111311514825       -1.1380085602065164       -1.6025709449660752E-003 F
     orb,it,eci,eold,eci-eold=                    1                   48  -1.1398866276621127       -1.1396111311514825       -2.7549651063019098E-004 F
     orb,it,eci,eold,eci-eold=                    1                   49  -1.1408474110387168       -1.1398866276621127       -9.6078337660410185E-004 F
     orb,it,eci,eold,eci-eold=                    1                   50  -1.1409335215817455       -1.1408474110387168       -8.6110543028761199E-005 F
     orb,it,eci,eold,eci-eold=                    1                   51  -1.1411441302759537       -1.1409335215817455       -2.1060869420819195E-004 F
     orb,it,eci,eold,eci-eold=                    1                   52  -1.1411857260059342       -1.1411441302759537       -4.1595729980414831E-005 F
     orb,it,eci,eold,eci-eold=                    1                   53  -1.1411937943637822       -1.1411857260059342       -8.0683578480567064E-006 F
     orb,it,eci,eold,eci-eold=                    1                   54  -1.1412050789794881       -1.1411937943637822       -1.1284615705875467E-005 F
     orb,it,eci,eold,eci-eold=                    1                   55  -1.1412303803022468       -1.1412050789794881       -2.5301322758686240E-005 F
     orb,it,eci,eold,eci-eold=                    1                   56  -1.1412368961218875       -1.1412303803022468       -6.5158196407288926E-006 F
     orb,it,eci,eold,eci-eold=                    1                   57  -1.1412376791085259       -1.1412368961218875       -7.8298663841458449E-007 F
     orb,it,eci,eold,eci-eold=                    1                   58  -1.1412406117202385       -1.1412376791085259       -2.9326117125805240E-006 F
     orb,it,eci,eold,eci-eold=                    1                   59  -1.1412430895213055       -1.1412406117202385       -2.4778010669912476E-006 F
     orb,it,eci,eold,eci-eold=                    1                   60  -1.1412457406102094       -1.1412430895213055       -2.6510889039599306E-006 F
     orb,it,eci,eold,eci-eold=                    1                   61  -1.1412480130542995       -1.1412457406102094       -2.2724440900123710E-006 F
     orb,it,eci,eold,eci-eold=                    1                   62  -1.1412487637556776       -1.1412480130542995       -7.5070137817156990E-007 F
     orb,it,eci,eold,eci-eold=                    1                   63  -1.1412492043766886       -1.1412487637556776       -4.4062101101083329E-007 F
     orb,it,eci,eold,eci-eold=                    1                   64  -1.1412505185342277       -1.1412492043766886       -1.3141575390118732E-006 F
     orb,it,eci,eold,eci-eold=                    1                   65  -1.1412511798845224       -1.1412505185342277       -6.6135029475056228E-007 F
     orb,it,eci,eold,eci-eold=                    1                   66  -1.1412515210363119       -1.1412511798845224       -3.4115178948468383E-007 F
     orb,it,eci,eold,eci-eold=                    1                   67  -1.1412516154946748       -1.1412515210363119       -9.4458362909222160E-008 F
     orb,it,eci,eold,eci-eold=                    1                   68  -1.1412516396452337       -1.1412516154946748       -2.4150558886049112E-008 F
     orb,it,eci,eold,eci-eold=                    1                   69  -1.1412517591397529       -1.1412516396452337       -1.1949451916848375E-007 F
     orb,it,eci,eold,eci-eold=                    1                   70  -1.1412518367268056       -1.1412517591397529       -7.7587052782490673E-008 F
     orb,it,eci,eold,eci-eold=                    1                   71  -1.1412518963020004       -1.1412518367268056       -5.9575194777394813E-008 F
     orb,it,eci,eold,eci-eold=                    1                   72  -1.1412519488446633       -1.1412518963020004       -5.2542662887233860E-008 F
     orb,it,eci,eold,eci-eold=                    1                   73  -1.1412519741820142       -1.1412519488446633       -2.5337350884058196E-008 F
     orb,it,eci,eold,eci-eold=                    1                   74  -1.1412520074904813       -1.1412519741820142       -3.3308467095594096E-008 F
     orb,it,eci,eold,eci-eold=                    1                   75  -1.1412520248200573       -1.1412520074904813       -1.7329575996427593E-008 F
     orb,it,eci,eold,eci-eold=                    1                   76  -1.1412520602445264       -1.1412520248200573       -3.5424469135847403E-008 F
     orb,it,eci,eold,eci-eold=                    1                   77  -1.1412520797183694       -1.1412520602445264       -1.9473842982620226E-008 F
     orb,it,eci,eold,eci-eold=                    1                   78  -1.1412520892166584       -1.1412520797183694       -9.4982890441741574E-009 F
     orb,it,eci,eold,eci-eold=                    1                   79  -1.1412520929551264       -1.1412520892166584       -3.7384679796303999E-009 F
     orb,it,eci,eold,eci-eold=                    1                   80  -1.1412521032400664       -1.1412520929551264       -1.0284940010762966E-008 F
     orb,it,eci,eold,eci-eold=                    1                   81  -1.1412521089243244       -1.1412521032400664       -5.6842579532201398E-009 F
     orb,it,eci,eold,eci-eold=                    1                   82  -1.1412521155858086       -1.1412521089243244       -6.6614842531009799E-009 F
     orb,it,eci,eold,eci-eold=                    1                   83  -1.1412521161927618       -1.1412521155858086       -6.0695315440284503E-010 F
     orbital   1 current e=  0.441737E+00 error=0.132E+00 (eci= -0.114125212E+01 error=0.607E-09) iterations  83(   0 preconditioned, Ep,Sp= 20.0  200.0)
     orb,it,eci,eold,eci-eold=                    1                    1  -1.1412521264079258       -1.1412521161927618       -1.0215164047977510E-008 F
     orb,it,eci,eold,eci-eold=                    1                    2  -1.1412521298524023       -1.1412521264079258       -3.4444764818175599E-009 F
     orb,it,eci,eold,eci-eold=                    1                    3  -1.1412521307108821       -1.1412521298524023       -8.5847973174679737E-010 F
     orbital   1 current e=  0.441732E+00 error=0.474E-05 (eci= -0.114125213E+01 error=0.858E-09) iterations   3(   0 preconditioned, Ep,Sp= 20.0  200.0)
     orb,it,eci,eold,eci-eold=                    1                    1  -1.1412521317941575       -1.1412521307108821       -1.0832754693268498E-009 F
     orb,it,eci,eold,eci-eold=                    1                    2  -1.1412521321985056       -1.1412521317941575       -4.0434811054979036E-010 F
     orbital   1 current e=  0.441730E+00 error=0.200E-05 (eci= -0.114125213E+01 error=0.404E-09) iterations   2(   0 preconditioned, Ep,Sp= 20.0  200.0)
     orb,it,eci,eold,eci-eold=                    2                    1  -1.1194455792541431       -1.1194282899664261       -1.7289287717048296E-005 F
     orb,it,eci,eold,eci-eold=                    2                    2  -1.1199815860283826       -1.1194455792541431       -5.3600677423948362E-004 F
     orb,it,eci,eold,eci-eold=                    2                    3  -1.1254386697922678       -1.1199815860283826       -5.4570837638852066E-003 F
     orb,it,eci,eold,eci-eold=                    2                    4  -1.1255789873115785       -1.1254386697922678       -1.4031751931065095E-004 F
     orb,it,eci,eold,eci-eold=                    2                    5  -1.1256575204654589       -1.1255789873115785       -7.8533153880400164E-005 F
     orb,it,eci,eold,eci-eold=                    2                    6  -1.1260644660355681       -1.1256575204654589       -4.0694557010922949E-004 F
     orb,it,eci,eold,eci-eold=                    2                    7  -1.1261833019733620       -1.1260644660355681       -1.1883593779393742E-004 F
     orb,it,eci,eold,eci-eold=                    2                    8  -1.1263005485758435       -1.1261833019733620       -1.1724660248146890E-004 F
     orb,it,eci,eold,eci-eold=                    2                    9  -1.1263800842497766       -1.1263005485758435       -7.9535673933150974E-005 F
     orb,it,eci,eold,eci-eold=                    2                   10  -1.1264314597407832       -1.1263800842497766       -5.1375491006533380E-005 F
     orb,it,eci,eold,eci-eold=                    2                   11  -1.1264531764305510       -1.1264314597407832       -2.1716689767803388E-005 F
     orb,it,eci,eold,eci-eold=                    2                   12  -1.1264688634119666       -1.1264531764305510       -1.5686981415630186E-005 F
     orb,it,eci,eold,eci-eold=                    2                   13  -1.1264767473438204       -1.1264688634119666       -7.8839318538026504E-006 F
     orb,it,eci,eold,eci-eold=                    2                   14  -1.1264782442751811       -1.1264767473438204       -1.4969313606449930E-006 F
     orb,it,eci,eold,eci-eold=                    2                   15  -1.1264790994952085       -1.1264782442751811       -8.5522002746252213E-007 F
     orb,it,eci,eold,eci-eold=                    2                   16  -1.1264807786047089       -1.1264790994952085       -1.6791095003299006E-006 F
     orb,it,eci,eold,eci-eold=                    2                   17  -1.1264829173498958       -1.1264807786047089       -2.1387451869525620E-006 F
     orb,it,eci,eold,eci-eold=                    2                   18  -1.1264839796376267       -1.1264829173498958       -1.0622877308907874E-006 F
     orb,it,eci,eold,eci-eold=                    2                   19  -1.1264849555305823       -1.1264839796376267       -9.7589295555700062E-007 F
     orb,it,eci,eold,eci-eold=                    2                   20  -1.1264855055044585       -1.1264849555305823       -5.4997387621824601E-007 F
     orb,it,eci,eold,eci-eold=                    2                   21  -1.1264863467259150       -1.1264855055044585       -8.4122145649345725E-007 F
     orb,it,eci,eold,eci-eold=                    2                   22  -1.1264867173456952       -1.1264863467259150       -3.7061978019892194E-007 F
     orb,it,eci,eold,eci-eold=                    2                   23  -1.1264868808753448       -1.1264867173456952       -1.6352964959942540E-007 F
     orb,it,eci,eold,eci-eold=                    2                   24  -1.1264869680882832       -1.1264868808753448       -8.7212938426617370E-008 F
     orb,it,eci,eold,eci-eold=                    2                   25  -1.1264871711439546       -1.1264869680882832       -2.0305567138834135E-007 F
     orb,it,eci,eold,eci-eold=                    2                   26  -1.1264872895227800       -1.1264871711439546       -1.1837882540888245E-007 F
     orb,it,eci,eold,eci-eold=                    2                   27  -1.1264873883620585       -1.1264872895227800       -9.8839278539486486E-008 F
     orb,it,eci,eold,eci-eold=                    2                   28  -1.1264874380049215       -1.1264873883620585       -4.9642862931520426E-008 F
     orb,it,eci,eold,eci-eold=                    2                   29  -1.1264874931611568       -1.1264874380049215       -5.5156235356790262E-008 F
     orb,it,eci,eold,eci-eold=                    2                   30  -1.1264875167529920       -1.1264874931611568       -2.3591835152103613E-008 F
     orb,it,eci,eold,eci-eold=                    2                   31  -1.1264875417562561       -1.1264875167529920       -2.5003264125800229E-008 F
     orb,it,eci,eold,eci-eold=                    2                   32  -1.1264875582815841       -1.1264875417562561       -1.6525327994898475E-008 F
     orb,it,eci,eold,eci-eold=                    2                   33  -1.1264875712815288       -1.1264875582815841       -1.2999944676295172E-008 F
     orb,it,eci,eold,eci-eold=                    2                   34  -1.1264875765537319       -1.1264875712815288       -5.2722031185226115E-009 F
     orb,it,eci,eold,eci-eold=                    2                   35  -1.1264875847770419       -1.1264875765537319       -8.2233100329176523E-009 F
     orb,it,eci,eold,eci-eold=                    2                   36  -1.1264875854658394       -1.1264875847770419       -6.8879746351058202E-010 F
     orbital   2 current e=  0.834322E+00 error=0.154E+00 (eci= -0.112648759E+01 error=0.689E-09) iterations  36(   0 preconditioned, Ep,Sp= 20.0  200.0)
     orb,it,eci,eold,eci-eold=                    2                    1  -1.1264876002928774       -1.1264875854658394       -1.4827038041786977E-008 F
     orb,it,eci,eold,eci-eold=                    2                    2  -1.1264876050492227       -1.1264876002928774       -4.7563453176024950E-009 F
     orb,it,eci,eold,eci-eold=                    2                    3  -1.1264876058569611       -1.1264876050492227       -8.0773832067393414E-010 F
     orbital   2 current e=  0.834344E+00 error=0.226E-04 (eci= -0.112648761E+01 error=0.808E-09) iterations   3(   0 preconditioned, Ep,Sp= 20.0  200.0)
     orb,it,eci,eold,eci-eold=                    2                    1  -1.1264876059954911       -1.1264876058569611       -1.3853007629904823E-010 F
     orbital   2 current e=  0.834351E+00 error=0.689E-05 (eci= -0.112648761E+01 error=0.139E-09) iterations   1(   0 preconditioned, Ep,Sp= 20.0  200.0)
     orb,it,eci,eold,eci-eold=                    3                    1  -1.1194484559016751       -1.1194219955972282       -2.6460304446862537E-005 F
     orb,it,eci,eold,eci-eold=                    3                    2  -1.1194613836570093       -1.1194484559016751       -1.2927755334235513E-005 F
     orb,it,eci,eold,eci-eold=                    3                    3  -1.1194742265701048       -1.1194613836570093       -1.2842913095445496E-005 F
     orb,it,eci,eold,eci-eold=                    3                    4  -1.1195082886806578       -1.1194742265701048       -3.4062110553012559E-005 F
     orb,it,eci,eold,eci-eold=                    3                    5  -1.1196062172275532       -1.1195082886806578       -9.7928546895387214E-005 F
     orb,it,eci,eold,eci-eold=                    3                    6  -1.1196436267154219       -1.1196062172275532       -3.7409487868789171E-005 F
     orb,it,eci,eold,eci-eold=                    3                    7  -1.1196563400908326       -1.1196436267154219       -1.2713375410644545E-005 F
     orb,it,eci,eold,eci-eold=                    3                    8  -1.1196583888957108       -1.1196563400908326       -2.0488048781963641E-006 F
     orb,it,eci,eold,eci-eold=                    3                    9  -1.1196874227696580       -1.1196583888957108       -2.9033873947259536E-005 F
     orb,it,eci,eold,eci-eold=                    3                   10  -1.1197014307818427       -1.1196874227696580       -1.4008012184651975E-005 F
     orb,it,eci,eold,eci-eold=                    3                   11  -1.1197360417085196       -1.1197014307818427       -3.4610926676892362E-005 F
     orb,it,eci,eold,eci-eold=                    3                   12  -1.1197363793752653       -1.1197360417085196       -3.3766674567559107E-007 F
     orb,it,eci,eold,eci-eold=                    3                   13  -1.1197403261440246       -1.1197363793752653       -3.9467687593663925E-006 F
     orb,it,eci,eold,eci-eold=                    3                   14  -1.1197797030683427       -1.1197403261440246       -3.9376924318101914E-005 F
     orb,it,eci,eold,eci-eold=                    3                   15  -1.1197955869735143       -1.1197797030683427       -1.5883905171598656E-005 F
     orb,it,eci,eold,eci-eold=                    3                   16  -1.1198780184004464       -1.1197955869735143       -8.2431426932094709E-005 F
     orb,it,eci,eold,eci-eold=                    3                   17  -1.1200881107324903       -1.1198780184004464       -2.1009233204383193E-004 F
     orb,it,eci,eold,eci-eold=                    3                   18  -1.1201774945739602       -1.1200881107324903       -8.9383841469947711E-005 F
     orb,it,eci,eold,eci-eold=                    3                   19  -1.1202837213608741       -1.1201774945739602       -1.0622678691385445E-004 F
     orb,it,eci,eold,eci-eold=                    3                   20  -1.1203620098059923       -1.1202837213608741       -7.8288445118257499E-005 F
     orb,it,eci,eold,eci-eold=                    3                   21  -1.1204407375302143       -1.1203620098059923       -7.8727724222016349E-005 F
     orb,it,eci,eold,eci-eold=                    3                   22  -1.1204847757351499       -1.1204407375302143       -4.4038204935592518E-005 F
     orb,it,eci,eold,eci-eold=                    3                   23  -1.1205413834910884       -1.1204847757351499       -5.6607755938520299E-005 F
     orb,it,eci,eold,eci-eold=                    3                   24  -1.1205698404631477       -1.1205413834910884       -2.8456972059220931E-005 F
     orb,it,eci,eold,eci-eold=                    3                   25  -1.1206115349270607       -1.1205698404631477       -4.1694463913000135E-005 F
     orb,it,eci,eold,eci-eold=                    3                   26  -1.1206240745192713       -1.1206115349270607       -1.2539592210591977E-005 F
     orb,it,eci,eold,eci-eold=                    3                   27  -1.1206494950621448       -1.1206240745192713       -2.5420542873577645E-005 F
     orb,it,eci,eold,eci-eold=                    3                   28  -1.1207738499710957       -1.1206494950621448       -1.2435490895090773E-004 F
     orb,it,eci,eold,eci-eold=                    3                   29  -1.1208519629513125       -1.1207738499710957       -7.8112980216760164E-005 F
     orb,it,eci,eold,eci-eold=                    3                   30  -1.1216467218614818       -1.1208519629513125       -7.9475891016933531E-004 F
     orb,it,eci,eold,eci-eold=                    3                   31  -1.1217012512299394       -1.1216467218614818       -5.4529368457512106E-005 F
     orb,it,eci,eold,eci-eold=                    3                   32  -1.1217127062814445       -1.1217012512299394       -1.1455051505127045E-005 F
     orb,it,eci,eold,eci-eold=                    3                   33  -1.1217177648047421       -1.1217127062814445       -5.0585232975741690E-006 F
     orb,it,eci,eold,eci-eold=                    3                   34  -1.1217208801037863       -1.1217177648047421       -3.1152990442873119E-006 F
     orb,it,eci,eold,eci-eold=                    3                   35  -1.1217230701125747       -1.1217208801037863       -2.1900087883164332E-006 F
     orb,it,eci,eold,eci-eold=                    3                   36  -1.1217301782952309       -1.1217230701125747       -7.1081826562569006E-006 F
     orb,it,eci,eold,eci-eold=                    3                   37  -1.1217380467343403       -1.1217301782952309       -7.8684391093819528E-006 F
     orb,it,eci,eold,eci-eold=                    3                   38  -1.1217452198102058       -1.1217380467343403       -7.1730758655075277E-006 F
     orb,it,eci,eold,eci-eold=                    3                   39  -1.1217566381576407       -1.1217452198102058       -1.1418347434899445E-005 F
     orb,it,eci,eold,eci-eold=                    3                   40  -1.1218204247078862       -1.1217566381576407       -6.3786550245525930E-005 F
     orb,it,eci,eold,eci-eold=                    3                   41  -1.1218259911312829       -1.1218204247078862       -5.5664233966634669E-006 F
     orb,it,eci,eold,eci-eold=                    3                   42  -1.1223596681540569       -1.1218259911312829       -5.3367702277395956E-004 F
     orb,it,eci,eold,eci-eold=                    3                   43  -1.1223649957524555       -1.1223596681540569       -5.3275983986633690E-006 F
     orb,it,eci,eold,eci-eold=                    3                   44  -1.1223762235351469       -1.1223649957524555       -1.1227782691358712E-005 F
     orb,it,eci,eold,eci-eold=                    3                   45  -1.1223854573436571       -1.1223762235351469       -9.2338085102561251E-006 F
     orb,it,eci,eold,eci-eold=                    3                   46  -1.1224079219911540       -1.1223854573436571       -2.2464647496889256E-005 F
     orb,it,eci,eold,eci-eold=                    3                   47  -1.1225582723162413       -1.1224079219911540       -1.5035032508725621E-004 F
     orb,it,eci,eold,eci-eold=                    3                   48  -1.1226804321363333       -1.1225582723162413       -1.2215982009200488E-004 F
     orb,it,eci,eold,eci-eold=                    3                   49  -1.1227247034950858       -1.1226804321363333       -4.4271358752512313E-005 F
     orb,it,eci,eold,eci-eold=                    3                   50  -1.1227787682593593       -1.1227247034950858       -5.4064764273498156E-005 F
     orb,it,eci,eold,eci-eold=                    3                   51  -1.1228676217616087       -1.1227787682593593       -8.8853502249408578E-005 F
     orb,it,eci,eold,eci-eold=                    3                   52  -1.1230231277509977       -1.1228676217616087       -1.5550598938895988E-004 F
     orb,it,eci,eold,eci-eold=                    3                   53  -1.1232256254463904       -1.1230231277509977       -2.0249769539271156E-004 F
     orb,it,eci,eold,eci-eold=                    3                   54  -1.1232778378456552       -1.1232256254463904       -5.2212399264783826E-005 F
     orb,it,eci,eold,eci-eold=                    3                   55  -1.1233526536400178       -1.1232778378456552       -7.4815794362637078E-005 F
     orb,it,eci,eold,eci-eold=                    3                   56  -1.1234443779902012       -1.1233526536400178       -9.1724350183453041E-005 F
     orb,it,eci,eold,eci-eold=                    3                   57  -1.1235434523336953       -1.1234443779902012       -9.9074343494098827E-005 F
     orb,it,eci,eold,eci-eold=                    3                   58  -1.1247925825839198       -1.1235434523336953       -1.2491302502244395E-003 F
     orb,it,eci,eold,eci-eold=                    3                   59  -1.1250553617497834       -1.1247925825839198       -2.6277916586359140E-004 F
     orb,it,eci,eold,eci-eold=                    3                   60  -1.1250553797101861       -1.1250553617497834       -1.7960402720618163E-008 F
     orb,it,eci,eold,eci-eold=                    3                   61  -1.1250592814172171       -1.1250553797101861       -3.9017070310176649E-006 F
     orb,it,eci,eold,eci-eold=                    3                   62  -1.1250614067049161       -1.1250592814172171       -2.1252876989397151E-006 F
     orb,it,eci,eold,eci-eold=                    3                   63  -1.1250619701694575       -1.1250614067049161       -5.6346454146982694E-007 F
     orb,it,eci,eold,eci-eold=                    3                   64  -1.1250643219071694       -1.1250619701694575       -2.3517377119031124E-006 F
     orb,it,eci,eold,eci-eold=                    3                   65  -1.1250654315537334       -1.1250643219071694       -1.1096465639681696E-006 F
     orb,it,eci,eold,eci-eold=                    3                   66  -1.1250686167457891       -1.1250654315537334       -3.1851920556658087E-006 F
     orb,it,eci,eold,eci-eold=                    3                   67  -1.1250724513751256       -1.1250686167457891       -3.8346293365076889E-006 F
     orb,it,eci,eold,eci-eold=                    3                   68  -1.1250751426018502       -1.1250724513751256       -2.6912267245826627E-006 F
     orb,it,eci,eold,eci-eold=                    3                   69  -1.1250775803423572       -1.1250751426018502       -2.4377405070108438E-006 F
     orb,it,eci,eold,eci-eold=                    3                   70  -1.1250817243961708       -1.1250775803423572       -4.1440538136594540E-006 F
     orb,it,eci,eold,eci-eold=                    3                   71  -1.1250875624752625       -1.1250817243961708       -5.8380790917134107E-006 F
     orb,it,eci,eold,eci-eold=                    3                   72  -1.1250901400305022       -1.1250875624752625       -2.5775552396911650E-006 F
     orb,it,eci,eold,eci-eold=                    3                   73  -1.1250974001064475       -1.1250901400305022       -7.2600759453145258E-006 F
     orb,it,eci,eold,eci-eold=                    3                   74  -1.1251159623251059       -1.1250974001064475       -1.8562218658368934E-005 F
     orb,it,eci,eold,eci-eold=                    3                   75  -1.1251292998783773       -1.1251159623251059       -1.3337553271375313E-005 F
     orb,it,eci,eold,eci-eold=                    3                   76  -1.1251444492277578       -1.1251292998783773       -1.5149349380516597E-005 F
     orb,it,eci,eold,eci-eold=                    3                   77  -1.1251557828033065       -1.1251444492277578       -1.1333575548722052E-005 F
     orb,it,eci,eold,eci-eold=                    3                   78  -1.1251779719074988       -1.1251557828033065       -2.2189104192271714E-005 F
     orb,it,eci,eold,eci-eold=                    3                   79  -1.1251897567591151       -1.1251779719074988       -1.1784851616347680E-005 F
     orb,it,eci,eold,eci-eold=                    3                   80  -1.1251961431493247       -1.1251897567591151       -6.3863902095562253E-006 F
     orb,it,eci,eold,eci-eold=                    3                   81  -1.1252003065067657       -1.1251961431493247       -4.1633574410226970E-006 F
     orb,it,eci,eold,eci-eold=                    3                   82  -1.1252009609338669       -1.1252003065067657       -6.5442710117658009E-007 F
     orb,it,eci,eold,eci-eold=                    3                   83  -1.1252066112094714       -1.1252009609338669       -5.6502756045073710E-006 F
     orb,it,eci,eold,eci-eold=                    3                   84  -1.1252081611141622       -1.1252066112094714       -1.5499046908118430E-006 F
     orb,it,eci,eold,eci-eold=                    3                   85  -1.1252122885758284       -1.1252081611141622       -4.1274616662256847E-006 F
     orb,it,eci,eold,eci-eold=                    3                   86  -1.1252142245672561       -1.1252122885758284       -1.9359914276151358E-006 F
     orb,it,eci,eold,eci-eold=                    3                   87  -1.1252154685262126       -1.1252142245672561       -1.2439589565094167E-006 F
     orb,it,eci,eold,eci-eold=                    3                   88  -1.1252163920558065       -1.1252154685262126       -9.2352959391028833E-007 F
     orb,it,eci,eold,eci-eold=                    3                   89  -1.1252172894604326       -1.1252163920558065       -8.9740462616560990E-007 F
     orb,it,eci,eold,eci-eold=                    3                   90  -1.1252174723584916       -1.1252172894604326       -1.8289805892024447E-007 F
     orb,it,eci,eold,eci-eold=                    3                   91  -1.1252174959135191       -1.1252174723584916       -2.3555027484079005E-008 F
     orb,it,eci,eold,eci-eold=                    3                   92  -1.1252177450410228       -1.1252174959135191       -2.4912750373751180E-007 F
     orb,it,eci,eold,eci-eold=                    3                   93  -1.1252179352145451       -1.1252177450410228       -1.9017352226313733E-007 F
     orb,it,eci,eold,eci-eold=                    3                   94  -1.1252179444290600       -1.1252179352145451       -9.2145149288569428E-009 F
     orb,it,eci,eold,eci-eold=                    3                   95  -1.1252179917299538       -1.1252179444290600       -4.7300893868396088E-008 F
     orb,it,eci,eold,eci-eold=                    3                   96  -1.1252180278424777       -1.1252179917299538       -3.6112523860154511E-008 F
     orb,it,eci,eold,eci-eold=                    3                   97  -1.1252180672214300       -1.1252180278424777       -3.9378952321200700E-008 F
     orb,it,eci,eold,eci-eold=                    3                   98  -1.1252181271171016       -1.1252180672214300       -5.9895671533638506E-008 F
     orb,it,eci,eold,eci-eold=                    3                   99  -1.1252181579110059       -1.1252181271171016       -3.0793904315373766E-008 F
     orb,it,eci,eold,eci-eold=                    3                  100  -1.1252181982988443       -1.1252181579110059       -4.0387838406985566E-008 F
     orb,it,eci,eold,eci-eold=                    3                  101  -1.1252182017246850       -1.1252181982988443       -3.4258407222154119E-009 F
     orb,it,eci,eold,eci-eold=                    3                  102  -1.1252182101060577       -1.1252182017246850       -8.3813727069781407E-009 F
     orb,it,eci,eold,eci-eold=                    3                  103  -1.1252182441163709       -1.1252182101060577       -3.4010313232357703E-008 F
     orb,it,eci,eold,eci-eold=                    3                  104  -1.1252182519715093       -1.1252182441163709       -7.8551383175806677E-009 F
     orb,it,eci,eold,eci-eold=                    3                  105  -1.1252182521021052       -1.1252182519715093       -1.3059597847586701E-010 F
     orbital   3 current e=  0.850984E+00 error=0.343E-01 (eci= -0.112521825E+01 error=0.131E-09) iterations 105(   0 preconditioned, Ep,Sp= 20.0  200.0)
     orb,it,eci,eold,eci-eold=                    3                    1  -1.1252182850632133       -1.1252182521021052       -3.2961108065165945E-008 F
     orb,it,eci,eold,eci-eold=                    3                    2  -1.1252182963401698       -1.1252182850632133       -1.1276956479733258E-008 F
     orb,it,eci,eold,eci-eold=                    3                    3  -1.1252182979300522       -1.1252182963401698       -1.5898824479165796E-009 F
     orb,it,eci,eold,eci-eold=                    3                    4  -1.1252182984067218       -1.1252182979300522       -4.7666959268610753E-010 F
     orbital   3 current e=  0.850717E+00 error=0.267E-03 (eci= -0.112521830E+01 error=0.477E-09) iterations   4(   0 preconditioned, Ep,Sp= 20.0  200.0)
     orb,it,eci,eold,eci-eold=                    3                    1  -1.1252183032467977       -1.1252182984067218       -4.8400758956290701E-009 F
     orb,it,eci,eold,eci-eold=                    3                    2  -1.1252183043331776       -1.1252183032467977       -1.0863798749483067E-009 F
     orb,it,eci,eold,eci-eold=                    3                    3  -1.1252183046061950       -1.1252183043331776       -2.7301738647622642E-010 F
     orbital   3 current e=  0.850628E+00 error=0.886E-04 (eci= -0.112521830E+01 error=0.273E-09) iterations   3(   0 preconditioned, Ep,Sp= 20.0  200.0)
     orb,it,eci,eold,eci-eold=                    4                    1  -1.1198072130138632       -1.1194216494396123       -3.8556357425090226E-004 F
     orb,it,eci,eold,eci-eold=                    4                    2  -1.1199765963271531       -1.1198072130138632       -1.6938331328986145E-004 F
     orb,it,eci,eold,eci-eold=                    4                    3  -1.1209964115768709       -1.1199765963271531       -1.0198152497178370E-003 F
     orb,it,eci,eold,eci-eold=                    4                    4  -1.1243032861076865       -1.1209964115768709       -3.3068745308155734E-003 F
     orb,it,eci,eold,eci-eold=                    4                    5  -1.1246305235536549       -1.1243032861076865       -3.2723744596840909E-004 F
     orb,it,eci,eold,eci-eold=                    4                    6  -1.1246483048944971       -1.1246305235536549       -1.7781340842182303E-005 F
     orb,it,eci,eold,eci-eold=                    4                    7  -1.1248891178424185       -1.1246483048944971       -2.4081294792144270E-004 F
     orb,it,eci,eold,eci-eold=                    4                    8  -1.1249428649984854       -1.1248891178424185       -5.3747156066874524E-005 F
     orb,it,eci,eold,eci-eold=                    4                    9  -1.1249776676078507       -1.1249428649984854       -3.4802609365280901E-005 F
     orb,it,eci,eold,eci-eold=                    4                   10  -1.1250170362061023       -1.1249776676078507       -3.9368598251598996E-005 F
     orb,it,eci,eold,eci-eold=                    4                   11  -1.1250337104496655       -1.1250170362061023       -1.6674243563219449E-005 F
     orb,it,eci,eold,eci-eold=                    4                   12  -1.1250672792534739       -1.1250337104496655       -3.3568803808448067E-005 F
     orb,it,eci,eold,eci-eold=                    4                   13  -1.1250828898880565       -1.1250672792534739       -1.5610634582552407E-005 F
     orb,it,eci,eold,eci-eold=                    4                   14  -1.1250933385287385       -1.1250828898880565       -1.0448640682003685E-005 F
     orb,it,eci,eold,eci-eold=                    4                   15  -1.1250976952902614       -1.1250933385287385       -4.3567615228834455E-006 F
     orb,it,eci,eold,eci-eold=                    4                   16  -1.1251130200958834       -1.1250976952902614       -1.5324805622052295E-005 F
     orb,it,eci,eold,eci-eold=                    4                   17  -1.1251180177261015       -1.1251130200958834       -4.9976302181065080E-006 F
     orb,it,eci,eold,eci-eold=                    4                   18  -1.1251185324612636       -1.1251180177261015       -5.1473516204936232E-007 F
     orb,it,eci,eold,eci-eold=                    4                   19  -1.1251269173140974       -1.1251185324612636       -8.3848528338315020E-006 F
     orb,it,eci,eold,eci-eold=                    4                   20  -1.1251318265322203       -1.1251269173140974       -4.9092181229060117E-006 F
     orb,it,eci,eold,eci-eold=                    4                   21  -1.1251336148853668       -1.1251318265322203       -1.7883531464590874E-006 F
     orb,it,eci,eold,eci-eold=                    4                   22  -1.1251407402896072       -1.1251336148853668       -7.1254042404156337E-006 F
     orb,it,eci,eold,eci-eold=                    4                   23  -1.1251449014914214       -1.1251407402896072       -4.1612018142345164E-006 F
     orb,it,eci,eold,eci-eold=                    4                   24  -1.1251470011842781       -1.1251449014914214       -2.0996928566940909E-006 F
     orb,it,eci,eold,eci-eold=                    4                   25  -1.1251532484952338       -1.1251470011842781       -6.2473109556648865E-006 F
     orb,it,eci,eold,eci-eold=                    4                   26  -1.1251549762568431       -1.1251532484952338       -1.7277616093380743E-006 F
     orb,it,eci,eold,eci-eold=                    4                   27  -1.1251556233665985       -1.1251549762568431       -6.4710975533621706E-007 F
     orb,it,eci,eold,eci-eold=                    4                   28  -1.1251605986526152       -1.1251556233665985       -4.9752860167284751E-006 F
     orb,it,eci,eold,eci-eold=                    4                   29  -1.1251645241980353       -1.1251605986526152       -3.9255454200581852E-006 F
     orb,it,eci,eold,eci-eold=                    4                   30  -1.1251662959231696       -1.1251645241980353       -1.7717251343807305E-006 F
     orb,it,eci,eold,eci-eold=                    4                   31  -1.1251707577536385       -1.1251662959231696       -4.4618304688714971E-006 F
     orb,it,eci,eold,eci-eold=                    4                   32  -1.1251720831386998       -1.1251707577536385       -1.3253850612571227E-006 F
     orb,it,eci,eold,eci-eold=                    4                   33  -1.1251727251014085       -1.1251720831386998       -6.4196270876948347E-007 F
     orb,it,eci,eold,eci-eold=                    4                   34  -1.1251763785713735       -1.1251727251014085       -3.6534699650037084E-006 F
     orb,it,eci,eold,eci-eold=                    4                   35  -1.1251788017776265       -1.1251763785713735       -2.4232062529883081E-006 F
     orb,it,eci,eold,eci-eold=                    4                   36  -1.1251798733617362       -1.1251788017776265       -1.0715841096686773E-006 F
     orb,it,eci,eold,eci-eold=                    4                   37  -1.1251831079784158       -1.1251798733617362       -3.2346166796148879E-006 F
     orb,it,eci,eold,eci-eold=                    4                   38  -1.1251844818274490       -1.1251831079784158       -1.3738490332038111E-006 F
     orb,it,eci,eold,eci-eold=                    4                   39  -1.1251851454336799       -1.1251844818274490       -6.6360623085515158E-007 F
     orb,it,eci,eold,eci-eold=                    4                   40  -1.1251879611220224       -1.1251851454336799       -2.8156883424834689E-006 F
     orb,it,eci,eold,eci-eold=                    4                   41  -1.1251894986505722       -1.1251879611220224       -1.5375285498109292E-006 F
     orb,it,eci,eold,eci-eold=                    4                   42  -1.1251901292384210       -1.1251894986505722       -6.3058784882663588E-007 F
     orb,it,eci,eold,eci-eold=                    4                   43  -1.1251924562145068       -1.1251901292384210       -2.3269760858202204E-006 F
     orb,it,eci,eold,eci-eold=                    4                   44  -1.1251937195061701       -1.1251924562145068       -1.2632916632782099E-006 F
     orb,it,eci,eold,eci-eold=                    4                   45  -1.1251943417962997       -1.1251937195061701       -6.2229012964820640E-007 F
     orb,it,eci,eold,eci-eold=                    4                   46  -1.1251964492827462       -1.1251943417962997       -2.1074864464676324E-006 F
     orb,it,eci,eold,eci-eold=                    4                   47  -1.1251973315406691       -1.1251964492827462       -8.8225792294061023E-007 F
     orb,it,eci,eold,eci-eold=                    4                   48  -1.1251976769753371       -1.1251973315406691       -3.4543466798098166E-007 F
     orb,it,eci,eold,eci-eold=                    4                   49  -1.1251993389847030       -1.1251976769753371       -1.6620093659103219E-006 F
     orb,it,eci,eold,eci-eold=                    4                   50  -1.1252003448178400       -1.1251993389847030       -1.0058331370021989E-006 F
     orb,it,eci,eold,eci-eold=                    4                   51  -1.1252007927354972       -1.1252003448178400       -4.4791765718699139E-007 F
     orb,it,eci,eold,eci-eold=                    4                   52  -1.1252022344424983       -1.1252007927354972       -1.4417070011152333E-006 F
     orb,it,eci,eold,eci-eold=                    4                   53  -1.1252028487678383       -1.1252022344424983       -6.1432533993155403E-007 F
     orb,it,eci,eold,eci-eold=                    4                   54  -1.1252031265242355       -1.1252028487678383       -2.7775639721561163E-007 F
     orb,it,eci,eold,eci-eold=                    4                   55  -1.1252043278580457       -1.1252031265242355       -1.2013338102079274E-006 F
     orb,it,eci,eold,eci-eold=                    4                   56  -1.1252049804841726       -1.1252043278580457       -6.5262612691796562E-007 F
     orb,it,eci,eold,eci-eold=                    4                   57  -1.1252052589768764       -1.1252049804841726       -2.7849270378688118E-007 F
     orb,it,eci,eold,eci-eold=                    4                   58  -1.1252062795092885       -1.1252052589768764       -1.0205324121326242E-006 F
     orb,it,eci,eold,eci-eold=                    4                   59  -1.1252068060868583       -1.1252062795092885       -5.2657756977048109E-007 F
     orb,it,eci,eold,eci-eold=                    4                   60  -1.1252070478491807       -1.1252068060868583       -2.4176232238382056E-007 F
     orb,it,eci,eold,eci-eold=                    4                   61  -1.1252079385914910       -1.1252070478491807       -8.9074231035546347E-007 F
     orb,it,eci,eold,eci-eold=                    4                   62  -1.1252084016766022       -1.1252079385914910       -4.6308511114645512E-007 F
     orb,it,eci,eold,eci-eold=                    4                   63  -1.1252086111543818       -1.1252084016766022       -2.0947777956692448E-007 F
     orb,it,eci,eold,eci-eold=                    4                   64  -1.1252093879589316       -1.1252086111543818       -7.7680454979578428E-007 F
     orb,it,eci,eold,eci-eold=                    4                   65  -1.1252097978934201       -1.1252093879589316       -4.0993448857662429E-007 F
     orb,it,eci,eold,eci-eold=                    4                   66  -1.1252099814780789       -1.1252097978934201       -1.8358465880830011E-007 F
     orb,it,eci,eold,eci-eold=                    4                   67  -1.1252106608651868       -1.1252099814780789       -6.7938710790471646E-007 F
     orb,it,eci,eold,eci-eold=                    4                   68  -1.1252110261444717       -1.1252106608651868       -3.6527928481966399E-007 F
     orb,it,eci,eold,eci-eold=                    4                   69  -1.1252111887476191       -1.1252110261444717       -1.6260314739113824E-007 F
     orb,it,eci,eold,eci-eold=                    4                   70  -1.1252117696600299       -1.1252111887476191       -5.8091241084134992E-007 F
     orb,it,eci,eold,eci-eold=                    4                   71  -1.1252120603888818       -1.1252117696600299       -2.9072885188163866E-007 F
     orb,it,eci,eold,eci-eold=                    4                   72  -1.1252121913844424       -1.1252120603888818       -1.3099556062101669E-007 F
     orb,it,eci,eold,eci-eold=                    4                   73  -1.1252126913159211       -1.1252121913844424       -4.9993147865912135E-007 F
     orb,it,eci,eold,eci-eold=                    4                   74  -1.1252129488030520       -1.1252126913159211       -2.5748713095019582E-007 F
     orb,it,eci,eold,eci-eold=                    4                   75  -1.1252130585718734       -1.1252129488030520       -1.0976882136581878E-007 F
     orb,it,eci,eold,eci-eold=                    4                   76  -1.1252134758907295       -1.1252130585718734       -4.1731885613849329E-007 F
     orb,it,eci,eold,eci-eold=                    4                   77  -1.1252136967696975       -1.1252134758907295       -2.2087896800471185E-007 F
     orb,it,eci,eold,eci-eold=                    4                   78  -1.1252137964653894       -1.1252136967696975       -9.9695691924139851E-008 F
     orb,it,eci,eold,eci-eold=                    4                   79  -1.1252141500144175       -1.1252137964653894       -3.5354902805373456E-007 F
     orb,it,eci,eold,eci-eold=                    4                   80  -1.1252143175649181       -1.1252141500144175       -1.6755050058492316E-007 F
     orb,it,eci,eold,eci-eold=                    4                   81  -1.1252143948268991       -1.1252143175649181       -7.7261981035192662E-008 F
     orb,it,eci,eold,eci-eold=                    4                   82  -1.1252147041533895       -1.1252143948268991       -3.0932649042192395E-007 F
     orb,it,eci,eold,eci-eold=                    4                   83  -1.1252148700463185       -1.1252147041533895       -1.6589292894941821E-007 F
     orb,it,eci,eold,eci-eold=                    4                   84  -1.1252149388770061       -1.1252148700463185       -6.8830687594001461E-008 F
     orb,it,eci,eold,eci-eold=                    4                   85  -1.1252151922535161       -1.1252149388770061       -2.5337650999546213E-007 F
     orb,it,eci,eold,eci-eold=                    4                   86  -1.1252153318202827       -1.1252151922535161       -1.3956676658821721E-007 F
     orb,it,eci,eold,eci-eold=                    4                   87  -1.1252154021668561       -1.1252153318202827       -7.0346573455282169E-008 F
     orb,it,eci,eold,eci-eold=                    4                   88  -1.1252156352398388       -1.1252154021668561       -2.3307298269159560E-007 F
     orb,it,eci,eold,eci-eold=                    4                   89  -1.1252157361915875       -1.1252156352398388       -1.0095174873825385E-007 F
     orb,it,eci,eold,eci-eold=                    4                   90  -1.1252157796586224       -1.1252157361915875       -4.3467034860356080E-008 F
     orb,it,eci,eold,eci-eold=                    4                   91  -1.1252159800548682       -1.1252157796586224       -2.0039624581968951E-007 F
     orb,it,eci,eold,eci-eold=                    4                   92  -1.1252161120603867       -1.1252159800548682       -1.3200551851610953E-007 F
     orb,it,eci,eold,eci-eold=                    4                   93  -1.1252161698291383       -1.1252161120603867       -5.7768751560161036E-008 F
     orb,it,eci,eold,eci-eold=                    4                   94  -1.1252163373781991       -1.1252161698291383       -1.6754906084770482E-007 F
     orb,it,eci,eold,eci-eold=                    4                   95  -1.1252164065069765       -1.1252163373781991       -6.9128777369087402E-008 F
     orb,it,eci,eold,eci-eold=                    4                   96  -1.1252164446254906       -1.1252164065069765       -3.8118514122942315E-008 F
     orb,it,eci,eold,eci-eold=                    4                   97  -1.1252166051977297       -1.1252164446254906       -1.6057223906074114E-007 F
     orb,it,eci,eold,eci-eold=                    4                   98  -1.1252166929942011       -1.1252166051977297       -8.7796471426315748E-008 F
     orb,it,eci,eold,eci-eold=                    4                   99  -1.1252167248343794       -1.1252166929942011       -3.1840178271735908E-008 F
     orb,it,eci,eold,eci-eold=                    4                  100  -1.1252168468163384       -1.1252167248343794       -1.2198195897816788E-007 F
     orb,it,eci,eold,eci-eold=                    4                  101  -1.1252169152741898       -1.1252168468163384       -6.8457851387648816E-008 F
     orb,it,eci,eold,eci-eold=                    4                  102  -1.1252169497217948       -1.1252169152741898       -3.4447604990717196E-008 F
     orb,it,eci,eold,eci-eold=                    4                  103  -1.1252170617070767       -1.1252169497217948       -1.1198528193645529E-007 F
     orb,it,eci,eold,eci-eold=                    4                  104  -1.1252171085912619       -1.1252170617070767       -4.6884185200823936E-008 F
     orb,it,eci,eold,eci-eold=                    4                  105  -1.1252171289898494       -1.1252171085912619       -2.0398587485814801E-008 F
     orb,it,eci,eold,eci-eold=                    4                  106  -1.1252172222089807       -1.1252171289898494       -9.3219131303001745E-008 F
     orb,it,eci,eold,eci-eold=                    4                  107  -1.1252172776927181       -1.1252172222089807       -5.5483737382289178E-008 F
     orb,it,eci,eold,eci-eold=                    4                  108  -1.1252173019903973       -1.1252172776927181       -2.4297679201978895E-008 F
     orb,it,eci,eold,eci-eold=                    4                  109  -1.1252173839869342       -1.1252173019903973       -8.1996536893669258E-008 F
     orb,it,eci,eold,eci-eold=                    4                  110  -1.1252174259273751       -1.1252173839869342       -4.1940440898002862E-008 F
     orb,it,eci,eold,eci-eold=                    4                  111  -1.1252174457732627       -1.1252174259273751       -1.9845887599956313E-008 F
     orb,it,eci,eold,eci-eold=                    4                  112  -1.1252175161828213       -1.1252174457732627       -7.0409558627915203E-008 F
     orb,it,eci,eold,eci-eold=                    4                  113  -1.1252175480458679       -1.1252175161828213       -3.1863046645597137E-008 F
     orb,it,eci,eold,eci-eold=                    4                  114  -1.1252175613764697       -1.1252175480458679       -1.3330601733585468E-008 F
     orb,it,eci,eold,eci-eold=                    4                  115  -1.1252176188909315       -1.1252175613764697       -5.7514461859753396E-008 F
     orb,it,eci,eold,eci-eold=                    4                  116  -1.1252176509664227       -1.1252176188909315       -3.2075491152028235E-008 F
     orb,it,eci,eold,eci-eold=                    4                  117  -1.1252176649440535       -1.1252176509664227       -1.3977630830552812E-008 F
     orb,it,eci,eold,eci-eold=                    4                  118  -1.1252177141451631       -1.1252176649440535       -4.9201109630914175E-008 F
     orb,it,eci,eold,eci-eold=                    4                  119  -1.1252177393448342       -1.1252177141451631       -2.5199671016551406E-008 F
     orb,it,eci,eold,eci-eold=                    4                  120  -1.1252177514836808       -1.1252177393448342       -1.2138846594567099E-008 F
     orb,it,eci,eold,eci-eold=                    4                  121  -1.1252177951360616       -1.1252177514836808       -4.3652380821157521E-008 F
     orbital   4 current e=  0.851255E+00 error=0.201E+00 (eci= -0.112521780E+01 error=0.437E-07) iterations 121(   0 preconditioned, Ep,Sp= 20.0  200.0)
     orb,it,eci,eold,eci-eold=                    4                    1  -1.1252180057343097       -1.1252177951360616       -2.1059824817371009E-007 F
     orb,it,eci,eold,eci-eold=                    4                    2  -1.1252181010174145       -1.1252180057343097       -9.5283104739607438E-008 F
     orb,it,eci,eold,eci-eold=                    4                    3  -1.1252181428840995       -1.1252181010174145       -4.1866685007718729E-008 F
     orb,it,eci,eold,eci-eold=                    4                    4  -1.1252181428840995       -1.1252181428840995        0.0000000000000000      F
     orbital   4 current e=  0.850769E+00 error=0.486E-03 (eci= -0.112521814E+01 error=0.000E+00) iterations   4(   0 preconditioned, Ep,Sp= 20.0  200.0)
     orb,it,eci,eold,eci-eold=                    4                    1  -1.1252181549723592       -1.1252181421255971       -1.2846762098561726E-008 F
     orb,it,eci,eold,eci-eold=                    4                    2  -1.1252181577520335       -1.1252181549723592       -2.7796742685382014E-009 F
     orb,it,eci,eold,eci-eold=                    4                    3  -1.1252182664601409       -1.1252181577520335       -1.0870810740470915E-007 F
     orb,it,eci,eold,eci-eold=                    4                    4  -1.1252182870176646       -1.1252182664601409       -2.0557523683351064E-008 F
     orb,it,eci,eold,eci-eold=                    4                    5  -1.1252182952985659       -1.1252182870176646       -8.2809012980078478E-009 F
     orb,it,eci,eold,eci-eold=                    4                    6  -1.1252182962645445       -1.1252182952985659       -9.6597863041836263E-010 F
     orbital   4 current e=  0.850643E+00 error=0.126E-03 (eci= -0.112521830E+01 error=0.966E-09) iterations   6(   0 preconditioned, Ep,Sp= 20.0  200.0)

 virtual orbital energies:
     0.8506430E+00 (  23.147eV)
     0.8506285E+00 (  23.147eV)
     0.8343511E+00 (  22.704eV)
     0.4417300E+00 (  12.020eV)


 == Generating One-Electron and Two-Electron Integrals ==

 begin_one_electron_integrals
    1    1        -1.1564692039
    2    1         0.0000002363
    3    1        -0.1580828210
    4    1         0.0000000439
    5    1        -0.0000000000
    2    2        -0.5912703236
    3    2         0.0000008244
    4    2        -0.0000000823
    5    2         0.0000000003
    3    3        -0.1383232699
    4    3         0.0000143006
    5    3         0.0000000001
    4    4        -0.1764970562
    5    4        -0.0000001678
    5    5        -0.1764895400
 end_one_electron_integrals

 begin_two_electron_integrals
    1    1    1    1        0.6055420468
    1    1    2    1       -0.0000001930
    1    1    3    1        0.1580757330
    1    1    4    1       -0.0000000433
    1    1    5    1        0.0000000000
    1    1    2    2        0.5967823589
    1    1    3    2        0.0000007918
    1    1    4    2       -0.0000000669
    1    1    5    2        0.0000000002
    1    1    3    3        0.5451710525
    1    1    4    3        0.0000048737
    1    1    5    3       -0.0000000000
    1    1    4    4        0.5666969357
    1    1    5    4       -0.0000000447
    1    1    5    5        0.5667007255
    2    1    2    1        0.1605644343
    2    1    3    1        0.0000001923
    2    1    4    1       -0.0000000144
    2    1    5    1        0.0000000001
    2    1    2    2       -0.0000002880
    2    1    3    2        0.0225405266
    2    1    4    2       -0.0000122248
    2    1    5    2        0.0000000000
    2    1    3    3        0.0000008796
    2    1    4    3       -0.0000000544
    2    1    5    3        0.0000000001
    2    1    4    4       -0.0000001970
    2    1    5    4        0.0000000019
    2    1    5    5       -0.0000001555
    3    1    3    1        0.1176677838
    3    1    4    1        0.0000011356
    3    1    5    1        0.0000000000
    3    1    2    2        0.1336175947
    3    1    3    2        0.0000006578
    3    1    4    2       -0.0000000525
    3    1    5    2        0.0000000001
    3    1    3    3        0.1527368907
    3    1    4    3        0.0000012740
    3    1    5    3        0.0000000000
    3    1    4    4        0.1242624496
    3    1    5    4       -0.0000000260
    3    1    5    5        0.1242627210
    4    1    4    1        0.1062683226
    4    1    5    1       -0.0000000114
    4    1    2    2       -0.0000050782
    4    1    3    2       -0.0000000216
    4    1    4    2       -0.0000000600
    4    1    5    2        0.0000000014
    4    1    3    3        0.0000006422
    4    1    4    3        0.0099287124
    4    1    5    3       -0.0000000235
    4    1    4    4        0.0000082224
    4    1    5    4       -0.0000000000
    4    1    5    5        0.0000032357
    5    1    5    1        0.1062688905
    5    1    2    2        0.0000000000
    5    1    3    2        0.0000000001
    5    1    4    2        0.0000000007
    5    1    5    2       -0.0000000370
    5    1    3    3        0.0000000000
    5    1    4    3       -0.0000000087
    5    1    5    3        0.0099286326
    5    1    4    4       -0.0000000000
    5    1    5    4        0.0000066913
    5    1    5    5       -0.0000000000
    2    2    2    2        0.6342737721
    2    2    3    2        0.0000007792
    2    2    4    2       -0.0000000235
    2    2    5    2        0.0000000002
    2    2    3    3        0.5212898736
    2    2    4    3        0.0000067967
    2    2    5    3        0.0000000000
    2    2    4    4        0.5409615894
    2    2    5    4       -0.0000000416
    2    2    5    5        0.5409656294
    3    2    3    2        0.0377512959
    3    2    4    2        0.0000014956
    3    2    5    2        0.0000000000
    3    2    3    3        0.0000008009
    3    2    4    3       -0.0000000257
    3    2    5    3        0.0000000000
    3    2    4    4        0.0000006598
    3    2    5    4       -0.0000000001
    3    2    5    5        0.0000006610
    4    2    4    2        0.0375933545
    4    2    5    2       -0.0000000065
    4    2    3    3       -0.0000000803
    4    2    4    3        0.0000000543
    4    2    5    3       -0.0000000003
    4    2    4    4       -0.0000001008
    4    2    5    4        0.0000000000
    4    2    5    5       -0.0000000691
    5    2    5    2        0.0375940567
    5    2    3    3        0.0000000002
    5    2    4    3       -0.0000000001
    5    2    5    3        0.0000000529
    5    2    4    4        0.0000000002
    5    2    5    4       -0.0000000146
    5    2    5    5        0.0000000002
    3    3    3    3        0.5217272123
    3    3    4    3        0.0000035076
    3    3    5    3        0.0000000000
    3    3    4    4        0.5029061029
    3    3    5    4       -0.0000000365
    3    3    5    5        0.5029088320
    4    3    4    3        0.0263094765
    4    3    5    3        0.0000000000
    4    3    4    4        0.0000044509
    4    3    5    4       -0.0000000000
    4    3    5    5        0.0000031877
    5    3    5    3        0.0263086762
    5    3    4    4       -0.0000000001
    5    3    5    4        0.0000000344
    5    3    5    5       -0.0000000001
    4    4    4    4        0.5879828795
    4    4    5    4       -0.0000000412
    4    4    5    5        0.5290259381
    5    4    5    4        0.0314735425
    5    4    5    5       -0.0000000410
    5    5    5    5        0.5879914815
 end_two_electron_integrals


 output epsi filename:./pspw_hf_H2.emovecs

 Total PSPW energy     :  -0.1119421640E+01


=== Spin Contamination ===

 <Sexact^2> =    0.0000000000000000     
 <S^2>      =    0.0000000000000000     



== Center of Charge ==

spin up     (    0.0000,    0.0000,   -0.0000 )
spin down   (    0.0000,    0.0000,   -0.0000 )
     total  (    0.0000,    0.0000,   -0.0000 )
ionic       (    0.0000,    0.0000,    0.0000 )


== Molecular Dipole wrt Center of Mass ==

mu   =  (   -0.0000,   -0.0000,    0.0000 ) au
|mu| =     0.0000 au,       0.0000 Debye

 output psi filename:./pspw_hf_H2.movecs

 Writing Crystallographic Information File:./H2.cif
   - cell not shifted (nwpw:cif_shift_cell .false.)


== Timing ==

cputime in seconds
  prologue    :   0.602091E+01
  main loop   :   0.134900E+03
  epilogue    :   0.187559E-01
  total       :   0.140940E+03
  cputime/step:   0.899335E+00       (     150 evalulations,      61 linesearches)


Time spent doing                        total          step       percent
  total time                 :   0.140952E+03  0.939677E+00       100.0 %
  i/o time                   :   0.184827E+00  0.123218E-02         0.1 %
  FFTs                       :   0.958156E+02  0.638771E+00        68.0 %
  dot products               :   0.421851E+01  0.281234E-01         3.0 %
  geodesic                   :   0.583757E-01  0.389171E-03         0.0 %
  ffm_dgemm                  :   0.823672E-02  0.549115E-04         0.0 %
  fmf_dgemm                  :   0.659829E-02  0.439886E-04         0.0 %
  mmm_dgemm                  :   0.261040E-02  0.174027E-04         0.0 %
  m_diagonalize              :   0.125526E-02  0.836840E-05         0.0 %
  local pseudopotentials     :   0.194627E+01  0.129751E-01         1.4 %
  non-local pseudopotentials :   0.385663E+01  0.257109E-01         2.7 %
  structure factors          :   0.231230E+00  0.154153E-02         0.2 %
  phase factors              :   0.924900E-05  0.616600E-07         0.0 %
  masking and packing        :   0.201442E+01  0.134295E-01         1.4 %
  queue fft                  :   0.307665E+01  0.205110E-01         2.2 %
  queue fft (serial)         :   0.115809E+01  0.772058E-02         0.8 %
  queue fft (message passing):   0.190204E+01  0.126803E-01         1.3 %
  HFX potential              :   0.293059E+01  0.195373E-01         2.1 %
  non-local psp FFM          :   0.367898E+01  0.245265E-01         2.6 %
  non-local psp FMF          :   0.378715E-01  0.252477E-03         0.0 %
  non-local psp FFM A        :   0.167430E-01  0.111620E-03         0.0 %
  non-local psp FFM B        :   0.555138E-01  0.370092E-03         0.0 %

== HFX Counters ==
  HFX Evalulations         =   150
  Lin ACE HFX Evalulations =     0


     >>>  JOB COMPLETED     AT Mon Apr  7 09:28:32 2025  <<<

 Task  times  cpu:      131.1s     wall:      141.0s


                                NWChem Input Module
                                -------------------


 Summary of allocated global arrays
-----------------------------------
  No active global arrays


MA_summarize_allocated_blocks: starting scan ...
MA_summarize_allocated_blocks: scan completed: 0 heap blocks, 0 stack blocks
MA usage statistics:

	allocation statistics:
					      heap	     stack
					      ----	     -----
	current number of blocks	         0	         0
	maximum number of blocks	       313	        36
	current total bytes		         0	         0
	maximum total bytes		  16119392	   5334664
	maximum total K-bytes		     16120	      5335
	maximum total M-bytes		        17	         6


                                     CITATION
                                     --------
                Please cite the following reference when publishing
                           results obtained with NWChem:

          E. Apra, E. J. Bylaska, W. A. de Jong, N. Govind, K. Kowalski,
       T. P. Straatsma, M. Valiev, H. J. J. van Dam, Y. Alexeev, J. Anchell,
       V. Anisimov, F. W. Aquino, R. Atta-Fynn, J. Autschbach, N. P. Bauman,
     J. C. Becca, D. E. Bernholdt, K. Bhaskaran-Nair, S. Bogatko, P. Borowski,
         J. Boschen, J. Brabec, A. Bruner, E. Cauet, Y. Chen, G. N. Chuev,
      C. J. Cramer, J. Daily, M. J. O. Deegan, T. H. Dunning Jr., M. Dupuis,
   K. G. Dyall, G. I. Fann, S. A. Fischer, A. Fonari, H. Fruchtl, L. Gagliardi,
      J. Garza, N. Gawande, S. Ghosh, K. Glaesemann, A. W. Gotz, J. Hammond,
       V. Helms, E. D. Hermes, K. Hirao, S. Hirata, M. Jacquelin, L. Jensen,
   B. G. Johnson, H. Jonsson, R. A. Kendall, M. Klemm, R. Kobayashi, V. Konkov,
      S. Krishnamoorthy, M. Krishnan, Z. Lin, R. D. Lins, R. J. Littlefield,
      A. J. Logsdail, K. Lopata, W. Ma, A. V. Marenich, J. Martin del Campo,
   D. Mejia-Rodriguez, J. E. Moore, J. M. Mullin, T. Nakajima, D. R. Nascimento,
    J. A. Nichols, P. J. Nichols, J. Nieplocha, A. Otero-de-la-Roza, B. Palmer,
    A. Panyala, T. Pirojsirikul, B. Peng, R. Peverati, J. Pittner, L. Pollack,
   R. M. Richard, P. Sadayappan, G. C. Schatz, W. A. Shelton, D. W. Silverstein,
   D. M. A. Smith, T. A. Soares, D. Song, M. Swart, H. L. Taylor, G. S. Thomas,
            V. Tipparaju, D. G. Truhlar, K. Tsemekhman, T. Van Voorhis,
      A. Vazquez-Mayagoitia, P. Verma, O. Villa, A. Vishnu, K. D. Vogiatzis,
        D. Wang, J. H. Weare, M. J. Williamson, T. L. Windus, K. Wolinski,
        A. T. Wong, Q. Wu, C. Yang, Q. Yu, M. Zacharias, Z. Zhang, Y. Zhao,
                                and R. J. Harrison
                        "NWChem: Past, present, and future
                         J. Chem. Phys. 152, 184102 (2020)
                               doi:10.1063/5.0004997

                                      AUTHORS
                                      -------
  E. Apra, E. J. Bylaska, N. Govind, K. Kowalski, M. Valiev, D. Mejia-Rodriguez,
       A. Kunitsa, N. P. Bauman, A. Panyala, W. A. de Jong, T. P. Straatsma,
   H. J. J. van Dam, D. Wang, T. L. Windus, J. Hammond, J. Autschbach, A. Woods,
    K. Bhaskaran-Nair, J. Brabec, K. Lopata, S. A. Fischer, S. Krishnamoorthy,
     M. Jacquelin, W. Ma, M. Klemm, O. Villa, Y. Chen, V. Anisimov, F. Aquino,
     S. Hirata, M. T. Hackler, E. Hermes, L. Jensen, J. E. Moore, J. C. Becca,
      V. Konjkov, T. Risthaus, M. Malagoli, A. Marenich, A. Otero-de-la-Roza,
        J. Mullin, P. Nichols, R. Peverati, J. Pittner, Y. Zhao, P.-D. Fan,
        A. Fonari, M. J. Williamson, R. J. Harrison, J. R. Rehr, M. Dupuis,
     D. Silverstein, D. M. A. Smith, J. Nieplocha, V. Tipparaju, M. Krishnan,
     B. E. Van Kuiken, A. Vazquez-Mayagoitia, M. Swart, Q. Wu, T. Van Voorhis,
     A. A. Auer, M. Nooijen, L. D. Crosby, E. Brown, G. Cisneros, G. I. Fann,
   H. Fruchtl, J. Garza, K. Hirao, R. A. Kendall, J. A. Nichols, K. Tsemekhman,
    K. Wolinski, J. Anchell, D. E. Bernholdt, P. Borowski, T. Clark, D. Clerc,
   H. Dachsel, M. J. O. Deegan, K. Dyall, D. Elwood, E. Glendening, M. Gutowski,
   A. C. Hess, J. Jaffe, B. G. Johnson, J. Ju, R. Kobayashi, R. Kutteh, Z. Lin,
   R. Littlefield, X. Long, B. Meng, T. Nakajima, S. Niu, L. Pollack, M. Rosing,
   K. Glaesemann, G. Sandrone, M. Stave, H. Taylor, G. Thomas, J. H. van Lenthe,
                               A. T. Wong, Z. Zhang.

 Total times  cpu:      131.1s     wall:      141.2s
