 argument  1 = H2-6.0.nw



============================== echo of input deck ==============================
title "swnc: e theory=pspw4 xc=hf formula=H2 charge=0 mult=1"
#machinejob:expert

echo

start pspw_hf_H2

memory heap 1200 mb stack 1200 mb global 10 mb

charge 0

geometry
H    0.00000    0.00000   -3.00000
H    0.00000    0.00000    3.00000
end

nwpw
  ### pseudopotential block begin ###
  ### pseudopotential block end   ###
  simulation_cell
     SC 15.0000
     boundary_conditions aperiodic
  end

  cutoff 50.0
  mult 1
  xc hf
  lmbfgs
  tolerances 1.0e-9 1.0e-9

  virtual 4
end
set nwpw:cif_filename H2

#set nwpw:CI_maxit_orb 15
#set nwpw:CI_maxit_linesearch 15
set pspw:HFX_screening_radius 14.0


set nwpw:2qintegrals .true.
set nwpw:3x3_virtual .true.

task pspw energy
================================================================================


                                         
                                         


             Northwest Computational Chemistry Package (NWChem) 7.2.3
             --------------------------------------------------------


                    Environmental Molecular Sciences Laboratory
                       Pacific Northwest National Laboratory
                                Richland, WA 99352

                              Copyright (c) 1994-2022
                       Pacific Northwest National Laboratory
                            Battelle Memorial Institute

             NWChem is an open-source computational chemistry package
                        distributed under the terms of the
                      Educational Community License (ECL) 2.0
             A copy of the license is included with this distribution
                              in the LICENSE.TXT file

                                  ACKNOWLEDGMENT
                                  --------------

            This software and its documentation were developed at the
            EMSL at Pacific Northwest National Laboratory, a multiprogram
            national laboratory, operated for the U.S. Department of Energy
            by Battelle under Contract Number DE-AC05-76RL01830. Support
            for this work was provided by the Department of Energy Office
            of Biological and Environmental Research, Office of Basic
            Energy Sciences, and the Office of Advanced Scientific Computing.


           Job information
           ---------------

    hostname        = mqs-al
    program         = nwchem
    date            = Sat Apr  5 14:38:11 2025

    compiled        = Thu_Oct_31_08:55:15_2024
    source          = /home/conda/feedstock_root/build_artifacts/nwchem_1730356057992/work
    nwchem branch   = 7.2.3
    nwchem revision = c400b04
    ga revision     = 5.8.0
    use scalapack   = T
    input           = H2-6.0.nw
    prefix          = pspw_hf_H2.
    data base       = ./pspw_hf_H2.db
    status          = startup
    nproc           =       24
    time left       =     -1s



           Memory information
           ------------------

    heap     =  157286398 doubles =   1200.0 Mbytes
    stack    =  157286395 doubles =   1200.0 Mbytes
    global   =    1310720 doubles =     10.0 Mbytes (distinct from heap & stack)
    total    =  315883513 doubles =   2410.0 Mbytes
    verify   = yes
    hardfail = no 


           Directory information
           ---------------------

  0 permanent = .
  0 scratch   = .




                                NWChem Input Module
                                -------------------


               swnc: e theory=pspw4 xc=hf formula=H2 charge=0 mult=1
               -----------------------------------------------------

 Scaling coordinates for geometry "geometry" by  1.889725989
 (inverse scale =  0.529177249)

  zeroes
  zeroes
  zeroes
  zeroes
  zeroes
  zeroes
  zeroes
  zeroes
  zeroes
  zeroes
  zeroes
  zeroes
  zeroes
  zeroes
  zeroes
  zeroes
  zeroes
  zeroes
  zeroes
  zeroes
  zeroes
  zeroes
  zeroes
  zeroes
  zeroes
  zeroes
  zeroes
  zeroes
  zeroes
  zeroes
  zeroes
  zeroes
  zeroes
  zeroes
  zeroes
  zeroes
  zeroes
  zeroes
  zeroes
  zeroes
  zeroes
  zeroes
  zeroes
  zeroes
  zeroes
  zeroes
  zeroes
  zeroes
 ORDER OF PRIMARY AXIS IS BEING SET TO 4
 D4H symmetry detected

          ------
          auto-z
          ------
     1 autoz failed with cvr_scaling = 1.2 changing to 1.3
     2 autoz failed with cvr_scaling = 1.3 changing to 1.4
     3 autoz failed with cvr_scaling = 1.4 changing to 1.5
     4 autoz failed with cvr_scaling = 1.5 changing to 1.6
     5 autoz failed with cvr_scaling = 1.6 changing to 1.7

 AUTOZ failed to generate good internal coordinates.
 Cartesian coordinates will be used in optimizations.



                             Geometry "geometry" -> ""
                             -------------------------

 Output coordinates in angstroms (scale by  1.889725989 to convert to a.u.)

  No.       Tag          Charge          X              Y              Z
 ---- ---------------- ---------- -------------- -------------- --------------
    1 H                    1.0000     0.00000000     0.00000000    -3.00000000
    2 H                    1.0000     0.00000000     0.00000000     3.00000000

      Atomic Mass 
      ----------- 

      H                  1.007825


 Effective nuclear repulsion energy (a.u.)       0.0881962082

            Nuclear Dipole moment (a.u.) 
            ----------------------------
        X                 Y               Z
 ---------------- ---------------- ----------------
     0.0000000000     0.0000000000     0.0000000000

      Symmetry information
      --------------------

 Group name             D4h       
 Group number             28
 Group order              16
 No. of unique centers     1

      Symmetry unique atoms

     1


            XYZ format geometry
            -------------------
     2
 geometry
 H                     0.00000000     0.00000000    -3.00000000
 H                     0.00000000     0.00000000     3.00000000

          ****************************************************
          *                                                  *
          *               NWPW PSPW Calculation              *
          *                                                  *
          * [ (Grassmann/Stiefel manifold implementation)  ] *
          *                                                  *
          *      [ NorthWest Chemistry implementation ]      *
          *                                                  *
          *            version #5.10   06/12/02              *
          *                                                  *
          *    This code was developed by Eric J. Bylaska,   *
          *    and was based upon algorithms and code        *
          *    developed by the group of Prof. John H. Weare *
          *                                                  *
          ****************************************************
     >>>  JOB STARTED       AT Sat Apr  5 14:38:11 2025  <<<
          ================ input data ========================

 input psi filename:./pspw_hf_H2.movecs

 number of processors used:        24
 processor grid           :  24 x   1
 parallel mapping         :2d-hilbert
 parallel mapping         :  balanced
 number of threads        :         1
 parallel io              :       off

 options:
      boundary conditions  = aperiodic   (version4)
      electron spin        = restricted
      exchange-correlation = Hartree-Fock
      - HFX relaxed
      - HFX restricted orbitals :    1
      - HFX free-space coulomb solver


 elements involved in the cluster:
      1: H   valence charge:  1.0000  lmax=  1
             comment    : Parameterized (Chem.Phys.Lett., vol 322, page 447) Hamman psp
             pseudpotential type            :   0
             highest angular component      :   1
             local potential used           :   1
             number of non-local projections:   1
             aperiodic cutoff radius        :  1.000
             cutoff =   0.800   0.800


 total charge:   0.000

 atomic composition:
     H   :    2

 number of electrons: spin up=     1 (   1 per task)  down=     1 (   1 per task) (Fourier space)
 number of orbitals : spin up=     1 (   1 per task)  down=     1 (   1 per task) (Fourier space)

 supercell:
      cell_name:  cell_default                                      
      lattice:    a1=<  15.000   0.000   0.000 >
                  a2=<   0.000  15.000   0.000 >
                  a3=<   0.000   0.000  15.000 >
      reciprocal: b1=<   0.419   0.000   0.000 >
                  b2=<   0.000   0.419   0.000 >
                  b3=<   0.000   0.000   0.419 >
      lattice:    a=      15.000 b=     15.000 c=      15.000
                  alpha=  90.000 beta=  90.000 gamma=  90.000
                  omega=      3375.0

      density cutoff=100.000  fft= 70x 70x 70(    80618 waves     3359 per task)
      wavefnc cutoff= 50.000  fft= 70x 70x 70(    28526 waves     1188 per task)

 technical parameters:
      time step=      5.80     fictitious mass=  400000.0
      tolerance=0.100E-08 (energy)   0.100E-08 (density)
      maximum iterations =      1000 (   10 inner    100 outer )





== Energy Calculation ==


          ============ Grassmann lmbfgs iteration ============
     >>>  ITERATION STARTED AT Sat Apr  5 14:38:17 2025  <<<
    iter.           Energy         DeltaE       DeltaRho 
    ------------------------------------------------------
      10   -0.8263271560E+00   -0.52458E-02    0.25528E-01
     -  10 steepest descent iterations performed
      20   -0.8402775964E+00   -0.40904E-03    0.14475E-03
      30   -0.8411440362E+00   -0.19438E-04    0.23423E-04
      40   -0.8412054809E+00   -0.13054E-05    0.53552E-06
      50   -0.8412102333E+00   -0.16386E-06    0.10470E-07
      60   -0.8412105918E+00   -0.70608E-08    0.20971E-08
      70   -0.8412106179E+00   -0.72011E-09    0.14551E-09
  *** tolerance ok. iteration terminated
     >>>  ITERATION ENDED   AT Sat Apr  5 14:38:24 2025  <<<


==  Summary Of Results  ==

 number of electrons: spin up=    1.00000  down=    1.00000 (real space)

 total     energy    :  -0.8412106179E+00 (   -0.42061E+00/ion)
 total orbital energy:  -0.6214872580E+00 (   -0.62149E+00/electron)
 hartree   energy    :   0.6158391362E+00 (    0.61584E+00/electron)
 exc-corr  energy    :   0.0000000000E+00 (    0.00000E+00/electron)
 HF exchange energy  :  -0.3079195681E+00 (   -0.30792E+00/electron)
 ion-ion   energy    :   0.8819620817E-01 (    0.44098E-01/ion)

 kinetic (planewave) :   0.6010193521E+00 (    0.60102E+00/electron)
 V_local (planewave) :  -0.1687738451E+01 (   -0.16877E+01/electron)
 V_nl    (planewave) :  -0.1506072957E+00 (   -0.15061E+00/electron)
 V_Coul  (planewave) :   0.1231678272E+01 (    0.12317E+01/electron)
 V_xc.   (planewave) :   0.0000000000E+00 (    0.00000E+00/electron)
 K.S. HFX energy     :  -0.6158391362E+00 (   -0.61584E+00/electron)
 Virial Coefficient  :  -0.1009397571E+01

 orbital energies:
    -0.3107436E+00 (  -8.456eV)


== Virtual Orbital Calculation ==


 input epsi filename:./pspw_hf_H2.emovecs

 COVOs Mimimization
 ------------------
CI gradient algorithm =         3
maxit_sweeps          =         3
maxit_orb             =       120
maxit_linesearch      =        15
maxerror              = 0.100E-08

     orb,it,eci,eold,eci-eold=                    1                    1 -0.88250824847235321      -0.88096150282222629       -1.5467456501269128E-003 F
     orb,it,eci,eold,eci-eold=                    1                    2 -0.88859939629172491      -0.88250824847235321       -6.0911478193717006E-003 F
     orb,it,eci,eold,eci-eold=                    1                    3 -0.89311500566062230      -0.88859939629172491       -4.5156093688973886E-003 F
     orb,it,eci,eold,eci-eold=                    1                    4 -0.90113879181309542      -0.89311500566062230       -8.0237861524731224E-003 F
     orb,it,eci,eold,eci-eold=                    1                    5 -0.90961780018465133      -0.90113879181309542       -8.4790083715559073E-003 F
     orb,it,eci,eold,eci-eold=                    1                    6 -0.91182181989397393      -0.90961780018465133       -2.2040197093226022E-003 F
     orb,it,eci,eold,eci-eold=                    1                    7 -0.91317374826194142      -0.91182181989397393       -1.3519283679674921E-003 F
     orb,it,eci,eold,eci-eold=                    1                    8 -0.92160553797743949      -0.91317374826194142       -8.4317897154980725E-003 F
     orb,it,eci,eold,eci-eold=                    1                    9 -0.92904566760577811      -0.92160553797743949       -7.4401296283386209E-003 F
     orb,it,eci,eold,eci-eold=                    1                   10 -0.92970521585390764      -0.92904566760577811       -6.5954824812952673E-004 F
     orb,it,eci,eold,eci-eold=                    1                   11 -0.93105801363392060      -0.92970521585390764       -1.3527977800129598E-003 F
     orb,it,eci,eold,eci-eold=                    1                   12 -0.93221575395845790      -0.93105801363392060       -1.1577403245373041E-003 F
     orb,it,eci,eold,eci-eold=                    1                   13 -0.94188094785495580      -0.93221575395845790       -9.6651938964978923E-003 F
     orb,it,eci,eold,eci-eold=                    1                   14 -0.95826308596314647      -0.94188094785495580       -1.6382138108190669E-002 F
     orb,it,eci,eold,eci-eold=                    1                   15 -0.95969273891348927      -0.95826308596314647       -1.4296529503428079E-003 F
     orb,it,eci,eold,eci-eold=                    1                   16 -0.96021554848462243      -0.95969273891348927       -5.2280957113315374E-004 F
     orb,it,eci,eold,eci-eold=                    1                   17 -0.97155283197454223      -0.96021554848462243       -1.1337283489919803E-002 F
     orb,it,eci,eold,eci-eold=                    1                   18 -0.97622381810402414      -0.97155283197454223       -4.6709861294819133E-003 F
     orb,it,eci,eold,eci-eold=                    1                   19 -0.97773282115963589      -0.97622381810402414       -1.5090030556117462E-003 F
     orb,it,eci,eold,eci-eold=                    1                   20 -0.97815587074867039      -0.97773282115963589       -4.2304958903449652E-004 F
     orb,it,eci,eold,eci-eold=                    1                   21 -0.97823182228484884      -0.97815587074867039       -7.5951536178453516E-005 F
     orb,it,eci,eold,eci-eold=                    1                   22 -0.97852926868456602      -0.97823182228484884       -2.9744639971718279E-004 F
     orb,it,eci,eold,eci-eold=                    1                   23 -0.97899521249365140      -0.97852926868456602       -4.6594380908537847E-004 F
     orb,it,eci,eold,eci-eold=                    1                   24 -0.97952823134577871      -0.97899521249365140       -5.3301885212730937E-004 F
     orb,it,eci,eold,eci-eold=                    1                   25 -0.97965644797670814      -0.97952823134577871       -1.2821663092943414E-004 F
     orb,it,eci,eold,eci-eold=                    1                   26 -0.97987158931877727      -0.97965644797670814       -2.1514134206912505E-004 F
     orb,it,eci,eold,eci-eold=                    1                   27 -0.97994937554426387      -0.97987158931877727       -7.7786225486597971E-005 F
     orb,it,eci,eold,eci-eold=                    1                   28 -0.97999601858297725      -0.97994937554426387       -4.6643038713378715E-005 F
     orb,it,eci,eold,eci-eold=                    1                   29 -0.98022219231733732      -0.97999601858297725       -2.2617373436006893E-004 F
     orb,it,eci,eold,eci-eold=                    1                   30 -0.98025773545263162      -0.98022219231733732       -3.5543135294302530E-005 F
     orb,it,eci,eold,eci-eold=                    1                   31 -0.98029250928543610      -0.98025773545263162       -3.4773832804479987E-005 F
     orb,it,eci,eold,eci-eold=                    1                   32 -0.98046378819152469      -0.98029250928543610       -1.7127890608858998E-004 F
     orb,it,eci,eold,eci-eold=                    1                   33 -0.98055780475665055      -0.98046378819152469       -9.4016565125865093E-005 F
     orb,it,eci,eold,eci-eold=                    1                   34 -0.98057864504199310      -0.98055780475665055       -2.0840285342549336E-005 F
     orb,it,eci,eold,eci-eold=                    1                   35 -0.98058455235189146      -0.98057864504199310       -5.9073098983564165E-006 F
     orb,it,eci,eold,eci-eold=                    1                   36 -0.98063848260691500      -0.98058455235189146       -5.3930255023537654E-005 F
     orb,it,eci,eold,eci-eold=                    1                   37 -0.98066433210440329      -0.98063848260691500       -2.5849497488295015E-005 F
     orb,it,eci,eold,eci-eold=                    1                   38 -0.98067392922875740      -0.98066433210440329       -9.5971243541104201E-006 F
     orb,it,eci,eold,eci-eold=                    1                   39 -0.98067798680315721      -0.98067392922875740       -4.0575743998072511E-006 F
     orb,it,eci,eold,eci-eold=                    1                   40 -0.98070780912336319      -0.98067798680315721       -2.9822320205985520E-005 F
     orb,it,eci,eold,eci-eold=                    1                   41 -0.98071409241846075      -0.98070780912336319       -6.2832950975533208E-006 F
     orb,it,eci,eold,eci-eold=                    1                   42 -0.98071506495507066      -0.98071409241846075       -9.7253660991114543E-007 F
     orb,it,eci,eold,eci-eold=                    1                   43 -0.98072671085640040      -0.98071506495507066       -1.1645901329737640E-005 F
     orb,it,eci,eold,eci-eold=                    1                   44 -0.98073305244098030      -0.98072671085640040       -6.3415845799053017E-006 F
     orb,it,eci,eold,eci-eold=                    1                   45 -0.98073622220255396      -0.98073305244098030       -3.1697615736625551E-006 F
     orb,it,eci,eold,eci-eold=                    1                   46 -0.98074787985136425      -0.98073622220255396       -1.1657648810281529E-005 F
     orb,it,eci,eold,eci-eold=                    1                   47 -0.98075428897911898      -0.98074787985136425       -6.4091277547362324E-006 F
     orb,it,eci,eold,eci-eold=                    1                   48 -0.98075878748993861      -0.98075428897911898       -4.4985108196282653E-006 F
     orb,it,eci,eold,eci-eold=                    1                   49 -0.98076111172112879      -0.98075878748993861       -2.3242311901761070E-006 F
     orb,it,eci,eold,eci-eold=                    1                   50 -0.98076508403634555      -0.98076111172112879       -3.9723152167603359E-006 F
     orb,it,eci,eold,eci-eold=                    1                   51 -0.98076717727425000      -0.98076508403634555       -2.0932379044547034E-006 F
     orb,it,eci,eold,eci-eold=                    1                   52 -0.98077047748462998      -0.98076717727425000       -3.3002103799750770E-006 F
     orb,it,eci,eold,eci-eold=                    1                   53 -0.98077247778476928      -0.98077047748462998       -2.0003001393043007E-006 F
     orb,it,eci,eold,eci-eold=                    1                   54 -0.98077447632965320      -0.98077247778476928       -1.9985448839188180E-006 F
     orb,it,eci,eold,eci-eold=                    1                   55 -0.98077454321201651      -0.98077447632965320       -6.6882363314313409E-008 F
     orb,it,eci,eold,eci-eold=                    1                   56 -0.98077471276939998      -0.98077454321201651       -1.6955738346702276E-007 F
     orb,it,eci,eold,eci-eold=                    1                   57 -0.98077593122618145      -0.98077471276939998       -1.2184567814710334E-006 F
     orb,it,eci,eold,eci-eold=                    1                   58 -0.98077761910892347      -0.98077593122618145       -1.6878827420185871E-006 F
     orb,it,eci,eold,eci-eold=                    1                   59 -0.98077838854606503      -0.98077761910892347       -7.6943714155675025E-007 F
     orb,it,eci,eold,eci-eold=                    1                   60 -0.98078000841355539      -0.98077838854606503       -1.6198674903655785E-006 F
     orb,it,eci,eold,eci-eold=                    1                   61 -0.98078092420582719      -0.98078000841355539       -9.1579227179394707E-007 F
     orb,it,eci,eold,eci-eold=                    1                   62 -0.98078139203815939      -0.98078092420582719       -4.6783233220715204E-007 F
     orb,it,eci,eold,eci-eold=                    1                   63 -0.98078158828720341      -0.98078139203815939       -1.9624904401549514E-007 F
     orb,it,eci,eold,eci-eold=                    1                   64 -0.98078264781152058      -0.98078158828720341       -1.0595243171707125E-006 F
     orb,it,eci,eold,eci-eold=                    1                   65 -0.98078324640310521      -0.98078264781152058       -5.9859158463293483E-007 F
     orb,it,eci,eold,eci-eold=                    1                   66 -0.98078366641430259      -0.98078324640310521       -4.2001119737733461E-007 F
     orb,it,eci,eold,eci-eold=                    1                   67 -0.98078377472979406      -0.98078366641430259       -1.0831549146494979E-007 F
     orb,it,eci,eold,eci-eold=                    1                   68 -0.98078419564069896      -0.98078377472979406       -4.2091090490803396E-007 F
     orb,it,eci,eold,eci-eold=                    1                   69 -0.98078432350550815      -0.98078419564069896       -1.2786480918514087E-007 F
     orb,it,eci,eold,eci-eold=                    1                   70 -0.98078441336494382      -0.98078432350550815       -8.9859435670192056E-008 F
     orb,it,eci,eold,eci-eold=                    1                   71 -0.98078484652878695      -0.98078441336494382       -4.3316384312763745E-007 F
     orb,it,eci,eold,eci-eold=                    1                   72 -0.98078502813546575      -0.98078484652878695       -1.8160667880628978E-007 F
     orb,it,eci,eold,eci-eold=                    1                   73 -0.98078508851324253      -0.98078502813546575       -6.0377776778253178E-008 F
     orb,it,eci,eold,eci-eold=                    1                   74 -0.98078540764856526      -0.98078508851324253       -3.1913532272387357E-007 F
     orb,it,eci,eold,eci-eold=                    1                   75 -0.98078556305694731      -0.98078540764856526       -1.5540838205208019E-007 F
     orb,it,eci,eold,eci-eold=                    1                   76 -0.98078563283472120      -0.98078556305694731       -6.9777773892276684E-008 F
     orb,it,eci,eold,eci-eold=                    1                   77 -0.98078591055117958      -0.98078563283472120       -2.7771645838559067E-007 F
     orb,it,eci,eold,eci-eold=                    1                   78 -0.98078596351278724      -0.98078591055117958       -5.2961607654999909E-008 F
     orb,it,eci,eold,eci-eold=                    1                   79 -0.98078599042926029      -0.98078596351278724       -2.6916473050420109E-008 F
     orb,it,eci,eold,eci-eold=                    1                   80 -0.98078627503984372      -0.98078599042926029       -2.8461058343420831E-007 F
     orb,it,eci,eold,eci-eold=                    1                   81 -0.98078630645608833      -0.98078627503984372       -3.1416244605786403E-008 F
     orb,it,eci,eold,eci-eold=                    1                   82 -0.98078632357296724      -0.98078630645608833       -1.7116878914258393E-008 F
     orb,it,eci,eold,eci-eold=                    1                   83 -0.98078654684173605      -0.98078632357296724       -2.2326876880640611E-007 F
     orb,it,eci,eold,eci-eold=                    1                   84 -0.98078658742889724      -0.98078654684173605       -4.0587161187488618E-008 F
     orb,it,eci,eold,eci-eold=                    1                   85 -0.98078660602046241      -0.98078658742889724       -1.8591565176251379E-008 F
     orb,it,eci,eold,eci-eold=                    1                   86 -0.98078676676378995      -0.98078660602046241       -1.6074332753746035E-007 F
     orb,it,eci,eold,eci-eold=                    1                   87 -0.98078685081563211      -0.98078676676378995       -8.4051842152987888E-008 F
     orb,it,eci,eold,eci-eold=                    1                   88 -0.98078695517761849      -0.98078685081563211       -1.0436198638608118E-007 F
     orb,it,eci,eold,eci-eold=                    1                   89 -0.98078695732015597      -0.98078695517761849       -2.1425374807648723E-009 F
     orb,it,eci,eold,eci-eold=                    1                   90 -0.98078696832453816      -0.98078695732015597       -1.1004382183266159E-008 F
     orb,it,eci,eold,eci-eold=                    1                   91 -0.98078703387427435      -0.98078696832453816       -6.5549736194547847E-008 F
     orb,it,eci,eold,eci-eold=                    1                   92 -0.98078705690384527      -0.98078703387427435       -2.3029570916932585E-008 F
     orb,it,eci,eold,eci-eold=                    1                   93 -0.98078706961262796      -0.98078705690384527       -1.2708782692882892E-008 F
     orb,it,eci,eold,eci-eold=                    1                   94 -0.98078713230992309      -0.98078706961262796       -6.2697295133418152E-008 F
     orb,it,eci,eold,eci-eold=                    1                   95 -0.98078715070742495      -0.98078713230992309       -1.8397501855282883E-008 F
     orb,it,eci,eold,eci-eold=                    1                   96 -0.98078715217791290      -0.98078715070742495       -1.4704879536253657E-009 F
     orb,it,eci,eold,eci-eold=                    1                   97 -0.98078719824286131      -0.98078715217791290       -4.6064948411306261E-008 F
     orb,it,eci,eold,eci-eold=                    1                   98 -0.98078724851382382      -0.98078719824286131       -5.0270962503873307E-008 F
     orb,it,eci,eold,eci-eold=                    1                   99 -0.98078727207660354      -0.98078724851382382       -2.3562779727370753E-008 F
     orb,it,eci,eold,eci-eold=                    1                  100 -0.98078730292915250      -0.98078727207660354       -3.0852548960069726E-008 F
     orb,it,eci,eold,eci-eold=                    1                  101 -0.98078731913611117      -0.98078730292915250       -1.6206958664000126E-008 F
     orb,it,eci,eold,eci-eold=                    1                  102 -0.98078734582185367      -0.98078731913611117       -2.6685742504639620E-008 F
     orb,it,eci,eold,eci-eold=                    1                  103 -0.98078735045798904      -0.98078734582185367       -4.6361353644996939E-009 F
     orb,it,eci,eold,eci-eold=                    1                  104 -0.98078735532709760      -0.98078735045798904       -4.8691085607899254E-009 F
     orb,it,eci,eold,eci-eold=                    1                  105 -0.98078737463908461      -0.98078735532709760       -1.9311987009551501E-008 F
     orb,it,eci,eold,eci-eold=                    1                  106 -0.98078737838653574      -0.98078737463908461       -3.7474511271895494E-009 F
     orb,it,eci,eold,eci-eold=                    1                  107 -0.98078738051748804      -0.98078737838653574       -2.1309523035029088E-009 F
     orb,it,eci,eold,eci-eold=                    1                  108 -0.98078740061335568      -0.98078738051748804       -2.0095867636626963E-008 F
     orb,it,eci,eold,eci-eold=                    1                  109 -0.98078741537223779      -0.98078740061335568       -1.4758882116439054E-008 F
     orb,it,eci,eold,eci-eold=                    1                  110 -0.98078741981616413      -0.98078741537223779       -4.4439263380269267E-009 F
     orb,it,eci,eold,eci-eold=                    1                  111 -0.98078743266862345      -0.98078741981616413       -1.2852459319034892E-008 F
     orb,it,eci,eold,eci-eold=                    1                  112 -0.98078743491740839      -0.98078743266862345       -2.2487849360430801E-009 F
     orb,it,eci,eold,eci-eold=                    1                  113 -0.98078743576619742      -0.98078743491740839       -8.4878903905405423E-010 F
     orbital   1 current e= -0.928672E-01 error=0.176E+00 (eci= -0.980787436E+00 error=0.849E-09) iterations 113(   0 preconditioned, Ep,Sp= 20.0  200.0)
     orb,it,eci,eold,eci-eold=                    1                    1 -0.98078747241988751      -0.98078743576619742       -3.6653690083099377E-008 F
     orb,it,eci,eold,eci-eold=                    1                    2 -0.98078747772466257      -0.98078747241988751       -5.3047750636636692E-009 F
     orb,it,eci,eold,eci-eold=                    1                    3 -0.98078747773596253      -0.98078747772466257       -1.1299960966937306E-011 F
     orbital   1 current e= -0.928623E-01 error=0.489E-05 (eci= -0.980787478E+00 error=0.113E-10) iterations   3(   0 preconditioned, Ep,Sp= 20.0  200.0)
     orb,it,eci,eold,eci-eold=                    1                    1 -0.98078748496754287      -0.98078747773596253       -7.2315803345546215E-009 F
     orb,it,eci,eold,eci-eold=                    1                    2 -0.98078748505331381      -0.98078748496754287       -8.5770945901231244E-011 F
     orbital   1 current e= -0.928609E-01 error=0.135E-05 (eci= -0.980787485E+00 error=0.858E-10) iterations   2(   0 preconditioned, Ep,Sp= 20.0  200.0)
     orb,it,eci,eold,eci-eold=                    2                    1 -0.84300216894307434      -0.84228502757735579       -7.1714136571854326E-004 F
     orb,it,eci,eold,eci-eold=                    2                    2 -0.84311647177335014      -0.84300216894307434       -1.1430283027580312E-004 F
     orb,it,eci,eold,eci-eold=                    2                    3 -0.84327315480732568      -0.84311647177335014       -1.5668303397553540E-004 F
     orb,it,eci,eold,eci-eold=                    2                    4 -0.84337725434760025      -0.84327315480732568       -1.0409954027457147E-004 F
     orb,it,eci,eold,eci-eold=                    2                    5 -0.84349345964625477      -0.84337725434760025       -1.1620529865452589E-004 F
     orb,it,eci,eold,eci-eold=                    2                    6 -0.84361843443737972      -0.84349345964625477       -1.2497479112494325E-004 F
     orb,it,eci,eold,eci-eold=                    2                    7 -0.84369474554966717      -0.84361843443737972       -7.6311112287452687E-005 F
     orb,it,eci,eold,eci-eold=                    2                    8 -0.84378188559783918      -0.84369474554966717       -8.7140048172007489E-005 F
     orb,it,eci,eold,eci-eold=                    2                    9 -0.84380737291295471      -0.84378188559783918       -2.5487315115535480E-005 F
     orb,it,eci,eold,eci-eold=                    2                   10 -0.84385843089055457      -0.84380737291295471       -5.1057977599855420E-005 F
     orb,it,eci,eold,eci-eold=                    2                   11 -0.84391501829322890      -0.84385843089055457       -5.6587402674335152E-005 F
     orb,it,eci,eold,eci-eold=                    2                   12 -0.84395040584441794      -0.84391501829322890       -3.5387551189036692E-005 F
     orb,it,eci,eold,eci-eold=                    2                   13 -0.84400337250198842      -0.84395040584441794       -5.2966657570485687E-005 F
     orb,it,eci,eold,eci-eold=                    2                   14 -0.84401339085894334      -0.84400337250198842       -1.0018356954910601E-005 F
     orb,it,eci,eold,eci-eold=                    2                   15 -0.84402966406657509      -0.84401339085894334       -1.6273207631756215E-005 F
     orb,it,eci,eold,eci-eold=                    2                   16 -0.84403375270737435      -0.84402966406657509       -4.0886407992601903E-006 F
     orb,it,eci,eold,eci-eold=                    2                   17 -0.84408389165405828      -0.84403375270737435       -5.0138946683930818E-005 F
     orb,it,eci,eold,eci-eold=                    2                   18 -0.84412953051422446      -0.84408389165405828       -4.5638860166175022E-005 F
     orb,it,eci,eold,eci-eold=                    2                   19 -0.84416018271714610      -0.84412953051422446       -3.0652202921643834E-005 F
     orb,it,eci,eold,eci-eold=                    2                   20 -0.84420732372600149      -0.84416018271714610       -4.7141008855389188E-005 F
     orb,it,eci,eold,eci-eold=                    2                   21 -0.84423487141971654      -0.84420732372600149       -2.7547693715046506E-005 F
     orb,it,eci,eold,eci-eold=                    2                   22 -0.84424873970934655      -0.84423487141971654       -1.3868289630014630E-005 F
     orb,it,eci,eold,eci-eold=                    2                   23 -0.84425734274094322      -0.84424873970934655       -8.6030315966656445E-006 F
     orb,it,eci,eold,eci-eold=                    2                   24 -0.84427400648831974      -0.84425734274094322       -1.6663747376521876E-005 F
     orb,it,eci,eold,eci-eold=                    2                   25 -0.84427552652976590      -0.84427400648831974       -1.5200414461569167E-006 F
     orb,it,eci,eold,eci-eold=                    2                   26 -0.84428547950631738      -0.84427552652976590       -9.9529765514860813E-006 F
     orb,it,eci,eold,eci-eold=                    2                   27 -0.84429483629911584      -0.84428547950631738       -9.3567927984539168E-006 F
     orb,it,eci,eold,eci-eold=                    2                   28 -0.84429979487240037      -0.84429483629911584       -4.9585732845303099E-006 F
     orb,it,eci,eold,eci-eold=                    2                   29 -0.84430780713203912      -0.84429979487240037       -8.0122596387566247E-006 F
     orb,it,eci,eold,eci-eold=                    2                   30 -0.84431263108759069      -0.84430780713203912       -4.8239555515694477E-006 F
     orb,it,eci,eold,eci-eold=                    2                   31 -0.84431619145269243      -0.84431263108759069       -3.5603651017401816E-006 F
     orb,it,eci,eold,eci-eold=                    2                   32 -0.84431797507707107      -0.84431619145269243       -1.7836243786373274E-006 F
     orb,it,eci,eold,eci-eold=                    2                   33 -0.84432157281500997      -0.84431797507707107       -3.5977379388985042E-006 F
     orb,it,eci,eold,eci-eold=                    2                   34 -0.84432363034259272      -0.84432157281500997       -2.0575275827550144E-006 F
     orb,it,eci,eold,eci-eold=                    2                   35 -0.84432499262217897      -0.84432363034259272       -1.3622795862477943E-006 F
     orb,it,eci,eold,eci-eold=                    2                   36 -0.84432557907379602      -0.84432499262217897       -5.8645161704617976E-007 F
     orb,it,eci,eold,eci-eold=                    2                   37 -0.84432706997501394      -0.84432557907379602       -1.4909012179264991E-006 F
     orb,it,eci,eold,eci-eold=                    2                   38 -0.84432714691181110      -0.84432706997501394       -7.6936797155369163E-008 F
     orb,it,eci,eold,eci-eold=                    2                   39 -0.84432744602959842      -0.84432714691181110       -2.9911778731683825E-007 F
     orb,it,eci,eold,eci-eold=                    2                   40 -0.84432878722114491      -0.84432744602959842       -1.3411915464889290E-006 F
     orb,it,eci,eold,eci-eold=                    2                   41 -0.84432880724585158      -0.84432878722114491       -2.0024706670618286E-008 F
     orb,it,eci,eold,eci-eold=                    2                   42 -0.84432887442099624      -0.84432880724585158       -6.7175144669029407E-008 F
     orb,it,eci,eold,eci-eold=                    2                   43 -0.84432995505164810      -0.84432887442099624       -1.0806306518507114E-006 F
     orb,it,eci,eold,eci-eold=                    2                   44 -0.84433054081865033      -0.84432995505164810       -5.8576700223689215E-007 F
     orb,it,eci,eold,eci-eold=                    2                   45 -0.84433091984315634      -0.84433054081865033       -3.7902450600313387E-007 F
     orb,it,eci,eold,eci-eold=                    2                   46 -0.84433106205553066      -0.84433091984315634       -1.4221237432110456E-007 F
     orb,it,eci,eold,eci-eold=                    2                   47 -0.84433143690973445      -0.84433106205553066       -3.7485420378846612E-007 F
     orb,it,eci,eold,eci-eold=                    2                   48 -0.84433157554602101      -0.84433143690973445       -1.3863628656185512E-007 F
     orb,it,eci,eold,eci-eold=                    2                   49 -0.84433170281642311      -0.84433157554602101       -1.2727040210602780E-007 F
     orb,it,eci,eold,eci-eold=                    2                   50 -0.84433200001997966      -0.84433170281642311       -2.9720355654294650E-007 F
     orb,it,eci,eold,eci-eold=                    2                   51 -0.84433203336757279      -0.84433200001997966       -3.3347593131338726E-008 F
     orb,it,eci,eold,eci-eold=                    2                   52 -0.84433210129199021      -0.84433203336757279       -6.7924417423981254E-008 F
     orb,it,eci,eold,eci-eold=                    2                   53 -0.84433235374250548      -0.84433210129199021       -2.5245051527011952E-007 F
     orb,it,eci,eold,eci-eold=                    2                   54 -0.84433237664093319      -0.84433235374250548       -2.2898427709527880E-008 F
     orb,it,eci,eold,eci-eold=                    2                   55 -0.84433239378647651      -0.84433237664093319       -1.7145543318441980E-008 F
     orb,it,eci,eold,eci-eold=                    2                   56 -0.84433261953529981      -0.84433239378647651       -2.2574882330150814E-007 F
     orb,it,eci,eold,eci-eold=                    2                   57 -0.84433271257309817      -0.84433261953529981       -9.3037798354345114E-008 F
     orb,it,eci,eold,eci-eold=                    2                   58 -0.84433272299522222      -0.84433271257309817       -1.0422124052666959E-008 F
     orb,it,eci,eold,eci-eold=                    2                   59 -0.84433286758414927      -0.84433272299522222       -1.4458892705349058E-007 F
     orb,it,eci,eold,eci-eold=                    2                   60 -0.84433294506062007      -0.84433286758414927       -7.7476470794479724E-008 F
     orb,it,eci,eold,eci-eold=                    2                   61 -0.84433297663905660      -0.84433294506062007       -3.1578436532342380E-008 F
     orb,it,eci,eold,eci-eold=                    2                   62 -0.84433307805272761      -0.84433297663905660       -1.0141367101645926E-007 F
     orb,it,eci,eold,eci-eold=                    2                   63 -0.84433308598718648      -0.84433307805272761       -7.9344588677088268E-009 F
     orb,it,eci,eold,eci-eold=                    2                   64 -0.84433309707509852      -0.84433308598718648       -1.1087912032969882E-008 F
     orb,it,eci,eold,eci-eold=                    2                   65 -0.84433318608003938      -0.84433309707509852       -8.9004940861947546E-008 F
     orb,it,eci,eold,eci-eold=                    2                   66 -0.84433320774436227      -0.84433318608003938       -2.1664322891190579E-008 F
     orb,it,eci,eold,eci-eold=                    2                   67 -0.84433320950726953      -0.84433320774436227       -1.7629072646130339E-009 F
     orb,it,eci,eold,eci-eold=                    2                   68 -0.84433327066812969      -0.84433320950726953       -6.1160860154174657E-008 F
     orb,it,eci,eold,eci-eold=                    2                   69 -0.84433330102940019      -0.84433327066812969       -3.0361270497714088E-008 F
     orb,it,eci,eold,eci-eold=                    2                   70 -0.84433331200014583      -0.84433330102940019       -1.0970745645266788E-008 F
     orb,it,eci,eold,eci-eold=                    2                   71 -0.84433336663036762      -0.84433331200014583       -5.4630221790752387E-008 F
     orb,it,eci,eold,eci-eold=                    2                   72 -0.84433337112232554      -0.84433336663036762       -4.4919579167412849E-009 F
     orb,it,eci,eold,eci-eold=                    2                   73 -0.84433337367413985      -0.84433337112232554       -2.5518143154101836E-009 F
     orb,it,eci,eold,eci-eold=                    2                   74 -0.84433342884896190      -0.84433337367413985       -5.5174822044534721E-008 F
     orb,it,eci,eold,eci-eold=                    2                   75 -0.84433343132267213      -0.84433342884896190       -2.4737102366501063E-009 F
     orb,it,eci,eold,eci-eold=                    2                   76 -0.84433343132267213      -0.84433343132267213        0.0000000000000000      F
     orbital   2 current e=  0.456988E+00 error=0.227E+00 (eci= -0.844333431E+00 error=0.000E+00) iterations  76(   0 preconditioned, Ep,Sp= 20.0  200.0)
     orb,it,eci,eold,eci-eold=                    2                    1 -0.84433345489060208      -0.84433343046765974       -2.4422942335178277E-008 F
     orb,it,eci,eold,eci-eold=                    2                    2 -0.84433346254096087      -0.84433345489060208       -7.6503587909115822E-009 F
     orb,it,eci,eold,eci-eold=                    2                    3 -0.84433351358939535      -0.84433346254096087       -5.1048434479561422E-008 F
     orb,it,eci,eold,eci-eold=                    2                    4 -0.84433354050384879      -0.84433351358939535       -2.6914453443716013E-008 F
     orb,it,eci,eold,eci-eold=                    2                    5 -0.84433354244581127      -0.84433354050384879       -1.9419624797123447E-009 F
     orb,it,eci,eold,eci-eold=                    2                    6 -0.84433354251073467      -0.84433354244581127       -6.4923399989424979E-011 F
     orbital   2 current e=  0.456882E+00 error=0.105E-03 (eci= -0.844333543E+00 error=0.649E-10) iterations   6(   0 preconditioned, Ep,Sp= 20.0  200.0)
     orb,it,eci,eold,eci-eold=                    2                    1 -0.84433354519065706      -0.84433354251073467       -2.6799223951101681E-009 F
     orb,it,eci,eold,eci-eold=                    2                    2 -0.84433354568396690      -0.84433354519065706       -4.9330983742379431E-010 F
     orbital   2 current e=  0.456872E+00 error=0.108E-04 (eci= -0.844333546E+00 error=0.493E-09) iterations   2(   0 preconditioned, Ep,Sp= 20.0  200.0)
     orb,it,eci,eold,eci-eold=                    3                    1 -0.84210810108169853      -0.84165623087853481       -4.5187020316372895E-004 F
     orb,it,eci,eold,eci-eold=                    3                    2 -0.84222159373978656      -0.84210810108169853       -1.1349265808802134E-004 F
     orb,it,eci,eold,eci-eold=                    3                    3 -0.84247886903512936      -0.84222159373978656       -2.5727529534280702E-004 F
     orb,it,eci,eold,eci-eold=                    3                    4 -0.84249989699382610      -0.84247886903512936       -2.1027958696739901E-005 F
     orb,it,eci,eold,eci-eold=                    3                    5 -0.84252047604469193      -0.84249989699382610       -2.0579050865832116E-005 F
     orb,it,eci,eold,eci-eold=                    3                    6 -0.84261808102432667      -0.84252047604469193       -9.7604979634735578E-005 F
     orb,it,eci,eold,eci-eold=                    3                    7 -0.84264114572706950      -0.84261808102432667       -2.3064702742825460E-005 F
     orb,it,eci,eold,eci-eold=                    3                    8 -0.84276896955609382      -0.84264114572706950       -1.2782382902432055E-004 F
     orb,it,eci,eold,eci-eold=                    3                    9 -0.84303051149068475      -0.84276896955609382       -2.6154193459093644E-004 F
     orb,it,eci,eold,eci-eold=                    3                   10 -0.84314992425265278      -0.84303051149068475       -1.1941276196802963E-004 F
     orb,it,eci,eold,eci-eold=                    3                   11 -0.84316686178597622      -0.84314992425265278       -1.6937533323435616E-005 F
     orb,it,eci,eold,eci-eold=                    3                   12 -0.84322638984506737      -0.84316686178597622       -5.9528059091151775E-005 F
     orb,it,eci,eold,eci-eold=                    3                   13 -0.84327888878280821      -0.84322638984506737       -5.2498937740841356E-005 F
     orb,it,eci,eold,eci-eold=                    3                   14 -0.84328260989080484      -0.84327888878280821       -3.7211079966237293E-006 F
     orb,it,eci,eold,eci-eold=                    3                   15 -0.84333463967129241      -0.84328260989080484       -5.2029780487572452E-005 F
     orb,it,eci,eold,eci-eold=                    3                   16 -0.84334580616562393      -0.84333463967129241       -1.1166494331527055E-005 F
     orb,it,eci,eold,eci-eold=                    3                   17 -0.84334873536905008      -0.84334580616562393       -2.9292034261496624E-006 F
     orb,it,eci,eold,eci-eold=                    3                   18 -0.84335788105924125      -0.84334873536905008       -9.1456901911701749E-006 F
     orb,it,eci,eold,eci-eold=                    3                   19 -0.84336013939529031      -0.84335788105924125       -2.2583360490546767E-006 F
     orb,it,eci,eold,eci-eold=                    3                   20 -0.84336653347093815      -0.84336013939529031       -6.3940756478420013E-006 F
     orb,it,eci,eold,eci-eold=                    3                   21 -0.84337455147107598      -0.84336653347093815       -8.0180001378327148E-006 F
     orb,it,eci,eold,eci-eold=                    3                   22 -0.84337737935780122      -0.84337455147107598       -2.8278867252318207E-006 F
     orb,it,eci,eold,eci-eold=                    3                   23 -0.84337963883786338      -0.84337737935780122       -2.2594800621611455E-006 F
     orb,it,eci,eold,eci-eold=                    3                   24 -0.84338206636558688      -0.84337963883786338       -2.4275277235030757E-006 F
     orb,it,eci,eold,eci-eold=                    3                   25 -0.84338294220229648      -0.84338206636558688       -8.7583670960178495E-007 F
     orb,it,eci,eold,eci-eold=                    3                   26 -0.84338303561544858      -0.84338294220229648       -9.3413152102428398E-008 F
     orb,it,eci,eold,eci-eold=                    3                   27 -0.84338314026491312      -0.84338303561544858       -1.0464946453847546E-007 F
     orb,it,eci,eold,eci-eold=                    3                   28 -0.84338376641963675      -0.84338314026491312       -6.2615472362637092E-007 F
     orb,it,eci,eold,eci-eold=                    3                   29 -0.84338411539264957      -0.84338376641963675       -3.4897301282033055E-007 F
     orb,it,eci,eold,eci-eold=                    3                   30 -0.84338430993145219      -0.84338411539264957       -1.9453880262254586E-007 F
     orb,it,eci,eold,eci-eold=                    3                   31 -0.84338436378493165      -0.84338430993145219       -5.3853479453636055E-008 F
     orb,it,eci,eold,eci-eold=                    3                   32 -0.84338443604352342      -0.84338436378493165       -7.2258591776730441E-008 F
     orb,it,eci,eold,eci-eold=                    3                   33 -0.84338444117000744      -0.84338443604352342       -5.1264840150722080E-009 F
     orb,it,eci,eold,eci-eold=                    3                   34 -0.84338446442396586      -0.84338444117000744       -2.3253958425506482E-008 F
     orb,it,eci,eold,eci-eold=                    3                   35 -0.84338453598062757      -0.84338446442396586       -7.1556661707106173E-008 F
     orb,it,eci,eold,eci-eold=                    3                   36 -0.84338463623096138      -0.84338453598062757       -1.0025033381211301E-007 F
     orb,it,eci,eold,eci-eold=                    3                   37 -0.84338469090846724      -0.84338463623096138       -5.4677505856304265E-008 F
     orb,it,eci,eold,eci-eold=                    3                   38 -0.84338473225592958      -0.84338469090846724       -4.1347462342855579E-008 F
     orb,it,eci,eold,eci-eold=                    3                   39 -0.84338474252806206      -0.84338473225592958       -1.0272132477950890E-008 F
     orb,it,eci,eold,eci-eold=                    3                   40 -0.84338476551515962      -0.84338474252806206       -2.2987097558768710E-008 F
     orb,it,eci,eold,eci-eold=                    3                   41 -0.84338476872868218      -0.84338476551515962       -3.2135225591645167E-009 F
     orb,it,eci,eold,eci-eold=                    3                   42 -0.84338477670444767      -0.84338476872868218       -7.9757654924961230E-009 F
     orb,it,eci,eold,eci-eold=                    3                   43 -0.84338479937556765      -0.84338477670444767       -2.2671119981332311E-008 F
     orb,it,eci,eold,eci-eold=                    3                   44 -0.84338480324200871      -0.84338479937556765       -3.8664410562105900E-009 F
     orb,it,eci,eold,eci-eold=                    3                   45 -0.84338480577328689      -0.84338480324200871       -2.5312781870567846E-009 F
     orb,it,eci,eold,eci-eold=                    3                   46 -0.84338481754985684      -0.84338480577328689       -1.1776569941446269E-008 F
     orb,it,eci,eold,eci-eold=                    3                   47 -0.84338481906333640      -0.84338481754985684       -1.5134795638971354E-009 F
     orb,it,eci,eold,eci-eold=                    3                   48 -0.84338482035922979      -0.84338481906333640       -1.2958933925943938E-009 F
     orb,it,eci,eold,eci-eold=                    3                   49 -0.84338482967886486      -0.84338482035922979       -9.3196350636759462E-009 F
     orb,it,eci,eold,eci-eold=                    3                   50 -0.84338483368207040      -0.84338482967886486       -4.0032055448335768E-009 F
     orb,it,eci,eold,eci-eold=                    3                   51 -0.84338483540771558      -0.84338483368207040       -1.7256451823044472E-009 F
     orb,it,eci,eold,eci-eold=                    3                   52 -0.84338484167037864      -0.84338483540771558       -6.2626630548123785E-009 F
     orb,it,eci,eold,eci-eold=                    3                   53 -0.84338484248085677      -0.84338484167037864       -8.1047812905410410E-010 F
     orbital   3 current e=  0.604505E+00 error=0.141E+00 (eci= -0.843384842E+00 error=0.810E-09) iterations  53(   0 preconditioned, Ep,Sp= 20.0  200.0)
     orb,it,eci,eold,eci-eold=                    3                    1 -0.84338484974309635      -0.84338484248085677       -7.2622395874688550E-009 F
     orb,it,eci,eold,eci-eold=                    3                    2 -0.84338485257943852      -0.84338484974309635       -2.8363421611388162E-009 F
     orb,it,eci,eold,eci-eold=                    3                    3 -0.84338485673340924      -0.84338485257943852       -4.1539707229532041E-009 F
     orb,it,eci,eold,eci-eold=                    3                    4 -0.84338485673340924      -0.84338485673340924        0.0000000000000000      F
     orbital   3 current e=  0.604516E+00 error=0.112E-04 (eci= -0.843384857E+00 error=0.000E+00) iterations   4(   0 preconditioned, Ep,Sp= 20.0  200.0)
     orb,it,eci,eold,eci-eold=                    3                    1 -0.84338486371213173      -0.84338485603626467       -7.6758670530807649E-009 F
     orb,it,eci,eold,eci-eold=                    3                    2 -0.84338486385378597      -0.84338486371213173       -1.4165424389034342E-010 F
     orbital   3 current e=  0.604530E+00 error=0.140E-04 (eci= -0.843384864E+00 error=0.142E-09) iterations   2(   0 preconditioned, Ep,Sp= 20.0  200.0)
     orb,it,eci,eold,eci-eold=                    4                    1 -0.84267366508627128      -0.84221222399036022       -4.6144109591106375E-004 F
     orb,it,eci,eold,eci-eold=                    4                    2 -0.84271679242836450      -0.84267366508627128       -4.3127342093218779E-005 F
     orb,it,eci,eold,eci-eold=                    4                    3 -0.84281617301428791      -0.84271679242836450       -9.9380585923403153E-005 F
     orb,it,eci,eold,eci-eold=                    4                    4 -0.84283622781398060      -0.84281617301428791       -2.0054799692692526E-005 F
     orb,it,eci,eold,eci-eold=                    4                    5 -0.84284449036248965      -0.84283622781398060       -8.2625485090526141E-006 F
     orb,it,eci,eold,eci-eold=                    4                    6 -0.84289622531865782      -0.84284449036248965       -5.1734956168170143E-005 F
     orb,it,eci,eold,eci-eold=                    4                    7 -0.84292415480664651      -0.84289622531865782       -2.7929487988687107E-005 F
     orb,it,eci,eold,eci-eold=                    4                    8 -0.84297720202866766      -0.84292415480664651       -5.3047222021151974E-005 F
     orb,it,eci,eold,eci-eold=                    4                    9 -0.84300058156542179      -0.84297720202866766       -2.3379536754131180E-005 F
     orb,it,eci,eold,eci-eold=                    4                   10 -0.84301603751451659      -0.84300058156542179       -1.5455949094800303E-005 F
     orb,it,eci,eold,eci-eold=                    4                   11 -0.84304204858817877      -0.84301603751451659       -2.6011073662179918E-005 F
     orb,it,eci,eold,eci-eold=                    4                   12 -0.84305904522378250      -0.84304204858817877       -1.6996635603727661E-005 F
     orb,it,eci,eold,eci-eold=                    4                   13 -0.84306844226250532      -0.84305904522378250       -9.3970387228248242E-006 F
     orb,it,eci,eold,eci-eold=                    4                   14 -0.84308910504667478      -0.84306844226250532       -2.0662784169456216E-005 F
     orb,it,eci,eold,eci-eold=                    4                   15 -0.84311193871762291      -0.84308910504667478       -2.2833670948130269E-005 F
     orb,it,eci,eold,eci-eold=                    4                   16 -0.84312609199015609      -0.84311193871762291       -1.4153272533179440E-005 F
     orb,it,eci,eold,eci-eold=                    4                   17 -0.84315050107033507      -0.84312609199015609       -2.4409080178977582E-005 F
     orb,it,eci,eold,eci-eold=                    4                   18 -0.84316488579378901      -0.84315050107033507       -1.4384723453941817E-005 F
     orb,it,eci,eold,eci-eold=                    4                   19 -0.84317372528290435      -0.84316488579378901       -8.8394891153420474E-006 F
     orb,it,eci,eold,eci-eold=                    4                   20 -0.84317705370592755      -0.84317372528290435       -3.3284230231966916E-006 F
     orb,it,eci,eold,eci-eold=                    4                   21 -0.84318773449311146      -0.84317705370592755       -1.0680787183914298E-005 F
     orb,it,eci,eold,eci-eold=                    4                   22 -0.84319172793883745      -0.84318773449311146       -3.9934457259915845E-006 F
     orb,it,eci,eold,eci-eold=                    4                   23 -0.84319621768692532      -0.84319172793883745       -4.4897480878658413E-006 F
     orb,it,eci,eold,eci-eold=                    4                   24 -0.84320094196935869      -0.84319621768692532       -4.7242824333659783E-006 F
     orb,it,eci,eold,eci-eold=                    4                   25 -0.84320391941172712      -0.84320094196935869       -2.9774423684347795E-006 F
     orb,it,eci,eold,eci-eold=                    4                   26 -0.84321033208879426      -0.84320391941172712       -6.4126770671357747E-006 F
     orb,it,eci,eold,eci-eold=                    4                   27 -0.84321106419144132      -0.84321033208879426       -7.3210264706080608E-007 F
     orb,it,eci,eold,eci-eold=                    4                   28 -0.84321206906491242      -0.84321106419144132       -1.0048734710998986E-006 F
     orb,it,eci,eold,eci-eold=                    4                   29 -0.84321553587241738      -0.84321206906491242       -3.4668075049593128E-006 F
     orb,it,eci,eold,eci-eold=                    4                   30 -0.84321570638820775      -0.84321553587241738       -1.7051579037641318E-007 F
     orb,it,eci,eold,eci-eold=                    4                   31 -0.84321650771011314      -0.84321570638820775       -8.0132190538595438E-007 F
     orb,it,eci,eold,eci-eold=                    4                   32 -0.84321975503350488      -0.84321650771011314       -3.2473233917418298E-006 F
     orb,it,eci,eold,eci-eold=                    4                   33 -0.84322152356999158      -0.84321975503350488       -1.7685364867014997E-006 F
     orb,it,eci,eold,eci-eold=                    4                   34 -0.84322314245929475      -0.84322152356999158       -1.6188893031676699E-006 F
     orb,it,eci,eold,eci-eold=                    4                   35 -0.84322400327078373      -0.84322314245929475       -8.6081148897854121E-007 F
     orb,it,eci,eold,eci-eold=                    4                   36 -0.84322497603861202      -0.84322400327078373       -9.7276782828892294E-007 F
     orb,it,eci,eold,eci-eold=                    4                   37 -0.84322553689303403      -0.84322497603861202       -5.6085442201592173E-007 F
     orb,it,eci,eold,eci-eold=                    4                   38 -0.84322643181894386      -0.84322553689303403       -8.9492590982231945E-007 F
     orb,it,eci,eold,eci-eold=                    4                   39 -0.84322690881656737      -0.84322643181894386       -4.7699762351083308E-007 F
     orb,it,eci,eold,eci-eold=                    4                   40 -0.84322733396095084      -0.84322690881656737       -4.2514438347573957E-007 F
     orb,it,eci,eold,eci-eold=                    4                   41 -0.84322754914423703      -0.84322733396095084       -2.1518328618963523E-007 F
     orb,it,eci,eold,eci-eold=                    4                   42 -0.84322810096244227      -0.84322754914423703       -5.5181820524108360E-007 F
     orb,it,eci,eold,eci-eold=                    4                   43 -0.84322842480064275      -0.84322810096244227       -3.2383820047776624E-007 F
     orb,it,eci,eold,eci-eold=                    4                   44 -0.84322856964587922      -0.84322842480064275       -1.4484523647162462E-007 F
     orb,it,eci,eold,eci-eold=                    4                   45 -0.84322860777446140      -0.84322856964587922       -3.8128582180441128E-008 F
     orb,it,eci,eold,eci-eold=                    4                   46 -0.84322883211011357      -0.84322860777446140       -2.2433565216584128E-007 F
     orb,it,eci,eold,eci-eold=                    4                   47 -0.84322885900579414      -0.84322883211011357       -2.6895680571570324E-008 F
     orb,it,eci,eold,eci-eold=                    4                   48 -0.84322887486622433      -0.84322885900579414       -1.5860430191416697E-008 F
     orb,it,eci,eold,eci-eold=                    4                   49 -0.84322904331463056      -0.84322887486622433       -1.6844840622365354E-007 F
     orb,it,eci,eold,eci-eold=                    4                   50 -0.84322912021580354      -0.84322904331463056       -7.6901172985088806E-008 F
     orb,it,eci,eold,eci-eold=                    4                   51 -0.84322918111025824      -0.84322912021580354       -6.0894454700921585E-008 F
     orb,it,eci,eold,eci-eold=                    4                   52 -0.84322921940512396      -0.84322918111025824       -3.8294865722932059E-008 F
     orb,it,eci,eold,eci-eold=                    4                   53 -0.84322929487488274      -0.84322921940512396       -7.5469758775703610E-008 F
     orb,it,eci,eold,eci-eold=                    4                   54 -0.84322933603061634      -0.84322929487488274       -4.1155733598863264E-008 F
     orb,it,eci,eold,eci-eold=                    4                   55 -0.84322937458504332      -0.84322933603061634       -3.8554426984305223E-008 F
     orb,it,eci,eold,eci-eold=                    4                   56 -0.84322939341234115      -0.84322937458504332       -1.8827297831869316E-008 F
     orb,it,eci,eold,eci-eold=                    4                   57 -0.84322942469845086      -0.84322939341234115       -3.1286109702932663E-008 F
     orb,it,eci,eold,eci-eold=                    4                   58 -0.84322944359127683      -0.84322942469845086       -1.8892825970340255E-008 F
     orb,it,eci,eold,eci-eold=                    4                   59 -0.84322946665021825      -0.84322944359127683       -2.3058941422959833E-008 F
     orb,it,eci,eold,eci-eold=                    4                   60 -0.84322947786775304      -0.84322946665021825       -1.1217534789942363E-008 F
     orb,it,eci,eold,eci-eold=                    4                   61 -0.84322949271587122      -0.84322947786775304       -1.4848118179422443E-008 F
     orb,it,eci,eold,eci-eold=                    4                   62 -0.84322950092531990      -0.84322949271587122       -8.2094486764106023E-009 F
     orb,it,eci,eold,eci-eold=                    4                   63 -0.84322951201602159      -0.84322950092531990       -1.1090701690363858E-008 F
     orb,it,eci,eold,eci-eold=                    4                   64 -0.84322951201602159      -0.84322951201602159        0.0000000000000000      F
     orbital   4 current e=  0.490306E+00 error=0.464E-01 (eci= -0.843229512E+00 error=0.000E+00) iterations  64(   0 preconditioned, Ep,Sp= 20.0  200.0)
     orb,it,eci,eold,eci-eold=                    4                    1 -0.84322953753414354      -0.84322951188504347       -2.5649100066083008E-008 F
     orb,it,eci,eold,eci-eold=                    4                    2 -0.84322953790599420      -0.84322953753414354       -3.7185066137368494E-010 F
     orbital   4 current e=  0.490279E+00 error=0.265E-04 (eci= -0.843229538E+00 error=0.372E-09) iterations   2(   0 preconditioned, Ep,Sp= 20.0  200.0)
     orb,it,eci,eold,eci-eold=                    4                    1 -0.84322953829389025      -0.84322953790599420       -3.8789604861477756E-010 F
     orbital   4 current e=  0.490274E+00 error=0.532E-05 (eci= -0.843229538E+00 error=0.388E-09) iterations   1(   0 preconditioned, Ep,Sp= 20.0  200.0)

 virtual orbital energies:
     0.4902742E+00 (  13.341eV)
     0.6045305E+00 (  16.450eV)
     0.4568716E+00 (  12.432eV)
    -0.9286091E-01 (  -2.527eV)


 == Generating One-Electron and Two-Electron Integrals ==

 begin_one_electron_integrals
    1    1        -0.6186631971
    2    1        -0.0002123094
    3    1        -0.0761816331
    4    1        -0.0085019559
    5    1         0.0000000969
    2    2        -0.5333626138
    3    2        -0.0040387724
    4    2        -0.0099919377
    5    2         0.0000000188
    3    3        -0.0434574839
    4    3         0.0555276128
    5    3        -0.0000002949
    4    4         0.0550517932
    5    4        -0.0000001134
    5    5        -0.0220109102
 end_one_electron_integrals

 begin_two_electron_integrals
    1    1    1    1        0.3079195681
    1    1    2    1        0.0002116637
    1    1    3    1        0.0761787530
    1    1    4    1        0.0085015194
    1    1    5    1       -0.0000000969
    1    1    2    2        0.3351972749
    1    1    3    2       -0.0010019824
    1    1    4    2       -0.0038737471
    1    1    5    2        0.0000000217
    1    1    3    3        0.2796685067
    1    1    4    3        0.0109251436
    1    1    5    3       -0.0000000973
    1    1    4    4        0.3020038286
    1    1    5    4       -0.0000000192
    1    1    5    5        0.2804471570
    2    1    2    1        0.2298928467
    2    1    3    1       -0.0027925506
    2    1    4    1       -0.0079928147
    2    1    5    1        0.0000000257
    2    1    2    2       -0.0005250223
    2    1    3    2        0.1176631643
    2    1    4    2        0.0599285850
    2    1    5    2       -0.0000001556
    2    1    3    3       -0.0057456389
    2    1    4    3       -0.0050328482
    2    1    5    3        0.0000000727
    2    1    4    4        0.0318450437
    2    1    5    4       -0.0000000253
    2    1    5    5        0.0006772378
    3    1    3    1        0.0590078848
    3    1    4    1        0.0035803433
    3    1    5    1       -0.0000000192
    3    1    2    2        0.0957508075
    3    1    3    2       -0.0028118286
    3    1    4    2       -0.0025747305
    3    1    5    2        0.0000000242
    3    1    3    3        0.0712841111
    3    1    4    3        0.0105037471
    3    1    5    3       -0.0000000813
    3    1    4    4        0.0651540037
    3    1    5    4       -0.0000000291
    3    1    5    5        0.0503541896
    4    1    4    1        0.0545289990
    4    1    5    1       -0.0000000058
    4    1    2    2        0.0291611792
    4    1    3    2       -0.0040869388
    4    1    4    2        0.0056435557
    4    1    5    2       -0.0000000024
    4    1    3    3        0.0159468135
    4    1    4    3        0.0127765040
    4    1    5    3       -0.0000000291
    4    1    4    4        0.0035009740
    4    1    5    4       -0.0000000029
    4    1    5    5       -0.0005665464
    5    1    5    1        0.0486092486
    5    1    2    2       -0.0000001181
    5    1    3    2        0.0000000262
    5    1    4    2        0.0000000002
    5    1    5    2       -0.0000919729
    5    1    3    3       -0.0000001433
    5    1    4    3       -0.0000000261
    5    1    5    3       -0.0008567598
    5    1    4    4       -0.0000000646
    5    1    5    4       -0.0070840587
    5    1    5    5       -0.0000000344
    2    2    2    2        0.3763933552
    2    2    3    2       -0.0009478330
    2    2    4    2       -0.0033799230
    2    2    5    2        0.0000000241
    2    2    3    3        0.3081680509
    2    2    4    3        0.0183104173
    2    2    5    3       -0.0000001314
    2    2    4    4        0.3221832546
    2    2    5    4       -0.0000000272
    2    2    5    5        0.2971322765
    3    2    3    2        0.0881106820
    3    2    4    2        0.0270776027
    3    2    5    2       -0.0000000816
    3    2    3    3       -0.0038849556
    3    2    4    3       -0.0030876527
    3    2    5    3        0.0000000375
    3    2    4    4        0.0124944139
    3    2    5    4       -0.0000000083
    3    2    5    5       -0.0005592558
    4    2    4    2        0.0556535679
    4    2    5    2       -0.0000000352
    4    2    3    3       -0.0040059823
    4    2    4    3       -0.0005887586
    4    2    5    3        0.0000000169
    4    2    4    4        0.0026434438
    4    2    5    4       -0.0000000039
    4    2    5    5       -0.0031276682
    5    2    5    2        0.0446306871
    5    2    3    3        0.0000000234
    5    2    4    3        0.0000000054
    5    2    5    3       -0.0005230353
    5    2    4    4        0.0000000005
    5    2    5    4       -0.0011330720
    5    2    5    5        0.0000000181
    3    3    3    3        0.2694193340
    3    3    4    3        0.0116058417
    3    3    5    3       -0.0000000626
    3    3    4    4        0.2656110743
    3    3    5    4       -0.0000000084
    3    3    5    5        0.2491367966
    4    3    4    3        0.0147797561
    4    3    5    3       -0.0000000101
    4    3    4    4        0.0054962078
    4    3    5    4       -0.0000000035
    4    3    5    5        0.0073506530
    5    3    5    3        0.0122858905
    5    3    4    4       -0.0000000772
    5    3    5    4        0.0017409143
    5    3    5    5       -0.0000000813
    4    4    4    4        0.3259440743
    4    4    5    4       -0.0000000189
    4    4    5    5        0.2740744078
    5    4    5    4        0.0173749112
    5    4    5    5       -0.0000000231
    5    5    5    5        0.2829538093
 end_two_electron_integrals


 output epsi filename:./pspw_hf_H2.emovecs

 Total PSPW energy     :  -0.8412106179E+00


=== Spin Contamination ===

 <Sexact^2> =    0.0000000000000000     
 <S^2>      =    0.0000000000000000     



== Center of Charge ==

spin up     (    0.0000,    0.0000,    0.0647 )
spin down   (    0.0000,    0.0000,    0.0647 )
     total  (    0.0000,    0.0000,    0.0647 )
ionic       (    0.0000,    0.0000,    0.0000 )


== Molecular Dipole wrt Center of Mass ==

mu   =  (   -0.0000,   -0.0000,   -0.1294 ) au
|mu| =     0.1294 au,       0.3289 Debye

 output psi filename:./pspw_hf_H2.movecs

 Writing Crystallographic Information File:./H2.cif
   - cell not shifted (nwpw:cif_shift_cell .false.)


== Timing ==

cputime in seconds
  prologue    :   0.589241E+01
  main loop   :   0.113256E+03
  epilogue    :   0.160918E-01
  total       :   0.119164E+03
  cputime/step:   0.690584E+00       (     164 evalulations,      69 linesearches)


Time spent doing                        total          step       percent
  total time                 :   0.119175E+03  0.726678E+00       100.0 %
  i/o time                   :   0.143207E+00  0.873212E-03         0.1 %
  FFTs                       :   0.812360E+02  0.495342E+00        68.2 %
  dot products               :   0.196059E+01  0.119548E-01         1.6 %
  geodesic                   :   0.607065E-01  0.370162E-03         0.1 %
  ffm_dgemm                  :   0.814251E-02  0.496495E-04         0.0 %
  fmf_dgemm                  :   0.692890E-02  0.422494E-04         0.0 %
  mmm_dgemm                  :   0.288595E-02  0.175972E-04         0.0 %
  m_diagonalize              :   0.143285E-02  0.873689E-05         0.0 %
  local pseudopotentials     :   0.190141E+01  0.115940E-01         1.6 %
  non-local pseudopotentials :   0.171171E+01  0.104373E-01         1.4 %
  structure factors          :   0.202736E+00  0.123620E-02         0.2 %
  phase factors              :   0.719800E-05  0.438902E-07         0.0 %
  masking and packing        :   0.172505E+01  0.105186E-01         1.4 %
  queue fft                  :   0.255585E+01  0.155845E-01         2.1 %
  queue fft (serial)         :   0.101447E+01  0.618582E-02         0.9 %
  queue fft (message passing):   0.152688E+01  0.931024E-02         1.3 %
  HFX potential              :   0.301712E+01  0.183971E-01         2.5 %
  non-local psp FFM          :   0.155737E+01  0.949615E-02         1.3 %
  non-local psp FMF          :   0.336302E-01  0.205062E-03         0.0 %
  non-local psp FFM A        :   0.135741E-01  0.827688E-04         0.0 %
  non-local psp FFM B        :   0.440449E-01  0.268567E-03         0.0 %

== HFX Counters ==
  HFX Evalulations         =   164
  Lin ACE HFX Evalulations =     0


     >>>  JOB COMPLETED     AT Sat Apr  5 14:40:11 2025  <<<

 Task  times  cpu:      110.9s     wall:      119.2s


                                NWChem Input Module
                                -------------------


 Summary of allocated global arrays
-----------------------------------
  No active global arrays


MA_summarize_allocated_blocks: starting scan ...
MA_summarize_allocated_blocks: scan completed: 0 heap blocks, 0 stack blocks
MA usage statistics:

	allocation statistics:
					      heap	     stack
					      ----	     -----
	current number of blocks	         0	         0
	maximum number of blocks	       313	        36
	current total bytes		         0	         0
	maximum total bytes		  16119408	   5334648
	maximum total K-bytes		     16120	      5335
	maximum total M-bytes		        17	         6


                                     CITATION
                                     --------
                Please cite the following reference when publishing
                           results obtained with NWChem:

          E. Apra, E. J. Bylaska, W. A. de Jong, N. Govind, K. Kowalski,
       T. P. Straatsma, M. Valiev, H. J. J. van Dam, Y. Alexeev, J. Anchell,
       V. Anisimov, F. W. Aquino, R. Atta-Fynn, J. Autschbach, N. P. Bauman,
     J. C. Becca, D. E. Bernholdt, K. Bhaskaran-Nair, S. Bogatko, P. Borowski,
         J. Boschen, J. Brabec, A. Bruner, E. Cauet, Y. Chen, G. N. Chuev,
      C. J. Cramer, J. Daily, M. J. O. Deegan, T. H. Dunning Jr., M. Dupuis,
   K. G. Dyall, G. I. Fann, S. A. Fischer, A. Fonari, H. Fruchtl, L. Gagliardi,
      J. Garza, N. Gawande, S. Ghosh, K. Glaesemann, A. W. Gotz, J. Hammond,
       V. Helms, E. D. Hermes, K. Hirao, S. Hirata, M. Jacquelin, L. Jensen,
   B. G. Johnson, H. Jonsson, R. A. Kendall, M. Klemm, R. Kobayashi, V. Konkov,
      S. Krishnamoorthy, M. Krishnan, Z. Lin, R. D. Lins, R. J. Littlefield,
      A. J. Logsdail, K. Lopata, W. Ma, A. V. Marenich, J. Martin del Campo,
   D. Mejia-Rodriguez, J. E. Moore, J. M. Mullin, T. Nakajima, D. R. Nascimento,
    J. A. Nichols, P. J. Nichols, J. Nieplocha, A. Otero-de-la-Roza, B. Palmer,
    A. Panyala, T. Pirojsirikul, B. Peng, R. Peverati, J. Pittner, L. Pollack,
   R. M. Richard, P. Sadayappan, G. C. Schatz, W. A. Shelton, D. W. Silverstein,
   D. M. A. Smith, T. A. Soares, D. Song, M. Swart, H. L. Taylor, G. S. Thomas,
            V. Tipparaju, D. G. Truhlar, K. Tsemekhman, T. Van Voorhis,
      A. Vazquez-Mayagoitia, P. Verma, O. Villa, A. Vishnu, K. D. Vogiatzis,
        D. Wang, J. H. Weare, M. J. Williamson, T. L. Windus, K. Wolinski,
        A. T. Wong, Q. Wu, C. Yang, Q. Yu, M. Zacharias, Z. Zhang, Y. Zhao,
                                and R. J. Harrison
                        "NWChem: Past, present, and future
                         J. Chem. Phys. 152, 184102 (2020)
                               doi:10.1063/5.0004997

                                      AUTHORS
                                      -------
  E. Apra, E. J. Bylaska, N. Govind, K. Kowalski, M. Valiev, D. Mejia-Rodriguez,
       A. Kunitsa, N. P. Bauman, A. Panyala, W. A. de Jong, T. P. Straatsma,
   H. J. J. van Dam, D. Wang, T. L. Windus, J. Hammond, J. Autschbach, A. Woods,
    K. Bhaskaran-Nair, J. Brabec, K. Lopata, S. A. Fischer, S. Krishnamoorthy,
     M. Jacquelin, W. Ma, M. Klemm, O. Villa, Y. Chen, V. Anisimov, F. Aquino,
     S. Hirata, M. T. Hackler, E. Hermes, L. Jensen, J. E. Moore, J. C. Becca,
      V. Konjkov, T. Risthaus, M. Malagoli, A. Marenich, A. Otero-de-la-Roza,
        J. Mullin, P. Nichols, R. Peverati, J. Pittner, Y. Zhao, P.-D. Fan,
        A. Fonari, M. J. Williamson, R. J. Harrison, J. R. Rehr, M. Dupuis,
     D. Silverstein, D. M. A. Smith, J. Nieplocha, V. Tipparaju, M. Krishnan,
     B. E. Van Kuiken, A. Vazquez-Mayagoitia, M. Swart, Q. Wu, T. Van Voorhis,
     A. A. Auer, M. Nooijen, L. D. Crosby, E. Brown, G. Cisneros, G. I. Fann,
   H. Fruchtl, J. Garza, K. Hirao, R. A. Kendall, J. A. Nichols, K. Tsemekhman,
    K. Wolinski, J. Anchell, D. E. Bernholdt, P. Borowski, T. Clark, D. Clerc,
   H. Dachsel, M. J. O. Deegan, K. Dyall, D. Elwood, E. Glendening, M. Gutowski,
   A. C. Hess, J. Jaffe, B. G. Johnson, J. Ju, R. Kobayashi, R. Kutteh, Z. Lin,
   R. Littlefield, X. Long, B. Meng, T. Nakajima, S. Niu, L. Pollack, M. Rosing,
   K. Glaesemann, G. Sandrone, M. Stave, H. Taylor, G. Thomas, J. H. van Lenthe,
                               A. T. Wong, Z. Zhang.

 Total times  cpu:      110.9s     wall:      119.2s
