 argument  1 = H2-0.9.nw



============================== echo of input deck ==============================
title "swnc: e theory=pspw4 xc=hf formula=H2 charge=0 mult=1"
#machinejob:expert

echo

start pspw_hf_H2

memory heap 1200 mb stack 1200 mb global 10 mb

charge 0

geometry
H    0.00000    0.00000   -0.45000
H    0.00000    0.00000    0.45000
end

nwpw
  ### pseudopotential block begin ###
  ### pseudopotential block end   ###
  simulation_cell
     SC 15.0000
     boundary_conditions aperiodic
  end

  cutoff 50.0
  mult 1
  xc hf
  lmbfgs
  tolerances 1.0e-9 1.0e-9

  virtual 10
end
set nwpw:cif_filename H2

#set nwpw:CI_maxit_orb 15
#set nwpw:CI_maxit_linesearch 15
set pspw:HFX_screening_radius 14.0


set nwpw:2qintegrals .true.
set nwpw:3x3_virtual .true.

task pspw energy

================================================================================


                                         
                                         


             Northwest Computational Chemistry Package (NWChem) 7.2.3
             --------------------------------------------------------


                    Environmental Molecular Sciences Laboratory
                       Pacific Northwest National Laboratory
                                Richland, WA 99352

                              Copyright (c) 1994-2022
                       Pacific Northwest National Laboratory
                            Battelle Memorial Institute

             NWChem is an open-source computational chemistry package
                        distributed under the terms of the
                      Educational Community License (ECL) 2.0
             A copy of the license is included with this distribution
                              in the LICENSE.TXT file

                                  ACKNOWLEDGMENT
                                  --------------

            This software and its documentation were developed at the
            EMSL at Pacific Northwest National Laboratory, a multiprogram
            national laboratory, operated for the U.S. Department of Energy
            by Battelle under Contract Number DE-AC05-76RL01830. Support
            for this work was provided by the Department of Energy Office
            of Biological and Environmental Research, Office of Basic
            Energy Sciences, and the Office of Advanced Scientific Computing.


           Job information
           ---------------

    hostname        = mqs-al
    program         = nwchem
    date            = Mon Apr 14 15:24:56 2025

    compiled        = Thu_Oct_31_08:55:15_2024
    source          = /home/conda/feedstock_root/build_artifacts/nwchem_1730356057992/work
    nwchem branch   = 7.2.3
    nwchem revision = c400b04
    ga revision     = 5.8.0
    use scalapack   = T
    input           = H2-0.9.nw
    prefix          = pspw_hf_H2.
    data base       = ./pspw_hf_H2.db
    status          = startup
    nproc           =       24
    time left       =     -1s



           Memory information
           ------------------

    heap     =  157286398 doubles =   1200.0 Mbytes
    stack    =  157286395 doubles =   1200.0 Mbytes
    global   =    1310720 doubles =     10.0 Mbytes (distinct from heap & stack)
    total    =  315883513 doubles =   2410.0 Mbytes
    verify   = yes
    hardfail = no 


           Directory information
           ---------------------

  0 permanent = .
  0 scratch   = .




                                NWChem Input Module
                                -------------------


               swnc: e theory=pspw4 xc=hf formula=H2 charge=0 mult=1
               -----------------------------------------------------

 Scaling coordinates for geometry "geometry" by  1.889725989
 (inverse scale =  0.529177249)

  zeroes
  zeroes
  zeroes
  zeroes
  zeroes
  zeroes
  zeroes
  zeroes
  zeroes
  zeroes
  zeroes
  zeroes
  zeroes
  zeroes
  zeroes
  zeroes
  zeroes
  zeroes
  zeroes
  zeroes
  zeroes
  zeroes
  zeroes
  zeroes
  zeroes
  zeroes
  zeroes
  zeroes
  zeroes
  zeroes
  zeroes
  zeroes
  zeroes
  zeroes
  zeroes
  zeroes
  zeroes
  zeroes
  zeroes
  zeroes
  zeroes
  zeroes
  zeroes
  zeroes
  zeroes
  zeroes
  zeroes
  zeroes
 ORDER OF PRIMARY AXIS IS BEING SET TO 4
 D4H symmetry detected

          ------
          auto-z
          ------
  no constraints, skipping    0.0000000000000000     
  no constraints, skipping    0.0000000000000000     


                             Geometry "geometry" -> ""
                             -------------------------

 Output coordinates in angstroms (scale by  1.889725989 to convert to a.u.)

  No.       Tag          Charge          X              Y              Z
 ---- ---------------- ---------- -------------- -------------- --------------
    1 H                    1.0000     0.00000000     0.00000000    -0.45000000
    2 H                    1.0000     0.00000000     0.00000000     0.45000000

      Atomic Mass 
      ----------- 

      H                  1.007825


 Effective nuclear repulsion energy (a.u.)       0.5879747211

            Nuclear Dipole moment (a.u.) 
            ----------------------------
        X                 Y               Z
 ---------------- ---------------- ----------------
     0.0000000000     0.0000000000     0.0000000000

      Symmetry information
      --------------------

 Group name             D4h       
 Group number             28
 Group order              16
 No. of unique centers     1

      Symmetry unique atoms

     1



                                Z-matrix (autoz)
                                -------- 

 Units are Angstrom for bonds and degrees for angles

      Type          Name      I     J     K     L     M      Value
      ----------- --------  ----- ----- ----- ----- ----- ----------
    1 Stretch                  1     2                       0.90000


            XYZ format geometry
            -------------------
     2
 geometry
 H                     0.00000000     0.00000000    -0.45000000
 H                     0.00000000     0.00000000     0.45000000

          ****************************************************
          *                                                  *
          *               NWPW PSPW Calculation              *
          *                                                  *
          * [ (Grassmann/Stiefel manifold implementation)  ] *
          *                                                  *
          *      [ NorthWest Chemistry implementation ]      *
          *                                                  *
          *            version #5.10   06/12/02              *
          *                                                  *
          *    This code was developed by Eric J. Bylaska,   *
          *    and was based upon algorithms and code        *
          *    developed by the group of Prof. John H. Weare *
          *                                                  *
          ****************************************************
     >>>  JOB STARTED       AT Mon Apr 14 15:24:56 2025  <<<
          ================ input data ========================

 input psi filename:./pspw_hf_H2.movecs

 number of processors used:        24
 processor grid           :  24 x   1
 parallel mapping         :2d-hilbert
 parallel mapping         :  balanced
 number of threads        :         1
 parallel io              :       off

 options:
      boundary conditions  = aperiodic   (version4)
      electron spin        = restricted
      exchange-correlation = Hartree-Fock
      - HFX relaxed
      - HFX restricted orbitals :    1
      - HFX free-space coulomb solver


 elements involved in the cluster:
      1: H   valence charge:  1.0000  lmax=  1
             comment    : Parameterized (Chem.Phys.Lett., vol 322, page 447) Hamman psp
             pseudpotential type            :   0
             highest angular component      :   1
             local potential used           :   1
             number of non-local projections:   1
             aperiodic cutoff radius        :  1.000
             cutoff =   0.800   0.800


 total charge:   0.000

 atomic composition:
     H   :    2

 number of electrons: spin up=     1 (   1 per task)  down=     1 (   1 per task) (Fourier space)
 number of orbitals : spin up=     1 (   1 per task)  down=     1 (   1 per task) (Fourier space)

 supercell:
      cell_name:  cell_default                                      
      lattice:    a1=<  15.000   0.000   0.000 >
                  a2=<   0.000  15.000   0.000 >
                  a3=<   0.000   0.000  15.000 >
      reciprocal: b1=<   0.419   0.000   0.000 >
                  b2=<   0.000   0.419   0.000 >
                  b3=<   0.000   0.000   0.419 >
      lattice:    a=      15.000 b=     15.000 c=      15.000
                  alpha=  90.000 beta=  90.000 gamma=  90.000
                  omega=      3375.0

      density cutoff=100.000  fft= 70x 70x 70(    80618 waves     3359 per task)
      wavefnc cutoff= 50.000  fft= 70x 70x 70(    28526 waves     1188 per task)

 technical parameters:
      time step=      5.80     fictitious mass=  400000.0
      tolerance=0.100E-08 (energy)   0.100E-08 (density)
      maximum iterations =      1000 (   10 inner    100 outer )





== Energy Calculation ==


          ============ Grassmann lmbfgs iteration ============
     >>>  ITERATION STARTED AT Mon Apr 14 15:25:02 2025  <<<
    iter.           Energy         DeltaE       DeltaRho 
    ------------------------------------------------------
      10   -0.1119265884E+01   -0.69851E-04    0.19046E-02
      20   -0.1119416714E+01   -0.19044E-05    0.30205E-05
      30   -0.1119421476E+01   -0.73912E-07    0.58017E-08
      40   -0.1119421638E+01   -0.16403E-08    0.15739E-10
      50   -0.1119421640E+01   -0.81329E-09    0.36217E-12
  *** tolerance ok. iteration terminated
     >>>  ITERATION ENDED   AT Mon Apr 14 15:25:06 2025  <<<


==  Summary Of Results  ==

 number of electrons: spin up=    1.00000  down=    1.00000 (real space)

 total     energy    :  -0.1119421640E+01 (   -0.55971E+00/ion)
 total orbital energy:  -0.1101846665E+01 (   -0.11018E+01/electron)
 hartree   energy    :   0.1211099392E+01 (    0.12111E+01/electron)
 exc-corr  energy    :   0.0000000000E+00 (    0.00000E+00/electron)
 HF exchange energy  :  -0.6055496958E+00 (   -0.60555E+00/electron)
 ion-ion   energy    :   0.5879747211E+00 (    0.29399E+00/ion)

 kinetic (planewave) :   0.9357409318E+00 (    0.93574E+00/electron)
 V_local (planewave) :  -0.2987518388E+01 (   -0.29875E+01/electron)
 V_nl    (planewave) :  -0.2611686006E+00 (   -0.26117E+00/electron)
 V_Coul  (planewave) :   0.2422198783E+01 (    0.24222E+01/electron)
 V_xc.   (planewave) :   0.0000000000E+00 (    0.00000E+00/electron)
 K.S. HFX energy     :  -0.1211099392E+01 (   -0.12111E+01/electron)
 Virial Coefficient  :  -0.8832446858E+00

 orbital energies:
    -0.5509233E+00 ( -14.992eV)


== Virtual Orbital Calculation ==


 input epsi filename:./pspw_hf_H2.emovecs

 COVOs Mimimization
 ------------------
CI gradient algorithm =         3
maxit_sweeps          =         3
maxit_orb             =       120
maxit_linesearch      =        15
maxerror              = 0.100E-08

     orb,it,eci,eold,eci-eold=                    1                    1  -1.1409077344091494       -1.1409049557961779       -2.7786129714879593E-006 F
     orb,it,eci,eold,eci-eold=                    1                    2  -1.1410997640547893       -1.1409077344091494       -1.9202964563991287E-004 F
     orb,it,eci,eold,eci-eold=                    1                    3  -1.1411812147042339       -1.1410997640547893       -8.1450649444647638E-005 F
     orb,it,eci,eold,eci-eold=                    1                    4  -1.1412136989709678       -1.1411812147042339       -3.2484266733856515E-005 F
     orb,it,eci,eold,eci-eold=                    1                    5  -1.1412234556470020       -1.1412136989709678       -9.7566760342004955E-006 F
     orb,it,eci,eold,eci-eold=                    1                    6  -1.1412321220948083       -1.1412234556470020       -8.6664478062825623E-006 F
     orb,it,eci,eold,eci-eold=                    1                    7  -1.1412414510197371       -1.1412321220948083       -9.3289249287753506E-006 F
     orb,it,eci,eold,eci-eold=                    1                    8  -1.1412475840055527       -1.1412414510197371       -6.1329858156433659E-006 F
     orb,it,eci,eold,eci-eold=                    1                    9  -1.1412495139113541       -1.1412475840055527       -1.9299058013899639E-006 F
     orb,it,eci,eold,eci-eold=                    1                   10  -1.1412505477859627       -1.1412495139113541       -1.0338746085913897E-006 F
     orb,it,eci,eold,eci-eold=                    1                   11  -1.1412511764491942       -1.1412505477859627       -6.2866323147225955E-007 F
     orb,it,eci,eold,eci-eold=                    1                   12  -1.1412515313790070       -1.1412511764491942       -3.5492981287355008E-007 F
     orb,it,eci,eold,eci-eold=                    1                   13  -1.1412517569789080       -1.1412515313790070       -2.2559990098258709E-007 F
     orb,it,eci,eold,eci-eold=                    1                   14  -1.1412520137152962       -1.1412517569789080       -2.5673638814893707E-007 F
     orb,it,eci,eold,eci-eold=                    1                   15  -1.1412522069506519       -1.1412520137152962       -1.9323535571658113E-007 F
     orb,it,eci,eold,eci-eold=                    1                   16  -1.1412522642115914       -1.1412522069506519       -5.7260939545500378E-008 F
     orb,it,eci,eold,eci-eold=                    1                   17  -1.1412522788782238       -1.1412522642115914       -1.4666632353055320E-008 F
     orb,it,eci,eold,eci-eold=                    1                   18  -1.1412523499786280       -1.1412522788782238       -7.1100404230861614E-008 F
     orb,it,eci,eold,eci-eold=                    1                   19  -1.1412523720225312       -1.1412523499786280       -2.2043903147306310E-008 F
     orb,it,eci,eold,eci-eold=                    1                   20  -1.1412523845860778       -1.1412523720225312       -1.2563546647470503E-008 F
     orb,it,eci,eold,eci-eold=                    1                   21  -1.1412524375108992       -1.1412523845860778       -5.2924821414279677E-008 F
     orb,it,eci,eold,eci-eold=                    1                   22  -1.1412524455346029       -1.1412524375108992       -8.0237037014541102E-009 F
     orb,it,eci,eold,eci-eold=                    1                   23  -1.1412524482710471       -1.1412524455346029       -2.7364441823607422E-009 F
     orb,it,eci,eold,eci-eold=                    1                   24  -1.1412524727614883       -1.1412524482710471       -2.4490441230540227E-008 F
     orb,it,eci,eold,eci-eold=                    1                   25  -1.1412524861217852       -1.1412524727614883       -1.3360296868825117E-008 F
     orb,it,eci,eold,eci-eold=                    1                   26  -1.1412525084324423       -1.1412524861217852       -2.2310657099566811E-008 F
     orb,it,eci,eold,eci-eold=                    1                   27  -1.1412525209646538       -1.1412525084324423       -1.2532211490778877E-008 F
     orb,it,eci,eold,eci-eold=                    1                   28  -1.1412525293016298       -1.1412525209646538       -8.3369759984464054E-009 F
     orb,it,eci,eold,eci-eold=                    1                   29  -1.1412525316155147       -1.1412525293016298       -2.3138848614934204E-009 F
     orb,it,eci,eold,eci-eold=                    1                   30  -1.1412525390399511       -1.1412525316155147       -7.4244363990061402E-009 F
     orb,it,eci,eold,eci-eold=                    1                   31  -1.1412525439660679       -1.1412525390399511       -4.9261168477698902E-009 F
     orb,it,eci,eold,eci-eold=                    1                   32  -1.1412525446280841       -1.1412525439660679       -6.6201621962136414E-010 F
     orbital   1 current e=  0.441706E+00 error=0.585E-01 (eci= -0.114125254E+01 error=0.662E-09) iterations  32(   0 preconditioned, Ep,Sp= 20.0  200.0)
     orb,it,eci,eold,eci-eold=                    1                    1  -1.1412525679355683       -1.1412525446280841       -2.3307484164902803E-008 F
     orb,it,eci,eold,eci-eold=                    1                    2  -1.1412525690076882       -1.1412525679355683       -1.0721199483754162E-009 F
     orb,it,eci,eold,eci-eold=                    1                    3  -1.1412525694039881       -1.1412525690076882       -3.9629988179967768E-010 F
     orbital   1 current e=  0.441736E+00 error=0.306E-04 (eci= -0.114125257E+01 error=0.396E-09) iterations   3(   0 preconditioned, Ep,Sp= 20.0  200.0)
     orb,it,eci,eold,eci-eold=                    1                    1  -1.1412525737664221       -1.1412525694039881       -4.3624339696179959E-009 F
     orb,it,eci,eold,eci-eold=                    1                    2  -1.1412525755010314       -1.1412525737664221       -1.7346093450498756E-009 F
     orb,it,eci,eold,eci-eold=                    1                    3  -1.1412525768639408       -1.1412525755010314       -1.3629093409406323E-009 F
     orb,it,eci,eold,eci-eold=                    1                    4  -1.1412525768639408       -1.1412525768639408        0.0000000000000000      F
     orbital   1 current e=  0.441736E+00 error=0.827E-06 (eci= -0.114125258E+01 error=0.000E+00) iterations   4(   0 preconditioned, Ep,Sp= 20.0  200.0)
     orb,it,eci,eold,eci-eold=                    2                    1  -1.1264286667161290       -1.1263733929030226       -5.5273813106326841E-005 F
     orb,it,eci,eold,eci-eold=                    2                    2  -1.1264503017120633       -1.1264286667161290       -2.1634995934327605E-005 F
     orb,it,eci,eold,eci-eold=                    2                    3  -1.1264635522269848       -1.1264503017120633       -1.3250514921514522E-005 F
     orb,it,eci,eold,eci-eold=                    2                    4  -1.1264718664698636       -1.1264635522269848       -8.3142428788374190E-006 F
     orb,it,eci,eold,eci-eold=                    2                    5  -1.1264749413204236       -1.1264718664698636       -3.0748505599476061E-006 F
     orb,it,eci,eold,eci-eold=                    2                    6  -1.1264760284599376       -1.1264749413204236       -1.0871395139666618E-006 F
     orb,it,eci,eold,eci-eold=                    2                    7  -1.1264766798339849       -1.1264760284599376       -6.5137404736681503E-007 F
     orb,it,eci,eold,eci-eold=                    2                    8  -1.1264789309393017       -1.1264766798339849       -2.2511053168194906E-006 F
     orb,it,eci,eold,eci-eold=                    2                    9  -1.1264804987924069       -1.1264789309393017       -1.5678531051221967E-006 F
     orb,it,eci,eold,eci-eold=                    2                   10  -1.1264819977739868       -1.1264804987924069       -1.4989815799726358E-006 F
     orb,it,eci,eold,eci-eold=                    2                   11  -1.1264827143163991       -1.1264819977739868       -7.1654241229346383E-007 F
     orb,it,eci,eold,eci-eold=                    2                   12  -1.1264837892501407       -1.1264827143163991       -1.0749337415738580E-006 F
     orb,it,eci,eold,eci-eold=                    2                   13  -1.1264844087836448       -1.1264837892501407       -6.1953350405374863E-007 F
     orb,it,eci,eold,eci-eold=                    2                   14  -1.1264850235817574       -1.1264844087836448       -6.1479811264142370E-007 F
     orb,it,eci,eold,eci-eold=                    2                   15  -1.1264853558333141       -1.1264850235817574       -3.3225155671168238E-007 F
     orb,it,eci,eold,eci-eold=                    2                   16  -1.1264858063849696       -1.1264853558333141       -4.5055165553975485E-007 F
     orb,it,eci,eold,eci-eold=                    2                   17  -1.1264860583939813       -1.1264858063849696       -2.5200901165867151E-007 F
     orb,it,eci,eold,eci-eold=                    2                   18  -1.1264863625290753       -1.1264860583939813       -3.0413509399807026E-007 F
     orb,it,eci,eold,eci-eold=                    2                   19  -1.1264865191485294       -1.1264863625290753       -1.5661945407252631E-007 F
     orb,it,eci,eold,eci-eold=                    2                   20  -1.1264867100825859       -1.1264865191485294       -1.9093405656533946E-007 F
     orb,it,eci,eold,eci-eold=                    2                   21  -1.1264868115377911       -1.1264867100825859       -1.0145520512594430E-007 F
     orb,it,eci,eold,eci-eold=                    2                   22  -1.1264869446632479       -1.1264868115377911       -1.3312545688037858E-007 F
     orb,it,eci,eold,eci-eold=                    2                   23  -1.1264870150340038       -1.1264869446632479       -7.0370755889115344E-008 F
     orb,it,eci,eold,eci-eold=                    2                   24  -1.1264870967518861       -1.1264870150340038       -8.1717882238763195E-008 F
     orb,it,eci,eold,eci-eold=                    2                   25  -1.1264871407011405       -1.1264870967518861       -4.3949254457942288E-008 F
     orb,it,eci,eold,eci-eold=                    2                   26  -1.1264871928107985       -1.1264871407011405       -5.2109657922017050E-008 F
     orb,it,eci,eold,eci-eold=                    2                   27  -1.1264872217577906       -1.1264871928107985       -2.8946992136624772E-008 F
     orb,it,eci,eold,eci-eold=                    2                   28  -1.1264872594144966       -1.1264872217577906       -3.7656705975663840E-008 F
     orb,it,eci,eold,eci-eold=                    2                   29  -1.1264872796915177       -1.1264872594144966       -2.0277021173242815E-008 F
     orb,it,eci,eold,eci-eold=                    2                   30  -1.1264873029962696       -1.1264872796915177       -2.3304751906039201E-008 F
     orb,it,eci,eold,eci-eold=                    2                   31  -1.1264873156564048       -1.1264873029962696       -1.2660135162434472E-008 F
     orb,it,eci,eold,eci-eold=                    2                   32  -1.1264873311863570       -1.1264873156564048       -1.5529952213100273E-008 F
     orb,it,eci,eold,eci-eold=                    2                   33  -1.1264873396708064       -1.1264873311863570       -8.4844493652980191E-009 F
     orb,it,eci,eold,eci-eold=                    2                   34  -1.1264873511711644       -1.1264873396708064       -1.1500357999238986E-008 F
     orb,it,eci,eold,eci-eold=                    2                   35  -1.1264873573756413       -1.1264873511711644       -6.2044769322255888E-009 F
     orb,it,eci,eold,eci-eold=                    2                   36  -1.1264873645762064       -1.1264873573756413       -7.2005650331163906E-009 F
     orb,it,eci,eold,eci-eold=                    2                   37  -1.1264873683426480       -1.1264873645762064       -3.7664416030480652E-009 F
     orb,it,eci,eold,eci-eold=                    2                   38  -1.1264873730126137       -1.1264873683426480       -4.6699657474391643E-009 F
     orb,it,eci,eold,eci-eold=                    2                   39  -1.1264873730126137       -1.1264873730126137        0.0000000000000000      F
     orbital   2 current e=  0.834070E+00 error=0.138E+00 (eci= -0.112648737E+01 error=0.000E+00) iterations  39(   0 preconditioned, Ep,Sp= 20.0  200.0)
     orb,it,eci,eold,eci-eold=                    2                    1  -1.1264873802062518       -1.1264873721382749       -8.0679769531855072E-009 F
     orb,it,eci,eold,eci-eold=                    2                    2  -1.1264873802062518       -1.1264873802062518        0.0000000000000000      F
     orbital   2 current e=  0.834169E+00 error=0.985E-04 (eci= -0.112648738E+01 error=0.000E+00) iterations   2(   0 preconditioned, Ep,Sp= 20.0  200.0)
     orb,it,eci,eold,eci-eold=                    2                    1  -1.1264873802059734       -1.1264873802059734        0.0000000000000000      F
     orbital   2 current e=  0.834196E+00 error=0.268E-04 (eci= -0.112648738E+01 error=0.000E+00) iterations   1(   0 preconditioned, Ep,Sp= 20.0  200.0)
     orb,it,eci,eold,eci-eold=                    3                    1  -1.1251953972928876       -1.1251636600164883       -3.1737276399379510E-005 F
     orb,it,eci,eold,eci-eold=                    3                    2  -1.1252017971658452       -1.1251953972928876       -6.3998729575853730E-006 F
     orb,it,eci,eold,eci-eold=                    3                    3  -1.1252085750381076       -1.1252017971658452       -6.7778722623312859E-006 F
     orb,it,eci,eold,eci-eold=                    3                    4  -1.1252114710970347       -1.1252085750381076       -2.8960589271154191E-006 F
     orb,it,eci,eold,eci-eold=                    3                    5  -1.1252117673077147       -1.1252114710970347       -2.9621067998419903E-007 F
     orb,it,eci,eold,eci-eold=                    3                    6  -1.1252119915977308       -1.1252117673077147       -2.2429001611534716E-007 F
     orb,it,eci,eold,eci-eold=                    3                    7  -1.1252138627835107       -1.1252119915977308       -1.8711857798781040E-006 F
     orb,it,eci,eold,eci-eold=                    3                    8  -1.1252145717809787       -1.1252138627835107       -7.0899746806851738E-007 F
     orb,it,eci,eold,eci-eold=                    3                    9  -1.1252153249652388       -1.1252145717809787       -7.5318426007164874E-007 F
     orb,it,eci,eold,eci-eold=                    3                   10  -1.1252158227225602       -1.1252153249652388       -4.9775732136048134E-007 F
     orb,it,eci,eold,eci-eold=                    3                   11  -1.1252162664521936       -1.1252158227225602       -4.4372963348138228E-007 F
     orb,it,eci,eold,eci-eold=                    3                   12  -1.1252164911761806       -1.1252162664521936       -2.2472398697459539E-007 F
     orb,it,eci,eold,eci-eold=                    3                   13  -1.1252169114878510       -1.1252164911761806       -4.2031167035716521E-007 F
     orb,it,eci,eold,eci-eold=                    3                   14  -1.1252169496244377       -1.1252169114878510       -3.8136586777426373E-008 F
     orb,it,eci,eold,eci-eold=                    3                   15  -1.1252170463934346       -1.1252169496244377       -9.6768996815654873E-008 F
     orb,it,eci,eold,eci-eold=                    3                   16  -1.1252173381657495       -1.1252170463934346       -2.9177231497534706E-007 F
     orb,it,eci,eold,eci-eold=                    3                   17  -1.1252174004506648       -1.1252173381657495       -6.2284915225419013E-008 F
     orb,it,eci,eold,eci-eold=                    3                   18  -1.1252174529699257       -1.1252174004506648       -5.2519260940186996E-008 F
     orb,it,eci,eold,eci-eold=                    3                   19  -1.1252176521419315       -1.1252174529699257       -1.9917200577701522E-007 F
     orb,it,eci,eold,eci-eold=                    3                   20  -1.1252176837851029       -1.1252176521419315       -3.1643171416462224E-008 F
     orb,it,eci,eold,eci-eold=                    3                   21  -1.1252177035620989       -1.1252176837851029       -1.9776996040832273E-008 F
     orb,it,eci,eold,eci-eold=                    3                   22  -1.1252178441811616       -1.1252177035620989       -1.4061906261630952E-007 F
     orb,it,eci,eold,eci-eold=                    3                   23  -1.1252178642568837       -1.1252178441811616       -2.0075722195755930E-008 F
     orb,it,eci,eold,eci-eold=                    3                   24  -1.1252178651884339       -1.1252178642568837       -9.3155017033552667E-010 F
     orbital   3 current e=  0.853966E+00 error=0.886E-01 (eci= -0.112521787E+01 error=0.932E-09) iterations  24(   0 preconditioned, Ep,Sp= 20.0  200.0)
     orb,it,eci,eold,eci-eold=                    3                    1  -1.1252178994502580       -1.1252178651884339       -3.4261824044534706E-008 F
     orb,it,eci,eold,eci-eold=                    3                    2  -1.1252178999345863       -1.1252178994502580       -4.8432835519918171E-010 F
     orbital   3 current e=  0.853347E+00 error=0.618E-03 (eci= -0.112521790E+01 error=0.484E-09) iterations   2(   0 preconditioned, Ep,Sp= 20.0  200.0)
     orb,it,eci,eold,eci-eold=                    3                    1  -1.1252179161070845       -1.1252178999345863       -1.6172498229494181E-008 F
     orb,it,eci,eold,eci-eold=                    3                    2  -1.1252179172005317       -1.1252179161070845       -1.0934471106338606E-009 F
     orb,it,eci,eold,eci-eold=                    3                    3  -1.1252181913100712       -1.1252179172005317       -2.7410953951090278E-007 F
     orb,it,eci,eold,eci-eold=                    3                    4  -1.1252182931310459       -1.1252181913100712       -1.0182097476274521E-007 F
     orb,it,eci,eold,eci-eold=                    3                    5  -1.1252183223023871       -1.1252182931310459       -2.9171341120459715E-008 F
     orb,it,eci,eold,eci-eold=                    3                    6  -1.1252183260188144       -1.1252183223023871       -3.7164273880563314E-009 F
     orb,it,eci,eold,eci-eold=                    3                    7  -1.1252183272569067       -1.1252183260188144       -1.2380922953525442E-009 F
     orb,it,eci,eold,eci-eold=                    3                    8  -1.1252183436163583       -1.1252183272569067       -1.6359451571190675E-008 F
     orb,it,eci,eold,eci-eold=                    3                    9  -1.1252183558096420       -1.1252183436163583       -1.2193283716044334E-008 F
     orb,it,eci,eold,eci-eold=                    3                   10  -1.1252183603162651       -1.1252183558096420       -4.5066230747181635E-009 F
     orb,it,eci,eold,eci-eold=                    3                   11  -1.1252183618118672       -1.1252183603162651       -1.4956020866208064E-009 F
     orb,it,eci,eold,eci-eold=                    3                   12  -1.1252183618118672       -1.1252183618118672        0.0000000000000000      F
     orbital   3 current e=  0.850397E+00 error=0.295E-02 (eci= -0.112521836E+01 error=0.000E+00) iterations  12(   0 preconditioned, Ep,Sp= 20.0  200.0)
     orb,it,eci,eold,eci-eold=                    4                    1  -1.1251954060032745       -1.1251636596513208       -3.1746351953687579E-005 F
     orb,it,eci,eold,eci-eold=                    4                    2  -1.1252018069214214       -1.1251954060032745       -6.4009181468538401E-006 F
     orb,it,eci,eold,eci-eold=                    4                    3  -1.1252085882724878       -1.1252018069214214       -6.7813510664649357E-006 F
     orb,it,eci,eold,eci-eold=                    4                    4  -1.1252114816452088       -1.1252085882724878       -2.8933727209690119E-006 F
     orb,it,eci,eold,eci-eold=                    4                    5  -1.1252117863579181       -1.1252114816452088       -3.0471270928700278E-007 F
     orb,it,eci,eold,eci-eold=                    4                    6  -1.1252120156261796       -1.1252117863579181       -2.2926826148683688E-007 F
     orb,it,eci,eold,eci-eold=                    4                    7  -1.1252138662473730       -1.1252120156261796       -1.8506211933999595E-006 F
     orb,it,eci,eold,eci-eold=                    4                    8  -1.1252145614028144       -1.1252138662473730       -6.9515544143250452E-007 F
     orb,it,eci,eold,eci-eold=                    4                    9  -1.1252153189397336       -1.1252145614028144       -7.5753691919366872E-007 F
     orb,it,eci,eold,eci-eold=                    4                   10  -1.1252158214414663       -1.1252153189397336       -5.0250173266874754E-007 F
     orb,it,eci,eold,eci-eold=                    4                   11  -1.1252162629624827       -1.1252158214414663       -4.4152101641437014E-007 F
     orb,it,eci,eold,eci-eold=                    4                   12  -1.1252164857054106       -1.1252162629624827       -2.2274292788004857E-007 F
     orb,it,eci,eold,eci-eold=                    4                   13  -1.1252169074932947       -1.1252164857054106       -4.2178788417501778E-007 F
     orb,it,eci,eold,eci-eold=                    4                   14  -1.1252169470969742       -1.1252169074932947       -3.9603679446997830E-008 F
     orb,it,eci,eold,eci-eold=                    4                   15  -1.1252170439531146       -1.1252169470969742       -9.6856140441303751E-008 F
     orb,it,eci,eold,eci-eold=                    4                   16  -1.1252173347643550       -1.1252170439531146       -2.9081124042207307E-007 F
     orb,it,eci,eold,eci-eold=                    4                   17  -1.1252173992193106       -1.1252173347643550       -6.4454955595039110E-008 F
     orb,it,eci,eold,eci-eold=                    4                   18  -1.1252174535739743       -1.1252173992193106       -5.4354663658884306E-008 F
     orb,it,eci,eold,eci-eold=                    4                   19  -1.1252176512837577       -1.1252174535739743       -1.9770978343380818E-007 F
     orb,it,eci,eold,eci-eold=                    4                   20  -1.1252176827893277       -1.1252176512837577       -3.1505569930700972E-008 F
     orb,it,eci,eold,eci-eold=                    4                   21  -1.1252177038673374       -1.1252176827893277       -2.1078009782016238E-008 F
     orb,it,eci,eold,eci-eold=                    4                   22  -1.1252178440474321       -1.1252177038673374       -1.4018009464322745E-007 F
     orb,it,eci,eold,eci-eold=                    4                   23  -1.1252178637890149       -1.1252178440474321       -1.9741582812926595E-008 F
     orb,it,eci,eold,eci-eold=                    4                   24  -1.1252178653299880       -1.1252178637890149       -1.5409731268789528E-009 F
     orb,it,eci,eold,eci-eold=                    4                   25  -1.1252179636458788       -1.1252178653299880       -9.8315890761924152E-008 F
     orb,it,eci,eold,eci-eold=                    4                   26  -1.1252180053389926       -1.1252179636458788       -4.1693113850271857E-008 F
     orb,it,eci,eold,eci-eold=                    4                   27  -1.1252180142249240       -1.1252180053389926       -8.8859313240874371E-009 F
     orb,it,eci,eold,eci-eold=                    4                   28  -1.1252180739184539       -1.1252180142249240       -5.9693529896875930E-008 F
     orb,it,eci,eold,eci-eold=                    4                   29  -1.1252180983840674       -1.1252180739184539       -2.4465613535085140E-008 F
     orb,it,eci,eold,eci-eold=                    4                   30  -1.1252181119195639       -1.1252180983840674       -1.3535496501404509E-008 F
     orb,it,eci,eold,eci-eold=                    4                   31  -1.1252181574605866       -1.1252181119195639       -4.5541022730688496E-008 F
     orb,it,eci,eold,eci-eold=                    4                   32  -1.1252181661898879       -1.1252181574605866       -8.7293012818179250E-009 F
     orb,it,eci,eold,eci-eold=                    4                   33  -1.1252181721828998       -1.1252181661898879       -5.9930118645468156E-009 F
     orb,it,eci,eold,eci-eold=                    4                   34  -1.1252182084372242       -1.1252181721828998       -3.6254324431439500E-008 F
     orb,it,eci,eold,eci-eold=                    4                   35  -1.1252182183927564       -1.1252182084372242       -9.9555321764199789E-009 F
     orb,it,eci,eold,eci-eold=                    4                   36  -1.1252182207066093       -1.1252182183927564       -2.3138528870703112E-009 F
     orb,it,eci,eold,eci-eold=                    4                   37  -1.1252182460006659       -1.1252182207066093       -2.5294056626989914E-008 F
     orb,it,eci,eold,eci-eold=                    4                   38  -1.1252182566244560       -1.1252182460006659       -1.0623790069885786E-008 F
     orb,it,eci,eold,eci-eold=                    4                   39  -1.1252182596436389       -1.1252182566244560       -3.0191829036851914E-009 F
     orb,it,eci,eold,eci-eold=                    4                   40  -1.1252182770419197       -1.1252182596436389       -1.7398280816038891E-008 F
     orb,it,eci,eold,eci-eold=                    4                   41  -1.1252182828924404       -1.1252182770419197       -5.8505207345405097E-009 F
     orb,it,eci,eold,eci-eold=                    4                   42  -1.1252182852194288       -1.1252182828924404       -2.3269883797638613E-009 F
     orb,it,eci,eold,eci-eold=                    4                   43  -1.1252182978257348       -1.1252182852194288       -1.2606305999085521E-008 F
     orb,it,eci,eold,eci-eold=                    4                   44  -1.1252183015977091       -1.1252182978257348       -3.7719742884689822E-009 F
     orb,it,eci,eold,eci-eold=                    4                   45  -1.1252183032124439       -1.1252183015977091       -1.6147347903228138E-009 F
     orb,it,eci,eold,eci-eold=                    4                   46  -1.1252183128462709       -1.1252183032124439       -9.6338270694218409E-009 F
     orb,it,eci,eold,eci-eold=                    4                   47  -1.1252183151928947       -1.1252183128462709       -2.3466237841773818E-009 F
     orb,it,eci,eold,eci-eold=                    4                   48  -1.1252183158461495       -1.1252183151928947       -6.5325478360023226E-010 F
     orbital   4 current e=  0.849831E+00 error=0.927E-01 (eci= -0.112521832E+01 error=0.653E-09) iterations  48(   0 preconditioned, Ep,Sp= 20.0  200.0)
     orb,it,eci,eold,eci-eold=                    4                    1  -1.1252183256728741       -1.1252183158461495       -9.8267245451921781E-009 F
     orb,it,eci,eold,eci-eold=                    4                    2  -1.1252183308346830       -1.1252183256728741       -5.1618089802474287E-009 F
     orb,it,eci,eold,eci-eold=                    4                    3  -1.1252183457819249       -1.1252183308346830       -1.4947241888663143E-008 F
     orb,it,eci,eold,eci-eold=                    4                    4  -1.1252183462856677       -1.1252183457819249       -5.0374282523080183E-010 F
     orbital   4 current e=  0.850087E+00 error=0.255E-03 (eci= -0.112521835E+01 error=0.504E-09) iterations   4(   0 preconditioned, Ep,Sp= 20.0  200.0)
     orb,it,eci,eold,eci-eold=                    4                    1  -1.1252183595362926       -1.1252183462856677       -1.3250624819605150E-008 F
     orb,it,eci,eold,eci-eold=                    4                    2  -1.1252183610290207       -1.1252183595362926       -1.4927281632992617E-009 F
     orb,it,eci,eold,eci-eold=                    4                    3  -1.1252183618203184       -1.1252183610290207       -7.9129769403607497E-010 F
     orbital   4 current e=  0.850219E+00 error=0.132E-03 (eci= -0.112521836E+01 error=0.791E-09) iterations   3(   0 preconditioned, Ep,Sp= 20.0  200.0)
     orb,it,eci,eold,eci-eold=                    5                    1  -1.1206379501230472       -1.1206279681287892       -9.9819942580570142E-006 F
     orb,it,eci,eold,eci-eold=                    5                    2  -1.1206388449511175       -1.1206379501230472       -8.9482807030805134E-007 F
     orb,it,eci,eold,eci-eold=                    5                    3  -1.1206392197846955       -1.1206388449511175       -3.7483357795409233E-007 F
     orb,it,eci,eold,eci-eold=                    5                    4  -1.1206402644371909       -1.1206392197846955       -1.0446524953966474E-006 F
     orb,it,eci,eold,eci-eold=                    5                    5  -1.1206407398973612       -1.1206402644371909       -4.7546017034605370E-007 F
     orb,it,eci,eold,eci-eold=                    5                    6  -1.1206411032154284       -1.1206407398973612       -3.6331806718692405E-007 F
     orb,it,eci,eold,eci-eold=                    5                    7  -1.1206413616143334       -1.1206411032154284       -2.5839890493983830E-007 F
     orb,it,eci,eold,eci-eold=                    5                    8  -1.1206416737350084       -1.1206413616143334       -3.1212067508334940E-007 F
     orb,it,eci,eold,eci-eold=                    5                    9  -1.1206418046222222       -1.1206416737350084       -1.3088721373399892E-007 F
     orb,it,eci,eold,eci-eold=                    5                   10  -1.1206419579270530       -1.1206418046222222       -1.5330483082998114E-007 F
     orb,it,eci,eold,eci-eold=                    5                   11  -1.1206419900123554       -1.1206419579270530       -3.2085302414941452E-008 F
     orb,it,eci,eold,eci-eold=                    5                   12  -1.1206421176384205       -1.1206419900123554       -1.2762606504956864E-007 F
     orb,it,eci,eold,eci-eold=                    5                   13  -1.1206421966105957       -1.1206421176384205       -7.8972175243663401E-008 F
     orb,it,eci,eold,eci-eold=                    5                   14  -1.1206422284781099       -1.1206421966105957       -3.1867514183048229E-008 F
     orb,it,eci,eold,eci-eold=                    5                   15  -1.1206423501859748       -1.1206422284781099       -1.2170786489740237E-007 F
     orb,it,eci,eold,eci-eold=                    5                   16  -1.1206423619363131       -1.1206423501859748       -1.1750338257954240E-008 F
     orb,it,eci,eold,eci-eold=                    5                   17  -1.1206423679791664       -1.1206423619363131       -6.0428533288359176E-009 F
     orb,it,eci,eold,eci-eold=                    5                   18  -1.1206424414049458       -1.1206423679791664       -7.3425779456570694E-008 F
     orb,it,eci,eold,eci-eold=                    5                   19  -1.1206424875968177       -1.1206424414049458       -4.6191871883038971E-008 F
     orb,it,eci,eold,eci-eold=                    5                   20  -1.1206425171372107       -1.1206424875968177       -2.9540393020610622E-008 F
     orb,it,eci,eold,eci-eold=                    5                   21  -1.1206425305512253       -1.1206425171372107       -1.3414014565782395E-008 F
     orb,it,eci,eold,eci-eold=                    5                   22  -1.1206425621484022       -1.1206425305512253       -3.1597176874953448E-008 F
     orb,it,eci,eold,eci-eold=                    5                   23  -1.1206425643264608       -1.1206425621484022       -2.1780586223485443E-009 F
     orb,it,eci,eold,eci-eold=                    5                   24  -1.1206425653431920       -1.1206425643264608       -1.0167311437214721E-009 F
     orb,it,eci,eold,eci-eold=                    5                   25  -1.1206425823986164       -1.1206425653431920       -1.7055424406109410E-008 F
     orb,it,eci,eold,eci-eold=                    5                   26  -1.1206425847201864       -1.1206425823986164       -2.3215700473144807E-009 F
     orb,it,eci,eold,eci-eold=                    5                   27  -1.1206425852632673       -1.1206425847201864       -5.4308091357313515E-010 F
     orbital   5 current e=  0.186810E+01 error=0.187E+00 (eci= -0.112064259E+01 error=0.543E-09) iterations  27(   0 preconditioned, Ep,Sp= 20.0  200.0)
     orb,it,eci,eold,eci-eold=                    5                    1  -1.1206425997417901       -1.1206425852632673       -1.4478522825100981E-008 F
     orb,it,eci,eold,eci-eold=                    5                    2  -1.1206426097591617       -1.1206425997417901       -1.0017371598891600E-008 F
     orb,it,eci,eold,eci-eold=                    5                    3  -1.1206426471630460       -1.1206426097591617       -3.7403884212139360E-008 F
     orb,it,eci,eold,eci-eold=                    5                    4  -1.1206426588456737       -1.1206426471630460       -1.1682627754083796E-008 F
     orb,it,eci,eold,eci-eold=                    5                    5  -1.1206426631170743       -1.1206426588456737       -4.2714005665800414E-009 F
     orb,it,eci,eold,eci-eold=                    5                    6  -1.1206426641483012       -1.1206426631170743       -1.0312268816647929E-009 F
     orb,it,eci,eold,eci-eold=                    5                    7  -1.1206426641483012       -1.1206426641483012        0.0000000000000000      F
     orbital   5 current e=  0.186511E+01 error=0.300E-02 (eci= -0.112064266E+01 error=0.000E+00) iterations   7(   0 preconditioned, Ep,Sp= 20.0  200.0)
     orb,it,eci,eold,eci-eold=                    5                    1  -1.1206426649479366       -1.1206426636594782       -1.2884584510430841E-009 F
     orb,it,eci,eold,eci-eold=                    5                    2  -1.1206426649479366       -1.1206426649479366        0.0000000000000000      F
     orbital   5 current e=  0.186487E+01 error=0.231E-03 (eci= -0.112064266E+01 error=0.000E+00) iterations   2(   0 preconditioned, Ep,Sp= 20.0  200.0)
     orb,it,eci,eold,eci-eold=                    6                    1  -1.1203669520627795       -1.1203586530678147       -8.2989949647949146E-006 F
     orb,it,eci,eold,eci-eold=                    6                    2  -1.1203684894241319       -1.1203669520627795       -1.5373613524438667E-006 F
     orb,it,eci,eold,eci-eold=                    6                    3  -1.1203707946591173       -1.1203684894241319       -2.3052349853447396E-006 F
     orb,it,eci,eold,eci-eold=                    6                    4  -1.1203711001168859       -1.1203707946591173       -3.0545776863455387E-007 F
     orb,it,eci,eold,eci-eold=                    6                    5  -1.1203719906178666       -1.1203711001168859       -8.9050098073251149E-007 F
     orb,it,eci,eold,eci-eold=                    6                    6  -1.1203725418395951       -1.1203719906178666       -5.5122172848420803E-007 F
     orb,it,eci,eold,eci-eold=                    6                    7  -1.1203728880091055       -1.1203725418395951       -3.4616951039012633E-007 F
     orb,it,eci,eold,eci-eold=                    6                    8  -1.1203742117134023       -1.1203728880091055       -1.3237042968405888E-006 F
     orb,it,eci,eold,eci-eold=                    6                    9  -1.1203742296615775       -1.1203742117134023       -1.7948175168314151E-008 F
     orb,it,eci,eold,eci-eold=                    6                   10  -1.1203742607617957       -1.1203742296615775       -3.1100218178536920E-008 F
     orb,it,eci,eold,eci-eold=                    6                   11  -1.1203751747377821       -1.1203742607617957       -9.1397598644959999E-007 F
     orb,it,eci,eold,eci-eold=                    6                   12  -1.1203753956687648       -1.1203751747377821       -2.2093098261954935E-007 F
     orb,it,eci,eold,eci-eold=                    6                   13  -1.1203754472107734       -1.1203753956687648       -5.1542008661087380E-008 F
     orb,it,eci,eold,eci-eold=                    6                   14  -1.1203759403325337       -1.1203754472107734       -4.9312176031435229E-007 F
     orb,it,eci,eold,eci-eold=                    6                   15  -1.1203760331720407       -1.1203759403325337       -9.2839506971031938E-008 F
     orb,it,eci,eold,eci-eold=                    6                   16  -1.1203760566827410       -1.1203760331720407       -2.3510700275508611E-008 F
     orb,it,eci,eold,eci-eold=                    6                   17  -1.1203764400390452       -1.1203760566827410       -3.8335630425656575E-007 F
     orb,it,eci,eold,eci-eold=                    6                   18  -1.1203765210774501       -1.1203764400390452       -8.1038404875499737E-008 F
     orb,it,eci,eold,eci-eold=                    6                   19  -1.1203765454624770       -1.1203765210774501       -2.4385026886619698E-008 F
     orb,it,eci,eold,eci-eold=                    6                   20  -1.1203768429232881       -1.1203765454624770       -2.9746081109394140E-007 F
     orb,it,eci,eold,eci-eold=                    6                   21  -1.1203770025426578       -1.1203768429232881       -1.5961936972175295E-007 F
     orb,it,eci,eold,eci-eold=                    6                   22  -1.1203771206691180       -1.1203770025426578       -1.1812646016906569E-007 F
     orb,it,eci,eold,eci-eold=                    6                   23  -1.1203771707158052       -1.1203771206691180       -5.0046687238847198E-008 F
     orb,it,eci,eold,eci-eold=                    6                   24  -1.1203772665659539       -1.1203771707158052       -9.5850148706944083E-008 F
     orb,it,eci,eold,eci-eold=                    6                   25  -1.1203773277996363       -1.1203772665659539       -6.1233682346895080E-008 F
     orb,it,eci,eold,eci-eold=                    6                   26  -1.1203773998873023       -1.1203773277996363       -7.2087666058706645E-008 F
     orb,it,eci,eold,eci-eold=                    6                   27  -1.1203774363666608       -1.1203773998873023       -3.6479358422880637E-008 F
     orb,it,eci,eold,eci-eold=                    6                   28  -1.1203774858047373       -1.1203774363666608       -4.9438076521468588E-008 F
     orb,it,eci,eold,eci-eold=                    6                   29  -1.1203775104953499       -1.1203774858047373       -2.4690612665523304E-008 F
     orb,it,eci,eold,eci-eold=                    6                   30  -1.1203775396121556       -1.1203775104953499       -2.9116805633222498E-008 F
     orb,it,eci,eold,eci-eold=                    6                   31  -1.1203775555764992       -1.1203775396121556       -1.5964343624830235E-008 F
     orb,it,eci,eold,eci-eold=                    6                   32  -1.1203775779273843       -1.1203775555764992       -2.2350885142685684E-008 F
     orb,it,eci,eold,eci-eold=                    6                   33  -1.1203775889797558       -1.1203775779273843       -1.1052371462483279E-008 F
     orb,it,eci,eold,eci-eold=                    6                   34  -1.1203776009462689       -1.1203775889797558       -1.1966513113748078E-008 F
     orb,it,eci,eold,eci-eold=                    6                   35  -1.1203776073797220       -1.1203776009462689       -6.4334531035825648E-009 F
     orb,it,eci,eold,eci-eold=                    6                   36  -1.1203776170578976       -1.1203776073797220       -9.6781755942743075E-009 F
     orb,it,eci,eold,eci-eold=                    6                   37  -1.1203776223400550       -1.1203776170578976       -5.2821573781614006E-009 F
     orb,it,eci,eold,eci-eold=                    6                   38  -1.1203776283499982       -1.1203776223400550       -6.0099432097615590E-009 F
     orb,it,eci,eold,eci-eold=                    6                   39  -1.1203776315252079       -1.1203776283499982       -3.1752096507631222E-009 F
     orb,it,eci,eold,eci-eold=                    6                   40  -1.1203776362099047       -1.1203776315252079       -4.6846968526637056E-009 F
     orb,it,eci,eold,eci-eold=                    6                   41  -1.1203776362099047       -1.1203776362099047        0.0000000000000000      F
     orbital   6 current e=  0.195739E+01 error=0.347E+00 (eci= -0.112037764E+01 error=0.000E+00) iterations  41(   0 preconditioned, Ep,Sp= 20.0  200.0)
     orb,it,eci,eold,eci-eold=                    6                    1  -1.1203776457852226       -1.1203776356071833       -1.0178039300257069E-008 F
     orb,it,eci,eold,eci-eold=                    6                    2  -1.1203776463859143       -1.1203776457852226       -6.0069171858856407E-010 F
     orbital   6 current e=  0.195802E+01 error=0.632E-03 (eci= -0.112037765E+01 error=0.601E-09) iterations   2(   0 preconditioned, Ep,Sp= 20.0  200.0)
     orb,it,eci,eold,eci-eold=                    6                    1  -1.1203776515674924       -1.1203776463859143       -5.1815780555131141E-009 F
     orb,it,eci,eold,eci-eold=                    6                    2  -1.1203776515674924       -1.1203776515674924        0.0000000000000000      F
     orbital   6 current e=  0.195836E+01 error=0.345E-03 (eci= -0.112037765E+01 error=0.000E+00) iterations   2(   0 preconditioned, Ep,Sp= 20.0  200.0)
     orb,it,eci,eold,eci-eold=                    7                    1  -1.1202687892063801       -1.1202681922288324       -5.9697754761778299E-007 F
     orb,it,eci,eold,eci-eold=                    7                    2  -1.1202723265234615       -1.1202687892063801       -3.5373170814700927E-006 F
     orb,it,eci,eold,eci-eold=                    7                    3  -1.1202743071539030       -1.1202723265234615       -1.9806304414338172E-006 F
     orb,it,eci,eold,eci-eold=                    7                    4  -1.1202755496362262       -1.1202743071539030       -1.2424823232493054E-006 F
     orb,it,eci,eold,eci-eold=                    7                    5  -1.1202760926887427       -1.1202755496362262       -5.4305251651065589E-007 F
     orb,it,eci,eold,eci-eold=                    7                    6  -1.1202762147391292       -1.1202760926887427       -1.2205038646406763E-007 F
     orb,it,eci,eold,eci-eold=                    7                    7  -1.1202764573406898       -1.1202762147391292       -2.4260156061828297E-007 F
     orb,it,eci,eold,eci-eold=                    7                    8  -1.1202766215196849       -1.1202764573406898       -1.6417899506571132E-007 F
     orb,it,eci,eold,eci-eold=                    7                    9  -1.1202766698576541       -1.1202766215196849       -4.8337969182910001E-008 F
     orb,it,eci,eold,eci-eold=                    7                   10  -1.1202766906744253       -1.1202766698576541       -2.0816771195697470E-008 F
     orb,it,eci,eold,eci-eold=                    7                   11  -1.1202767188885165       -1.1202766906744253       -2.8214091285505560E-008 F
     orb,it,eci,eold,eci-eold=                    7                   12  -1.1202767422492650       -1.1202767188885165       -2.3360748446776824E-008 F
     orb,it,eci,eold,eci-eold=                    7                   13  -1.1202767801137248       -1.1202767422492650       -3.7864459789815896E-008 F
     orb,it,eci,eold,eci-eold=                    7                   14  -1.1202767978744901       -1.1202767801137248       -1.7760765302909931E-008 F
     orb,it,eci,eold,eci-eold=                    7                   15  -1.1202768015861713       -1.1202767978744901       -3.7116811846260589E-009 F
     orb,it,eci,eold,eci-eold=                    7                   16  -1.1202768018419784       -1.1202768015861713       -2.5580715323769709E-010 F
     orbital   7 current e=  0.194705E+01 error=0.201E+00 (eci= -0.112027680E+01 error=0.256E-09) iterations  16(   0 preconditioned, Ep,Sp= 20.0  200.0)
     orb,it,eci,eold,eci-eold=                    7                    1  -1.1202768214114882       -1.1202768018419784       -1.9569509790429152E-008 F
     orb,it,eci,eold,eci-eold=                    7                    2  -1.1202768245989270       -1.1202768214114882       -3.1874387573793683E-009 F
     orb,it,eci,eold,eci-eold=                    7                    3  -1.1202768245989270       -1.1202768245989270        0.0000000000000000      F
     orbital   7 current e=  0.194847E+01 error=0.141E-02 (eci= -0.112027682E+01 error=0.000E+00) iterations   3(   0 preconditioned, Ep,Sp= 20.0  200.0)
     orb,it,eci,eold,eci-eold=                    7                    1  -1.1202768246934554       -1.1202768238109351       -8.8252027907742558E-010 F
     orbital   7 current e=  0.194859E+01 error=0.127E-03 (eci= -0.112027682E+01 error=0.883E-09) iterations   1(   0 preconditioned, Ep,Sp= 20.0  200.0)
     orb,it,eci,eold,eci-eold=                    8                    1  -1.1202686026353035       -1.1202681624917346       -4.4014356892496664E-007 F
     orb,it,eci,eold,eci-eold=                    8                    2  -1.1202711179723155       -1.1202686026353035       -2.5153370120101215E-006 F
     orb,it,eci,eold,eci-eold=                    8                    3  -1.1202733792353785       -1.1202711179723155       -2.2612630630192143E-006 F
     orb,it,eci,eold,eci-eold=                    8                    4  -1.1202749660751028       -1.1202733792353785       -1.5868397242879695E-006 F
     orb,it,eci,eold,eci-eold=                    8                    5  -1.1202759236625139       -1.1202749660751028       -9.5758741114337909E-007 F
     orb,it,eci,eold,eci-eold=                    8                    6  -1.1202762322228155       -1.1202759236625139       -3.0856030153181280E-007 F
     orb,it,eci,eold,eci-eold=                    8                    7  -1.1202763174610935       -1.1202762322228155       -8.5238277991450673E-008 F
     orb,it,eci,eold,eci-eold=                    8                    8  -1.1202764726465018       -1.1202763174610935       -1.5518540830150584E-007 F
     orb,it,eci,eold,eci-eold=                    8                    9  -1.1202765764448022       -1.1202764726465018       -1.0379830039930482E-007 F
     orb,it,eci,eold,eci-eold=                    8                   10  -1.1202766324785063       -1.1202765764448022       -5.6033704121105643E-008 F
     orb,it,eci,eold,eci-eold=                    8                   11  -1.1202767088267793       -1.1202766324785063       -7.6348273037041281E-008 F
     orb,it,eci,eold,eci-eold=                    8                   12  -1.1202767471398332       -1.1202767088267793       -3.8313053840610678E-008 F
     orb,it,eci,eold,eci-eold=                    8                   13  -1.1202767698099090       -1.1202767471398332       -2.2670075816577651E-008 F
     orb,it,eci,eold,eci-eold=                    8                   14  -1.1202767805953120       -1.1202767698099090       -1.0785403015134420E-008 F
     orb,it,eci,eold,eci-eold=                    8                   15  -1.1202767966949987       -1.1202767805953120       -1.6099686694914794E-008 F
     orb,it,eci,eold,eci-eold=                    8                   16  -1.1202768061333641       -1.1202767966949987       -9.4383654225538294E-009 F
     orb,it,eci,eold,eci-eold=                    8                   17  -1.1202768124355056       -1.1202768061333641       -6.3021414753450244E-009 F
     orb,it,eci,eold,eci-eold=                    8                   18  -1.1202768155398388       -1.1202768124355056       -3.1043332349156572E-009 F
     orb,it,eci,eold,eci-eold=                    8                   19  -1.1202768192908792       -1.1202768155398388       -3.7510403672058601E-009 F
     orb,it,eci,eold,eci-eold=                    8                   20  -1.1202768213858387       -1.1202768192908792       -2.0949595391783760E-009 F
     orb,it,eci,eold,eci-eold=                    8                   21  -1.1202768234083127       -1.1202768213858387       -2.0224739660790192E-009 F
     orb,it,eci,eold,eci-eold=                    8                   22  -1.1202768234083127       -1.1202768234083127        0.0000000000000000      F
     orbital   8 current e=  0.194974E+01 error=0.199E+00 (eci= -0.112027682E+01 error=0.000E+00) iterations  22(   0 preconditioned, Ep,Sp= 20.0  200.0)
     orb,it,eci,eold,eci-eold=                    8                    1  -1.1202768258828550       -1.1202768225055382       -3.3773168706119350E-009 F
     orb,it,eci,eold,eci-eold=                    8                    2  -1.1202768264843723       -1.1202768258828550       -6.0151728042967534E-010 F
     orbital   8 current e=  0.194974E+01 error=0.300E-05 (eci= -0.112027683E+01 error=0.602E-09) iterations   2(   0 preconditioned, Ep,Sp= 20.0  200.0)
     orb,it,eci,eold,eci-eold=                    8                    1  -1.1202768264843723       -1.1202768264843723        0.0000000000000000      F
     orbital   8 current e=  0.194975E+01 error=0.579E-05 (eci= -0.112027683E+01 error=0.000E+00) iterations   1(   0 preconditioned, Ep,Sp= 20.0  200.0)
     orb,it,eci,eold,eci-eold=                    9                    1  -1.1198649625140222       -1.1198614761401866       -3.4863738356261109E-006 F
     orb,it,eci,eold,eci-eold=                    9                    2  -1.1198653867911321       -1.1198649625140222       -4.2427710988945933E-007 F
     orb,it,eci,eold,eci-eold=                    9                    3  -1.1198655072525572       -1.1198653867911321       -1.2046142505717228E-007 F
     orb,it,eci,eold,eci-eold=                    9                    4  -1.1198657733032986       -1.1198655072525572       -2.6605074143759566E-007 F
     orb,it,eci,eold,eci-eold=                    9                    5  -1.1198663610445654       -1.1198657733032986       -5.8774126676652827E-007 F
     orb,it,eci,eold,eci-eold=                    9                    6  -1.1198667622880349       -1.1198663610445654       -4.0124346956105228E-007 F
     orb,it,eci,eold,eci-eold=                    9                    7  -1.1198672091696367       -1.1198667622880349       -4.4688160172334790E-007 F
     orb,it,eci,eold,eci-eold=                    9                    8  -1.1198674707056473       -1.1198672091696367       -2.6153601062617327E-007 F
     orb,it,eci,eold,eci-eold=                    9                    9  -1.1198676425389447       -1.1198674707056473       -1.7183329736880637E-007 F
     orb,it,eci,eold,eci-eold=                    9                   10  -1.1198677177017711       -1.1198676425389447       -7.5162826407293437E-008 F
     orb,it,eci,eold,eci-eold=                    9                   11  -1.1198678599730716       -1.1198677177017711       -1.4227130051835957E-007 F
     orb,it,eci,eold,eci-eold=                    9                   12  -1.1198679380939096       -1.1198678599730716       -7.8120838020723227E-008 F
     orb,it,eci,eold,eci-eold=                    9                   13  -1.1198680307382403       -1.1198679380939096       -9.2644330651481255E-008 F
     orb,it,eci,eold,eci-eold=                    9                   14  -1.1198680753779140       -1.1198680307382403       -4.4639673735247243E-008 F
     orb,it,eci,eold,eci-eold=                    9                   15  -1.1198681157644785       -1.1198680753779140       -4.0386564537087111E-008 F
     orb,it,eci,eold,eci-eold=                    9                   16  -1.1198681416622083       -1.1198681157644785       -2.5897729738488806E-008 F
     orb,it,eci,eold,eci-eold=                    9                   17  -1.1198681792710543       -1.1198681416622083       -3.7608846037429089E-008 F
     orb,it,eci,eold,eci-eold=                    9                   18  -1.1198681824677135       -1.1198681792710543       -3.1966591595988803E-009 F
     orb,it,eci,eold,eci-eold=                    9                   19  -1.1198681970996422       -1.1198681824677135       -1.4631928779706982E-008 F
     orb,it,eci,eold,eci-eold=                    9                   20  -1.1198682170125436       -1.1198681970996422       -1.9912901327856503E-008 F
     orb,it,eci,eold,eci-eold=                    9                   21  -1.1198682170125436       -1.1198682170125436        0.0000000000000000      F
     orbital   9 current e=  0.271964E+01 error=0.414E+00 (eci= -0.111986822E+01 error=0.000E+00) iterations  21(   0 preconditioned, Ep,Sp= 20.0  200.0)
     orb,it,eci,eold,eci-eold=                    9                    1  -1.1198682462053609       -1.1198682163410032       -2.9864357653508478E-008 F
     orb,it,eci,eold,eci-eold=                    9                    2  -1.1198682563562925       -1.1198682462053609       -1.0150931650798611E-008 F
     orb,it,eci,eold,eci-eold=                    9                    3  -1.1198682845506400       -1.1198682563562925       -2.8194347523324836E-008 F
     orb,it,eci,eold,eci-eold=                    9                    4  -1.1198682856893560       -1.1198682845506400       -1.1387160103737415E-009 F
     orb,it,eci,eold,eci-eold=                    9                    5  -1.1198682862237590       -1.1198682856893560       -5.3440296632345508E-010 F
     orbital   9 current e=  0.273127E+01 error=0.116E-01 (eci= -0.111986829E+01 error=0.534E-09) iterations   5(   0 preconditioned, Ep,Sp= 20.0  200.0)
     orb,it,eci,eold,eci-eold=                    9                    1  -1.1198683001234586       -1.1198682862237590       -1.3899699613517669E-008 F
     orb,it,eci,eold,eci-eold=                    9                    2  -1.1198683036777335       -1.1198683001234586       -3.5542748744177288E-009 F
     orb,it,eci,eold,eci-eold=                    9                    3  -1.1198683040975494       -1.1198683036777335       -4.1981595977347297E-010 F
     orbital   9 current e=  0.273032E+01 error=0.956E-03 (eci= -0.111986830E+01 error=0.420E-09) iterations   3(   0 preconditioned, Ep,Sp= 20.0  200.0)
     orb,it,eci,eold,eci-eold=                   10                    1  -1.1198647032983704       -1.1198613289917216       -3.3743066487623707E-006 F
     orb,it,eci,eold,eci-eold=                   10                    2  -1.1198653960148524       -1.1198647032983704       -6.9271648195368130E-007 F
     orb,it,eci,eold,eci-eold=                   10                    3  -1.1198665181934051       -1.1198653960148524       -1.1221785527482098E-006 F
     orb,it,eci,eold,eci-eold=                   10                    4  -1.1198669382828594       -1.1198665181934051       -4.2008945433380518E-007 F
     orb,it,eci,eold,eci-eold=                   10                    5  -1.1198670373688175       -1.1198669382828594       -9.9085958105149530E-008 F
     orb,it,eci,eold,eci-eold=                   10                    6  -1.1198670634466672       -1.1198670373688175       -2.6077849657468732E-008 F
     orb,it,eci,eold,eci-eold=                   10                    7  -1.1198672480416161       -1.1198670634466672       -1.8459494888212191E-007 F
     orb,it,eci,eold,eci-eold=                   10                    8  -1.1198672989077669       -1.1198672480416161       -5.0866150846928804E-008 F
     orb,it,eci,eold,eci-eold=                   10                    9  -1.1198674014645960       -1.1198672989077669       -1.0255682902915453E-007 F
     orb,it,eci,eold,eci-eold=                   10                   10  -1.1198675699064207       -1.1198674014645960       -1.6844182471054125E-007 F
     orb,it,eci,eold,eci-eold=                   10                   11  -1.1198675921023231       -1.1198675699064207       -2.2195902449340110E-008 F
     orb,it,eci,eold,eci-eold=                   10                   12  -1.1198676530581817       -1.1198675921023231       -6.0955858582900646E-008 F
     orb,it,eci,eold,eci-eold=                   10                   13  -1.1198677831148423       -1.1198676530581817       -1.3005666055221354E-007 F
     orb,it,eci,eold,eci-eold=                   10                   14  -1.1198677831148423       -1.1198677831148423        0.0000000000000000      F
     orbital  10 current e=  0.273681E+01 error=0.398E+00 (eci= -0.111986778E+01 error=0.000E+00) iterations  14(   0 preconditioned, Ep,Sp= 20.0  200.0)
     orb,it,eci,eold,eci-eold=                   10                    1  -1.1198679621053085       -1.1198677827368781       -1.7936843033083960E-007 F
     orb,it,eci,eold,eci-eold=                   10                    2  -1.1198680188511478       -1.1198679621053085       -5.6745839360772266E-008 F
     orb,it,eci,eold,eci-eold=                   10                    3  -1.1198680969107966       -1.1198680188511478       -7.8059648744854826E-008 F
     orb,it,eci,eold,eci-eold=                   10                    4  -1.1198681222531348       -1.1198680969107966       -2.5342338227929417E-008 F
     orb,it,eci,eold,eci-eold=                   10                    5  -1.1198681467372549       -1.1198681222531348       -2.4484120064727222E-008 F
     orb,it,eci,eold,eci-eold=                   10                    6  -1.1198681577597547       -1.1198681467372549       -1.1022499801782715E-008 F
     orb,it,eci,eold,eci-eold=                   10                    7  -1.1198681622611819       -1.1198681577597547       -4.5014272309629177E-009 F
     orb,it,eci,eold,eci-eold=                   10                    8  -1.1198681707622185       -1.1198681622611819       -8.5010365413751288E-009 F
     orb,it,eci,eold,eci-eold=                   10                    9  -1.1198681707622185       -1.1198681707622185        0.0000000000000000      F
     orbital  10 current e=  0.273067E+01 error=0.614E-02 (eci= -0.111986817E+01 error=0.000E+00) iterations   9(   0 preconditioned, Ep,Sp= 20.0  200.0)
     orb,it,eci,eold,eci-eold=                   10                    1  -1.1198681863004438       -1.1198681707103422       -1.5590101654083810E-008 F
     orb,it,eci,eold,eci-eold=                   10                    2  -1.1198681874565968       -1.1198681863004438       -1.1561529511538993E-009 F
     orb,it,eci,eold,eci-eold=                   10                    3  -1.1198681874565968       -1.1198681874565968        0.0000000000000000      F
     orbital  10 current e=  0.273099E+01 error=0.317E-03 (eci= -0.111986819E+01 error=0.000E+00) iterations   3(   0 preconditioned, Ep,Sp= 20.0  200.0)

 virtual orbital energies:
     0.2730985E+01 (  74.314eV)
     0.2730317E+01 (  74.296eV)
     0.1948592E+01 (  53.024eV)
     0.1949750E+01 (  53.056eV)
     0.1958362E+01 (  53.290eV)
     0.1864875E+01 (  50.746eV)
     0.8503972E+00 (  23.141eV)
     0.8502193E+00 (  23.136eV)
     0.8341958E+00 (  22.700eV)
     0.4417355E+00 (  12.020eV)


 == Generating One-Electron and Two-Electron Integrals ==

 begin_one_electron_integrals
    1    1        -1.1564730284
    2    1         0.0000001710
    3    1         0.1580733875
    4    1        -0.0000004405
    5    1        -0.0000000381
    6    1         0.0125252739
    7    1        -0.0000000880
    8    1         0.0000000000
    9    1         0.0000000000
   10    1         0.0000205868
   11    1         0.0001870374
    2    2        -0.5912697921
    3    2        -0.0000000036
    4    2        -0.0000000000
    5    2        -0.0000000000
    6    2        -0.0000005420
    7    2        -0.2196441221
    8    2         0.0000389140
    9    2        -0.0000115317
   10    2        -0.0000000018
   11    2        -0.0000000161
    3    3        -0.1384147009
    4    3        -0.0000006872
    5    3        -0.0000000585
    6    3        -0.1475824586
    7    3        -0.0000012412
    8    3         0.0000000002
    9    3         0.0000000005
   10    3         0.0011880905
   11    3         0.0108036431
    4    4        -0.1767699700
    5    4        -0.0000000002
    6    4         0.0000001367
    7    4        -0.0000000000
    8    4         0.0000000103
    9    4         0.0000000198
   10    4        -0.5215791502
   11    4         0.0498351415
    5    5        -0.1766559041
    6    5         0.0000000124
    7    5         0.0000000000
    8    5        -0.0000000200
    9    5         0.0000000103
   10    5         0.0498240329
   11    5         0.5215164890
    6    6         0.7486586482
    7    6         0.0000002291
    8    6        -0.0000000001
    9    6        -0.0000000002
   10    6        -0.0007319368
   11    6        -0.0066116910
    7    7         0.8767602160
    8    7        -0.0000147904
    9    7         0.0000043123
   10    7         0.0000000089
   11    7         0.0000000811
    8    8         0.8527096058
    9    8         0.0000000002
   10    8        -0.0000000077
   11    8        -0.0000000119
    9    9         0.8517546993
   10    9        -0.0000000120
   11    9         0.0000000077
   10   10         1.6110713383
   11   10         0.0000326965
   11   11         1.6116636591
 end_one_electron_integrals

 begin_two_electron_integrals
    1    1    1    1        0.6055496958
    1    1    2    1       -0.0000001700
    1    1    3    1       -0.1580731165
    1    1    4    1        0.0000004408
    1    1    5    1        0.0000000381
    1    1    6    1       -0.0125248872
    1    1    7    1        0.0000000894
    1    1    8    1       -0.0000000000
    1    1    9    1       -0.0000000000
    1    1   10    1       -0.0000205862
    1    1   11    1       -0.0001870337
    1    1    2    2        0.5967857918
    1    1    3    2       -0.0000003241
    1    1    4    2       -0.0000000000
    1    1    5    2       -0.0000000000
    1    1    6    2       -0.0000004534
    1    1    7    2       -0.1386453861
    1    1    8    2        0.0000244837
    1    1    9    2       -0.0000072742
    1    1   10    2       -0.0000000003
    1    1   11    2       -0.0000000027
    1    1    3    3        0.5451343173
    1    1    4    3       -0.0000002237
    1    1    5    3       -0.0000000188
    1    1    6    3       -0.0476884145
    1    1    7    3       -0.0000005815
    1    1    8    3        0.0000000001
    1    1    9    3        0.0000000001
    1    1   10    3        0.0003661024
    1    1   11    3        0.0033304260
    1    1    4    4        0.5666194819
    1    1    5    4       -0.0000000000
    1    1    6    4       -0.0000000327
    1    1    7    4       -0.0000000000
    1    1    8    4       -0.0000000061
    1    1    9    4       -0.0000000118
    1    1   10    4       -0.1316705204
    1    1   11    4        0.0125830485
    1    1    5    5        0.5666554907
    1    1    6    5       -0.0000000025
    1    1    7    5        0.0000000000
    1    1    8    5        0.0000000116
    1    1    9    5       -0.0000000060
    1    1   10    5        0.0125776021
    1    1   11    5        0.1316199237
    1    1    6    6        0.5923245116
    1    1    7    6       -0.0000001603
    1    1    8    6        0.0000000000
    1    1    9    6       -0.0000000000
    1    1   10    6       -0.0000446076
    1    1   11    6       -0.0003996505
    1    1    7    7        0.5718887155
    1    1    8    7       -0.0000000784
    1    1    9    7        0.0000000104
    1    1   10    7        0.0000000018
    1    1   11    7        0.0000000167
    1    1    8    8        0.5778436732
    1    1    9    8        0.0000000000
    1    1   10    8       -0.0000000028
    1    1   11    8       -0.0000000043
    1    1    9    9        0.5777345397
    1    1   10    9       -0.0000000044
    1    1   11    9        0.0000000028
    1    1   10   10        0.5845216085
    1    1   11   10        0.0000011702
    1    1   11   11        0.5845589711
    2    1    2    1        0.1605662799
    2    1    3    1       -0.0000000477
    2    1    4    1       -0.0000000000
    2    1    5    1       -0.0000000000
    2    1    6    1       -0.0000001259
    2    1    7    1       -0.0475533771
    2    1    8    1        0.0000084004
    2    1    9    1       -0.0000024908
    2    1   10    1       -0.0000000002
    2    1   11    1       -0.0000000022
    2    1    2    2       -0.0000002652
    2    1    3    2       -0.0225247499
    2    1    4    2        0.0000000197
    2    1    5    2        0.0000000017
    2    1    6    2       -0.1367591370
    2    1    7    2        0.0000004787
    2    1    8    2       -0.0000000001
    2    1    9    2        0.0000000000
    2    1   10    2        0.0000248976
    2    1   11    2        0.0002239739
    2    1    3    3        0.0000001036
    2    1    4    3        0.0000000000
    2    1    5    3        0.0000000000
    2    1    6    3        0.0000005407
    2    1    7    3        0.1240925323
    2    1    8    3       -0.0000222235
    2    1    9    3        0.0000062462
    2    1   10    3        0.0000000007
    2    1   11    3        0.0000000060
    2    1    4    4       -0.0000001685
    2    1    5    4        0.0000000000
    2    1    6    4        0.0000000000
    2    1    7    4       -0.0000045592
    2    1    8    4       -0.0549890086
    2    1    9    4       -0.1062724654
    2    1   10    4        0.0000000763
    2    1   11    4       -0.0000000073
    2    1    5    5       -0.0000001685
    2    1    6    5       -0.0000000000
    2    1    7    5        0.0000215241
    2    1    8    5        0.1062890378
    2    1    9    5       -0.0549861382
    2    1   10    5       -0.0000000073
    2    1   11    5       -0.0000000763
    2    1    6    6        0.0000000186
    2    1    7    6        0.0230313521
    2    1    8    6       -0.0000037807
    2    1    9    6        0.0000012050
    2    1   10    6       -0.0000000006
    2    1   11    6       -0.0000000057
    2    1    7    7       -0.0000007826
    2    1    8    7        0.0000000001
    2    1    9    7       -0.0000000000
    2    1   10    7        0.0000233550
    2    1   11    7        0.0002114140
    2    1    8    8       -0.0000001645
    2    1    9    8        0.0000000001
    2    1   10    8        0.0126042873
    2    1   11    8        0.0195280629
    2    1    9    9       -0.0000001645
    2    1   10    9        0.0195189205
    2    1   11    9       -0.0125751275
    2    1   10   10       -0.0000001931
    2    1   11   10        0.0000000001
    2    1   11   11       -0.0000001926
    3    1    3    1        0.1176581753
    3    1    4    1       -0.0000000435
    3    1    5    1       -0.0000000038
    3    1    6    1       -0.0120419216
    3    1    7    1       -0.0000000916
    3    1    8    1        0.0000000000
    3    1    9    1        0.0000000000
    3    1   10    1        0.0000945904
    3    1   11    1        0.0008601434
    3    1    2    2       -0.1336080313
    3    1    3    2        0.0000001533
    3    1    4    2        0.0000000000
    3    1    5    2        0.0000000000
    3    1    6    2        0.0000004025
    3    1    7    2        0.1014722981
    3    1    8    2       -0.0000181779
    3    1    9    2        0.0000050985
    3    1   10    2        0.0000000007
    3    1   11    2        0.0000000062
    3    1    3    3       -0.1527101339
    3    1    4    3        0.0000001840
    3    1    5    3        0.0000000157
    3    1    6    3        0.0325349161
    3    1    7    3        0.0000001369
    3    1    8    3       -0.0000000000
    3    1    9    3       -0.0000000001
    3    1   10    3       -0.0002651113
    3    1   11    3       -0.0024123515
    3    1    4    4       -0.1242202810
    3    1    5    4        0.0000000000
    3    1    6    4        0.0000001227
    3    1    7    4        0.0000000000
    3    1    8    4        0.0000000460
    3    1    9    4        0.0000000889
    3    1   10    4        0.0950907265
    3    1   11    4       -0.0090879467
    3    1    5    5       -0.1242381590
    3    1    6    5        0.0000000105
    3    1    7    5       -0.0000000000
    3    1    8    5       -0.0000000888
    3    1    9    5        0.0000000460
    3    1   10    5       -0.0090850979
    3    1   11    5       -0.0950698196
    3    1    6    6       -0.1300857635
[...]
    8    5    8    8       -0.0000000018
    8    5    9    8        0.0000000001
    8    5   10    8        0.0071142160
    8    5   11    8        0.0127303418
    8    5    9    9       -0.0000000017
    8    5   10    9        0.0089094142
    8    5   11    9       -0.0068410770
    8    5   10   10       -0.0000000046
    8    5   11   10       -0.0000000003
    8    5   11   11       -0.0000000051
    9    5    9    5        0.0365277102
    9    5   10    5        0.0000000000
    9    5   11    5       -0.0000000000
    9    5    6    6       -0.0000000517
    9    5    7    6       -0.0055825109
    9    5    8    6        0.0000009672
    9    5    9    6       -0.0000003291
    9    5   10    6        0.0000000002
    9    5   11    6        0.0000000022
    9    5    7    7        0.0000001862
    9    5    8    7       -0.0000000000
    9    5    9    7        0.0000000000
    9    5   10    7       -0.0000016480
    9    5   11    7       -0.0000217559
    9    5    8    8        0.0000000009
    9    5    9    8       -0.0000000001
    9    5   10    8       -0.0018042013
    9    5   11    8       -0.0058254647
    9    5    9    9        0.0000000009
    9    5   10    9       -0.0053639338
    9    5   11    9        0.0054040305
    9    5   10   10        0.0000000022
    9    5   11   10       -0.0000000004
    9    5   11   11        0.0000000027
   10    5   10    5        0.0132661581
   10    5   11    5        0.0082409266
   10    5    6    6        0.0104207855
   10    5    7    6        0.0000000048
   10    5    8    6       -0.0000000000
   10    5    9    6        0.0000000001
   10    5   10    6       -0.0000181066
   10    5   11    6       -0.0000400316
   10    5    7    7        0.0111469873
   10    5    8    7        0.0000048982
   10    5    9    7        0.0000049015
   10    5   10    7       -0.0000000001
   10    5   11    7        0.0000000005
   10    5    8    8        0.0123379322
   10    5    9    8        0.0014692752
   10    5   10    8       -0.0000000004
   10    5   11    8       -0.0000000003
   10    5    9    9        0.0071016692
   10    5   10    9        0.0000000000
   10    5   11    9       -0.0000000002
   10    5   10   10        0.0141933859
   10    5   11   10        0.0084990757
   10    5   11   11        0.0127164765
   11    5   11    5        0.0983668515
   11    5    6    6        0.1090554996
   11    5    7    6        0.0000000499
   11    5    8    6       -0.0000000007
   11    5    9    6        0.0000000003
   11    5   10    6       -0.0000400426
   11    5   11    6       -0.0003606462
   11    5    7    7        0.1166542283
   11    5    8    7       -0.0000247867
   11    5    9    7        0.0000097953
   11    5   10    7        0.0000000006
   11    5   11    7        0.0000000053
   11    5    8    8        0.1033764520
   11    5    9    8       -0.0028472175
   11    5   10    8       -0.0000000007
   11    5   11    8       -0.0000000016
   11    5    9    9        0.1000032604
   11    5   10    9       -0.0000000010
   11    5   11    9        0.0000000010
   11    5   10   10        0.1319205844
   11    5   11   10        0.0009209681
   11    5   11   11        0.1496698459
    6    6    6    6        0.6314654983
    6    6    7    6       -0.0000001456
    6    6    8    6        0.0000000000
    6    6    9    6       -0.0000000000
    6    6   10    6       -0.0000443882
    6    6   11    6       -0.0003977021
    6    6    7    7        0.5662005988
    6    6    8    7        0.0000007432
    6    6    9    7       -0.0000002421
    6    6   10    7        0.0000000022
    6    6   11    7        0.0000000196
    6    6    8    8        0.5762011774
    6    6    9    8        0.0000000000
    6    6   10    8        0.0000000318
    6    6   11    8        0.0000000495
    6    6    9    9        0.5760979081
    6    6   10    9        0.0000000493
    6    6   11    9       -0.0000000319
    6    6   10   10        0.5466955752
    6    6   11   10        0.0000011732
    6    6   11   11        0.5467242568
    7    6    7    6        0.0268340809
    7    6    8    6       -0.0000005135
    7    6    9    6        0.0000001729
    7    6   10    6        0.0000000001
    7    6   11    6        0.0000000010
    7    6    7    7       -0.0000002787
    7    6    8    7        0.0000000000
    7    6    9    7        0.0000000000
    7    6   10    7        0.0000288466
    7    6   11    7        0.0002555439
    7    6    8    8       -0.0000001999
    7    6    9    8        0.0000000000
    7    6   10    8        0.0068743489
    7    6   11    8        0.0106556418
    7    6    9    9       -0.0000001998
    7    6   10    9        0.0106586597
    7    6   11    9       -0.0068703326
    7    6   10   10       -0.0000000929
    7    6   11   10        0.0000000000
    7    6   11   11       -0.0000000928
    8    6    8    6        0.0242347383
    8    6    9    6       -0.0000000000
    8    6   10    6        0.0000000068
    8    6   11    6        0.0000000105
    8    6    7    7        0.0000000000
    8    6    8    7        0.0000000219
    8    6    9    7       -0.0000000000
    8    6   10    7        0.0062626564
    8    6   11    7        0.0097081628
    8    6    8    8        0.0000000001
    8    6    9    8       -0.0000000000
    8    6   10    8       -0.0000079813
    8    6   11    8       -0.0001681673
    8    6    9    9        0.0000000000
    8    6   10    9       -0.0000010742
    8    6   11    9        0.0000062539
    8    6   10   10        0.0000000003
    8    6   11   10        0.0000000011
    8    6   11   11        0.0000000026
    9    6    9    6        0.0242252897
    9    6   10    6        0.0000000105
    9    6   11    6       -0.0000000068
    9    6    7    7        0.0000000000
    9    6    8    7        0.0000000000
    9    6    9    7        0.0000000219
    9    6   10    7        0.0097090418
    9    6   11    7       -0.0062590657
    9    6    8    8       -0.0000000000
    9    6    9    8        0.0000000000
    9    6   10    8       -0.0000008803
    9    6   11    8        0.0000062101
    9    6    9    9       -0.0000000000
    9    6   10    9       -0.0000279589
    9    6   11    9       -0.0001506532
    9    6   10   10        0.0000000002
    9    6   11   10        0.0000000013
    9    6   11   11       -0.0000000017
   10    6   10    6        0.0201472090
   10    6   11    6        0.0000000855
   10    6    7    7       -0.0000554624
   10    6    8    7       -0.0031221658
   10    6    9    7       -0.0048413538
   10    6   10    7        0.0000000633
   10    6   11    7        0.0000000000
   10    6    8    8       -0.0000361402
   10    6    9    8        0.0000002562
   10    6   10    8        0.0000000001
   10    6   11    8       -0.0000000003
   10    6    9    9       -0.0000167397
   10    6   10    9        0.0000000001
   10    6   11    9       -0.0000000008
   10    6   10   10       -0.0000790285
   10    6   11   10       -0.0002836717
   10    6   11   11       -0.0000442309
   11    6   11    6        0.0201482352
   11    6    7    7       -0.0004953696
   11    6    8    7       -0.0048420056
   11    6    9    7        0.0031224153
   11    6   10    7        0.0000000000
   11    6   11    7        0.0000000633
   11    6    8    8       -0.0002298470
   11    6    9    8       -0.0000047747
   11    6   10    8        0.0000000010
   11    6   11    8        0.0000000009
   11    6    9    9       -0.0002438994
   11    6   10    9        0.0000000018
   11    6   11    9       -0.0000000006
   11    6   10   10       -0.0005094096
   11    6   11   10       -0.0000161663
   11    6   11   11       -0.0008778698
    7    7    7    7        0.5818417517
    7    7    8    7        0.0000012523
    7    7    9    7       -0.0000003807
    7    7   10    7        0.0000000016
    7    7   11    7        0.0000000148
    7    7    8    8        0.5451711058
    7    7    9    8        0.0000000001
    7    7   10    8       -0.0000001025
    7    7   11    8       -0.0000001588
    7    7    9    9        0.5450765439
    7    7   10    9       -0.0000001589
    7    7   11    9        0.0000001024
    7    7   10   10        0.5427155036
    7    7   11   10        0.0000017056
    7    7   11   11        0.5427635295
    8    7    8    7        0.0258425808
    8    7    9    7        0.0000000000
    8    7   10    7       -0.0000000111
    8    7   11    7       -0.0000000172
    8    7    8    8        0.0000012841
    8    7    9    8       -0.0000000848
    8    7   10    8        0.0000000003
    8    7   11    8        0.0000000019
    8    7    9    9        0.0000007553
    8    7   10    9        0.0000000001
    8    7   11    9        0.0000000000
    8    7   10   10        0.0000421775
    8    7   11   10        0.0001533605
    8    7   11   11        0.0003269329
    9    7    9    7        0.0258426882
    9    7   10    7       -0.0000000171
    9    7   11    7        0.0000000111
    9    7    8    8       -0.0000002314
    9    7    9    8        0.0000002823
    9    7   10    8        0.0000000000
    9    7   11    8        0.0000000000
    9    7    9    9       -0.0000003895
    9    7   10    9        0.0000000002
    9    7   11    9        0.0000000019
    9    7   10   10        0.0000123456
    9    7   11   10        0.0001934227
    9    7   11   11       -0.0002298726
   10    7   10    7        0.0322167219
   10    7   11    7        0.0000003586
   10    7    8    8        0.0000000020
   10    7    9    8        0.0000000000
   10    7   10    8        0.0000278560
   10    7   11    8       -0.0000369530
   10    7    9    9        0.0000000018
   10    7   10    9       -0.0000015097
   10    7   11    9       -0.0001224152
   10    7   10   10        0.0000000020
   10    7   11   10        0.0000000024
   10    7   11   11        0.0000000016
   11    7   11    7        0.0322242479
   11    7    8    8        0.0000000171
   11    7    9    8        0.0000000001
   11    7   10    8        0.0002151866
   11    7   11    8        0.0001719413
   11    7    9    9        0.0000000172
   11    7   10    9        0.0003504027
   11    7   11    9       -0.0001276360
   11    7   10   10        0.0000000144
   11    7   11   10        0.0000000002
   11    7   11   11        0.0000000188
    8    8    8    8        0.6082763552
    8    8    9    8        0.0000000125
    8    8   10    8        0.0000000009
    8    8   11    8        0.0000000015
    8    8    9    9        0.5545935590
    8    8   10    9        0.0000000011
    8    8   11    9       -0.0000000008
    8    8   10   10        0.5325579512
    8    8   11   10        0.0155383340
    8    8   11   11        0.5463760441
    9    8    9    8        0.0277338391
    9    8   10    8        0.0000000001
    9    8   11    8       -0.0000000001
    9    8    9    9       -0.0000000119
    9    8   10    9        0.0000000001
    9    8   11    9        0.0000000001
    9    8   10   10        0.0155368570
    9    8   11   10        0.0071765990
    9    8   11   11       -0.0155290187
   10    8   10    8        0.0132826947
   10    8   11    8        0.0116863625
   10    8    9    9        0.0000000008
   10    8   10    9        0.0117024897
   10    8   11    9       -0.0018024382
   10    8   10   10       -0.0000000001
   10    8   11   10       -0.0000000001
   10    8   11   11        0.0000000000
   11    8   11    8        0.0238060964
   11    8    9    9        0.0000000013
   11    8   10    9        0.0124584812
   11    8   11    9       -0.0116952837
   11    8   10   10        0.0000000000
   11    8   11   10       -0.0000000000
   11    8   11   11       -0.0000000000
    9    9    9    9        0.6080601645
    9    9   10    9        0.0000000014
    9    9   11    9       -0.0000000010
    9    9   10   10        0.5462615845
    9    9   11   10       -0.0155334617
    9    9   11   11        0.5324872142
   10    9   10    9        0.0238137276
   10    9   11    9       -0.0116849340
   10    9   10   10       -0.0000000002
   10    9   11   10        0.0000000001
   10    9   11   11        0.0000000000
   11    9   11    9        0.0132795483
   11    9   10   10        0.0000000000
   11    9   11   10       -0.0000000000
   11    9   11   11        0.0000000000
   10   10   10   10        0.6217312705
   10   10   11   10        0.0000187652
   10   10   11   11        0.5679175726
   11   10   11   10        0.0277663321
   11   10   11   11       -0.0000163031
   11   11   11   11        0.6218388854
 end_two_electron_integrals


 output epsi filename:./pspw_hf_H2.emovecs

 Total PSPW energy     :  -0.1119421640E+01


=== Spin Contamination ===

 <Sexact^2> =    0.0000000000000000     
 <S^2>      =    0.0000000000000000     



== Center of Charge ==

spin up     (    0.0000,    0.0000,    0.0000 )
spin down   (    0.0000,    0.0000,    0.0000 )
     total  (    0.0000,    0.0000,    0.0000 )
ionic       (    0.0000,    0.0000,    0.0000 )


== Molecular Dipole wrt Center of Mass ==

mu   =  (   -0.0000,   -0.0000,   -0.0000 ) au
|mu| =     0.0000 au,       0.0000 Debye

 output psi filename:./pspw_hf_H2.movecs

 Writing Crystallographic Information File:./H2.cif
   - cell not shifted (nwpw:cif_shift_cell .false.)


== Timing ==

cputime in seconds
  prologue    :   0.623595E+01
  main loop   :   0.144507E+03
  epilogue    :   0.177605E-01
  total       :   0.150761E+03
  cputime/step:   0.153731E+01       (      94 evalulations,      42 linesearches)


Time spent doing                        total          step       percent
  total time                 :   0.150772E+03  0.160396E+01       100.0 %
  i/o time                   :   0.280600E+00  0.298511E-02         0.2 %
  FFTs                       :   0.104469E+03  0.111137E+01        69.3 %
  dot products               :   0.441456E+01  0.469634E-01         2.9 %
  geodesic                   :   0.377333E-01  0.401418E-03         0.0 %
  ffm_dgemm                  :   0.451663E-02  0.480492E-04         0.0 %
  fmf_dgemm                  :   0.462683E-02  0.492216E-04         0.0 %
  mmm_dgemm                  :   0.167136E-02  0.177804E-04         0.0 %
  m_diagonalize              :   0.848096E-03  0.902230E-05         0.0 %
  local pseudopotentials     :   0.189722E+01  0.201832E-01         1.3 %
  non-local pseudopotentials :   0.411892E+01  0.438183E-01         2.7 %
  structure factors          :   0.224369E+00  0.238691E-02         0.1 %
  phase factors              :   0.828200E-05  0.881064E-07         0.0 %
  masking and packing        :   0.287561E+01  0.305916E-01         1.9 %
  queue fft                  :   0.297586E+01  0.316581E-01         2.0 %
  queue fft (serial)         :   0.110341E+01  0.117384E-01         0.7 %
  queue fft (message passing):   0.185735E+01  0.197591E-01         1.2 %
  HFX potential              :   0.249752E+01  0.265693E-01         1.7 %
  non-local psp FFM          :   0.394413E+01  0.419589E-01         2.6 %
  non-local psp FMF          :   0.375834E-01  0.399823E-03         0.0 %
  non-local psp FFM A        :   0.161696E-01  0.172017E-03         0.0 %
  non-local psp FFM B        :   0.554778E-01  0.590189E-03         0.0 %

== HFX Counters ==
  HFX Evalulations         =    94
  Lin ACE HFX Evalulations =     0


     >>>  JOB COMPLETED     AT Mon Apr 14 15:27:27 2025  <<<

 Task  times  cpu:      140.4s     wall:      150.8s


                                NWChem Input Module
                                -------------------


 Summary of allocated global arrays
-----------------------------------
  No active global arrays


MA_summarize_allocated_blocks: starting scan ...
MA_summarize_allocated_blocks: scan completed: 0 heap blocks, 0 stack blocks
MA usage statistics:

	allocation statistics:
					      heap	     stack
					      ----	     -----
	current number of blocks	         0	         0
	maximum number of blocks	       313	        36
	current total bytes		         0	         0
	maximum total bytes		  16366088	   5334712
	maximum total K-bytes		     16367	      5335
	maximum total M-bytes		        17	         6


                                     CITATION
                                     --------
                Please cite the following reference when publishing
                           results obtained with NWChem:

          E. Apra, E. J. Bylaska, W. A. de Jong, N. Govind, K. Kowalski,
       T. P. Straatsma, M. Valiev, H. J. J. van Dam, Y. Alexeev, J. Anchell,
       V. Anisimov, F. W. Aquino, R. Atta-Fynn, J. Autschbach, N. P. Bauman,
     J. C. Becca, D. E. Bernholdt, K. Bhaskaran-Nair, S. Bogatko, P. Borowski,
         J. Boschen, J. Brabec, A. Bruner, E. Cauet, Y. Chen, G. N. Chuev,
      C. J. Cramer, J. Daily, M. J. O. Deegan, T. H. Dunning Jr., M. Dupuis,
   K. G. Dyall, G. I. Fann, S. A. Fischer, A. Fonari, H. Fruchtl, L. Gagliardi,
      J. Garza, N. Gawande, S. Ghosh, K. Glaesemann, A. W. Gotz, J. Hammond,
       V. Helms, E. D. Hermes, K. Hirao, S. Hirata, M. Jacquelin, L. Jensen,
   B. G. Johnson, H. Jonsson, R. A. Kendall, M. Klemm, R. Kobayashi, V. Konkov,
      S. Krishnamoorthy, M. Krishnan, Z. Lin, R. D. Lins, R. J. Littlefield,
      A. J. Logsdail, K. Lopata, W. Ma, A. V. Marenich, J. Martin del Campo,
   D. Mejia-Rodriguez, J. E. Moore, J. M. Mullin, T. Nakajima, D. R. Nascimento,
    J. A. Nichols, P. J. Nichols, J. Nieplocha, A. Otero-de-la-Roza, B. Palmer,
    A. Panyala, T. Pirojsirikul, B. Peng, R. Peverati, J. Pittner, L. Pollack,
   R. M. Richard, P. Sadayappan, G. C. Schatz, W. A. Shelton, D. W. Silverstein,
   D. M. A. Smith, T. A. Soares, D. Song, M. Swart, H. L. Taylor, G. S. Thomas,
            V. Tipparaju, D. G. Truhlar, K. Tsemekhman, T. Van Voorhis,
      A. Vazquez-Mayagoitia, P. Verma, O. Villa, A. Vishnu, K. D. Vogiatzis,
        D. Wang, J. H. Weare, M. J. Williamson, T. L. Windus, K. Wolinski,
        A. T. Wong, Q. Wu, C. Yang, Q. Yu, M. Zacharias, Z. Zhang, Y. Zhao,
                                and R. J. Harrison
                        "NWChem: Past, present, and future
                         J. Chem. Phys. 152, 184102 (2020)
                               doi:10.1063/5.0004997

                                      AUTHORS
                                      -------
  E. Apra, E. J. Bylaska, N. Govind, K. Kowalski, M. Valiev, D. Mejia-Rodriguez,
       A. Kunitsa, N. P. Bauman, A. Panyala, W. A. de Jong, T. P. Straatsma,
   H. J. J. van Dam, D. Wang, T. L. Windus, J. Hammond, J. Autschbach, A. Woods,
    K. Bhaskaran-Nair, J. Brabec, K. Lopata, S. A. Fischer, S. Krishnamoorthy,
     M. Jacquelin, W. Ma, M. Klemm, O. Villa, Y. Chen, V. Anisimov, F. Aquino,
     S. Hirata, M. T. Hackler, E. Hermes, L. Jensen, J. E. Moore, J. C. Becca,
      V. Konjkov, T. Risthaus, M. Malagoli, A. Marenich, A. Otero-de-la-Roza,
        J. Mullin, P. Nichols, R. Peverati, J. Pittner, Y. Zhao, P.-D. Fan,
        A. Fonari, M. J. Williamson, R. J. Harrison, J. R. Rehr, M. Dupuis,
     D. Silverstein, D. M. A. Smith, J. Nieplocha, V. Tipparaju, M. Krishnan,
     B. E. Van Kuiken, A. Vazquez-Mayagoitia, M. Swart, Q. Wu, T. Van Voorhis,
     A. A. Auer, M. Nooijen, L. D. Crosby, E. Brown, G. Cisneros, G. I. Fann,
   H. Fruchtl, J. Garza, K. Hirao, R. A. Kendall, J. A. Nichols, K. Tsemekhman,
    K. Wolinski, J. Anchell, D. E. Bernholdt, P. Borowski, T. Clark, D. Clerc,
   H. Dachsel, M. J. O. Deegan, K. Dyall, D. Elwood, E. Glendening, M. Gutowski,
   A. C. Hess, J. Jaffe, B. G. Johnson, J. Ju, R. Kobayashi, R. Kutteh, Z. Lin,
   R. Littlefield, X. Long, B. Meng, T. Nakajima, S. Niu, L. Pollack, M. Rosing,
   K. Glaesemann, G. Sandrone, M. Stave, H. Taylor, G. Thomas, J. H. van Lenthe,
                               A. T. Wong, Z. Zhang.

 Total times  cpu:      140.5s     wall:      150.8s
