 argument  1 = H2-0.7.nw



============================== echo of input deck ==============================
title "swnc: e theory=pspw4 xc=hf formula=H2 charge=0 mult=1"
#machinejob:expert

echo

start pspw_hf_H2

memory heap 1200 mb stack 1200 mb global 10 mb

charge 0

geometry
H    0.00000    0.00000   -0.35000
H    0.00000    0.00000    0.35000
end

nwpw
  ### pseudopotential block begin ###
  ### pseudopotential block end   ###
  simulation_cell
     SC 15.0000
     boundary_conditions aperiodic
  end

  cutoff 50.0
  mult 1
  xc hf
  lmbfgs
  tolerances 1.0e-9 1.0e-9

  virtual 10
end
set nwpw:cif_filename H2

#set nwpw:CI_maxit_orb 15
#set nwpw:CI_maxit_linesearch 15
set pspw:HFX_screening_radius 14.0


set nwpw:2qintegrals .true.
set nwpw:3x3_virtual .true.

task pspw energy

================================================================================


                                         
                                         


             Northwest Computational Chemistry Package (NWChem) 7.2.3
             --------------------------------------------------------


                    Environmental Molecular Sciences Laboratory
                       Pacific Northwest National Laboratory
                                Richland, WA 99352

                              Copyright (c) 1994-2022
                       Pacific Northwest National Laboratory
                            Battelle Memorial Institute

             NWChem is an open-source computational chemistry package
                        distributed under the terms of the
                      Educational Community License (ECL) 2.0
             A copy of the license is included with this distribution
                              in the LICENSE.TXT file

                                  ACKNOWLEDGMENT
                                  --------------

            This software and its documentation were developed at the
            EMSL at Pacific Northwest National Laboratory, a multiprogram
            national laboratory, operated for the U.S. Department of Energy
            by Battelle under Contract Number DE-AC05-76RL01830. Support
            for this work was provided by the Department of Energy Office
            of Biological and Environmental Research, Office of Basic
            Energy Sciences, and the Office of Advanced Scientific Computing.


           Job information
           ---------------

    hostname        = mqs-al
    program         = nwchem
    date            = Mon Apr 14 15:18:04 2025

    compiled        = Thu_Oct_31_08:55:15_2024
    source          = /home/conda/feedstock_root/build_artifacts/nwchem_1730356057992/work
    nwchem branch   = 7.2.3
    nwchem revision = c400b04
    ga revision     = 5.8.0
    use scalapack   = T
    input           = H2-0.7.nw
    prefix          = pspw_hf_H2.
    data base       = ./pspw_hf_H2.db
    status          = startup
    nproc           =       24
    time left       =     -1s



           Memory information
           ------------------

    heap     =  157286396 doubles =   1200.0 Mbytes
    stack    =  157286401 doubles =   1200.0 Mbytes
    global   =    1310720 doubles =     10.0 Mbytes (distinct from heap & stack)
    total    =  315883517 doubles =   2410.0 Mbytes
    verify   = yes
    hardfail = no 


           Directory information
           ---------------------

  0 permanent = .
  0 scratch   = .




                                NWChem Input Module
                                -------------------


               swnc: e theory=pspw4 xc=hf formula=H2 charge=0 mult=1
               -----------------------------------------------------

 Scaling coordinates for geometry "geometry" by  1.889725989
 (inverse scale =  0.529177249)

  zeroes
  zeroes
  zeroes
  zeroes
  zeroes
  zeroes
  zeroes
  zeroes
  zeroes
  zeroes
  zeroes
  zeroes
  zeroes
  zeroes
  zeroes
  zeroes
  zeroes
  zeroes
  zeroes
  zeroes
  zeroes
  zeroes
  zeroes
  zeroes
  zeroes
  zeroes
  zeroes
  zeroes
  zeroes
  zeroes
  zeroes
  zeroes
  zeroes
  zeroes
  zeroes
  zeroes
  zeroes
  zeroes
  zeroes
  zeroes
  zeroes
  zeroes
  zeroes
  zeroes
  zeroes
  zeroes
  zeroes
  zeroes
 ORDER OF PRIMARY AXIS IS BEING SET TO 4
 D4H symmetry detected

          ------
          auto-z
          ------
  no constraints, skipping    0.0000000000000000     
  no constraints, skipping    0.0000000000000000     


                             Geometry "geometry" -> ""
                             -------------------------

 Output coordinates in angstroms (scale by  1.889725989 to convert to a.u.)

  No.       Tag          Charge          X              Y              Z
 ---- ---------------- ---------- -------------- -------------- --------------
    1 H                    1.0000     0.00000000     0.00000000    -0.35000000
    2 H                    1.0000     0.00000000     0.00000000     0.35000000

      Atomic Mass 
      ----------- 

      H                  1.007825


 Effective nuclear repulsion energy (a.u.)       0.7559674986

            Nuclear Dipole moment (a.u.) 
            ----------------------------
        X                 Y               Z
 ---------------- ---------------- ----------------
     0.0000000000     0.0000000000     0.0000000000

      Symmetry information
      --------------------

 Group name             D4h       
 Group number             28
 Group order              16
 No. of unique centers     1

      Symmetry unique atoms

     1



                                Z-matrix (autoz)
                                -------- 

 Units are Angstrom for bonds and degrees for angles

      Type          Name      I     J     K     L     M      Value
      ----------- --------  ----- ----- ----- ----- ----- ----------
    1 Stretch                  1     2                       0.70000


            XYZ format geometry
            -------------------
     2
 geometry
 H                     0.00000000     0.00000000    -0.35000000
 H                     0.00000000     0.00000000     0.35000000

          ****************************************************
          *                                                  *
          *               NWPW PSPW Calculation              *
          *                                                  *
          * [ (Grassmann/Stiefel manifold implementation)  ] *
          *                                                  *
          *      [ NorthWest Chemistry implementation ]      *
          *                                                  *
          *            version #5.10   06/12/02              *
          *                                                  *
          *    This code was developed by Eric J. Bylaska,   *
          *    and was based upon algorithms and code        *
          *    developed by the group of Prof. John H. Weare *
          *                                                  *
          ****************************************************
     >>>  JOB STARTED       AT Mon Apr 14 15:18:04 2025  <<<
          ================ input data ========================

 input psi filename:./pspw_hf_H2.movecs

 number of processors used:        24
 processor grid           :  24 x   1
 parallel mapping         :2d-hilbert
 parallel mapping         :  balanced
 number of threads        :         1
 parallel io              :       off

 options:
      boundary conditions  = aperiodic   (version4)
      electron spin        = restricted
      exchange-correlation = Hartree-Fock
      - HFX relaxed
      - HFX restricted orbitals :    1
      - HFX free-space coulomb solver


 elements involved in the cluster:
      1: H   valence charge:  1.0000  lmax=  1
             comment    : Parameterized (Chem.Phys.Lett., vol 322, page 447) Hamman psp
             pseudpotential type            :   0
             highest angular component      :   1
             local potential used           :   1
             number of non-local projections:   1
             aperiodic cutoff radius        :  1.000
             cutoff =   0.800   0.800


 total charge:   0.000

 atomic composition:
     H   :    2

 number of electrons: spin up=     1 (   1 per task)  down=     1 (   1 per task) (Fourier space)
 number of orbitals : spin up=     1 (   1 per task)  down=     1 (   1 per task) (Fourier space)

 supercell:
      cell_name:  cell_default                                      
      lattice:    a1=<  15.000   0.000   0.000 >
                  a2=<   0.000  15.000   0.000 >
                  a3=<   0.000   0.000  15.000 >
      reciprocal: b1=<   0.419   0.000   0.000 >
                  b2=<   0.000   0.419   0.000 >
                  b3=<   0.000   0.000   0.419 >
      lattice:    a=      15.000 b=     15.000 c=      15.000
                  alpha=  90.000 beta=  90.000 gamma=  90.000
                  omega=      3375.0

      density cutoff=100.000  fft= 70x 70x 70(    80618 waves     3359 per task)
      wavefnc cutoff= 50.000  fft= 70x 70x 70(    28526 waves     1188 per task)

 technical parameters:
      time step=      5.80     fictitious mass=  400000.0
      tolerance=0.100E-08 (energy)   0.100E-08 (density)
      maximum iterations =      1000 (   10 inner    100 outer )





== Energy Calculation ==


          ============ Grassmann lmbfgs iteration ============
     >>>  ITERATION STARTED AT Mon Apr 14 15:18:10 2025  <<<
    iter.           Energy         DeltaE       DeltaRho 
    ------------------------------------------------------
      10   -0.1136977702E+01   -0.79084E-04    0.29522E-02
      20   -0.1137131949E+01   -0.17285E-05    0.26751E-05
      30   -0.1137135861E+01   -0.46631E-07    0.27718E-08
      40   -0.1137135966E+01   -0.92528E-09    0.10122E-10
  *** tolerance ok. iteration terminated
     >>>  ITERATION ENDED   AT Mon Apr 14 15:18:13 2025  <<<


==  Summary Of Results  ==

 number of electrons: spin up=    1.00000  down=    1.00000 (real space)

 total     energy    :  -0.1137135966E+01 (   -0.56857E+00/ion)
 total orbital energy:  -0.1220478608E+01 (   -0.12205E+01/electron)
 hartree   energy    :   0.1345249713E+01 (    0.13452E+01/electron)
 exc-corr  energy    :   0.0000000000E+00 (    0.00000E+00/electron)
 HF exchange energy  :  -0.6726248563E+00 (   -0.67262E+00/electron)
 ion-ion   energy    :   0.7559674986E+00 (    0.37798E+00/ion)

 kinetic (planewave) :   0.1113994235E+01 (    0.11140E+01/electron)
 V_local (planewave) :  -0.3336892849E+01 (   -0.33369E+01/electron)
 V_nl    (planewave) :  -0.3428297062E+00 (   -0.34283E+00/electron)
 V_Coul  (planewave) :   0.2690499425E+01 (    0.26905E+01/electron)
 V_xc.   (planewave) :   0.0000000000E+00 (    0.00000E+00/electron)
 K.S. HFX energy     :  -0.1345249713E+01 (   -0.13452E+01/electron)
 Virial Coefficient  :  -0.8879966333E+00

 orbital energies:
    -0.6102393E+00 ( -16.606eV)


== Virtual Orbital Calculation ==


 input epsi filename:./pspw_hf_H2.emovecs

 COVOs Mimimization
 ------------------
CI gradient algorithm =         3
maxit_sweeps          =         3
maxit_orb             =       120
maxit_linesearch      =        15
maxerror              = 0.100E-08

     orb,it,eci,eold,eci-eold=                    1                    1  -1.1530591225645548       -1.1529957041454630       -6.3418419091743061E-005 F
     orb,it,eci,eold,eci-eold=                    1                    2  -1.1530725745318751       -1.1530591225645548       -1.3451967320277092E-005 F
     orb,it,eci,eold,eci-eold=                    1                    3  -1.1531068800821862       -1.1530725745318751       -3.4305550311142241E-005 F
     orb,it,eci,eold,eci-eold=                    1                    4  -1.1531118084796617       -1.1531068800821862       -4.9283974754565918E-006 F
     orb,it,eci,eold,eci-eold=                    1                    5  -1.1531270863612644       -1.1531118084796617       -1.5277881602715482E-005 F
     orb,it,eci,eold,eci-eold=                    1                    6  -1.1531511007065631       -1.1531270863612644       -2.4014345298750683E-005 F
     orb,it,eci,eold,eci-eold=                    1                    7  -1.1531594327971428       -1.1531511007065631       -8.3320905797101830E-006 F
     orb,it,eci,eold,eci-eold=                    1                    8  -1.1531694255341371       -1.1531594327971428       -9.9927369943131339E-006 F
     orb,it,eci,eold,eci-eold=                    1                    9  -1.1531708627805091       -1.1531694255341371       -1.4372463719158901E-006 F
     orb,it,eci,eold,eci-eold=                    1                   10  -1.1531748149768521       -1.1531708627805091       -3.9521963430821927E-006 F
     orb,it,eci,eold,eci-eold=                    1                   11  -1.1531806128613331       -1.1531748149768521       -5.7978844809625230E-006 F
     orb,it,eci,eold,eci-eold=                    1                   12  -1.1531845528349634       -1.1531806128613331       -3.9399736302403454E-006 F
     orb,it,eci,eold,eci-eold=                    1                   13  -1.1531921101485501       -1.1531845528349634       -7.5573135867035290E-006 F
     orb,it,eci,eold,eci-eold=                    1                   14  -1.1531922038523641       -1.1531921101485501       -9.3703814041390388E-008 F
     orb,it,eci,eold,eci-eold=                    1                   15  -1.1531927485084146       -1.1531922038523641       -5.4465605048292787E-007 F
     orb,it,eci,eold,eci-eold=                    1                   16  -1.1531970485166834       -1.1531927485084146       -4.3000082687871810E-006 F
     orb,it,eci,eold,eci-eold=                    1                   17  -1.1531993527379889       -1.1531970485166834       -2.3042213055379790E-006 F
     orb,it,eci,eold,eci-eold=                    1                   18  -1.1532024880527625       -1.1531993527379889       -3.1353147735835307E-006 F
     orb,it,eci,eold,eci-eold=                    1                   19  -1.1532039954170974       -1.1532024880527625       -1.5073643349072796E-006 F
     orb,it,eci,eold,eci-eold=                    1                   20  -1.1532052075985786       -1.1532039954170974       -1.2121814811916209E-006 F
     orb,it,eci,eold,eci-eold=                    1                   21  -1.1532058364883515       -1.1532052075985786       -6.2888977292452353E-007 F
     orb,it,eci,eold,eci-eold=                    1                   22  -1.1532072210416553       -1.1532058364883515       -1.3845533037848412E-006 F
     orb,it,eci,eold,eci-eold=                    1                   23  -1.1532080435283862       -1.1532072210416553       -8.2248673094476032E-007 F
     orb,it,eci,eold,eci-eold=                    1                   24  -1.1532086447534238       -1.1532080435283862       -6.0122503753312628E-007 F
     orb,it,eci,eold,eci-eold=                    1                   25  -1.1532088553425126       -1.1532086447534238       -2.1058908883375693E-007 F
     orb,it,eci,eold,eci-eold=                    1                   26  -1.1532093322137347       -1.1532088553425126       -4.7687122206596655E-007 F
     orb,it,eci,eold,eci-eold=                    1                   27  -1.1532093530263454       -1.1532093322137347       -2.0812610745934990E-008 F
     orb,it,eci,eold,eci-eold=                    1                   28  -1.1532094037072440       -1.1532093530263454       -5.0680898588950640E-008 F
     orb,it,eci,eold,eci-eold=                    1                   29  -1.1532097274040547       -1.1532094037072440       -3.2369681068900036E-007 F
     orb,it,eci,eold,eci-eold=                    1                   30  -1.1532097827075698       -1.1532097274040547       -5.5303515100746381E-008 F
     orb,it,eci,eold,eci-eold=                    1                   31  -1.1532098119596301       -1.1532097827075698       -2.9252060329554297E-008 F
     orb,it,eci,eold,eci-eold=                    1                   32  -1.1532100634499054       -1.1532098119596301       -2.5149027527149315E-007 F
     orb,it,eci,eold,eci-eold=                    1                   33  -1.1532101272063011       -1.1532100634499054       -6.3756395718428394E-008 F
     orb,it,eci,eold,eci-eold=                    1                   34  -1.1532101355373603       -1.1532101272063011       -8.3310591758589680E-009 F
     orb,it,eci,eold,eci-eold=                    1                   35  -1.1532103114611698       -1.1532101355373603       -1.7592380952002884E-007 F
     orb,it,eci,eold,eci-eold=                    1                   36  -1.1532103912005973       -1.1532103114611698       -7.9739427505387539E-008 F
     orb,it,eci,eold,eci-eold=                    1                   37  -1.1532104121048106       -1.1532103912005973       -2.0904213249295367E-008 F
     orb,it,eci,eold,eci-eold=                    1                   38  -1.1532105351677300       -1.1532104121048106       -1.2306291941044378E-007 F
     orb,it,eci,eold,eci-eold=                    1                   39  -1.1532105699143245       -1.1532105351677300       -3.4746594490542293E-008 F
     orb,it,eci,eold,eci-eold=                    1                   40  -1.1532105807645616       -1.1532105699143245       -1.0850237153192666E-008 F
     orb,it,eci,eold,eci-eold=                    1                   41  -1.1532106781495286       -1.1532105807645616       -9.7384966979419119E-008 F
     orb,it,eci,eold,eci-eold=                    1                   42  -1.1532107184781832       -1.1532106781495286       -4.0328654637988848E-008 F
     orb,it,eci,eold,eci-eold=                    1                   43  -1.1532107284964797       -1.1532107184781832       -1.0018296414671113E-008 F
     orb,it,eci,eold,eci-eold=                    1                   44  -1.1532107903397835       -1.1532107284964797       -6.1843303811315309E-008 F
     orb,it,eci,eold,eci-eold=                    1                   45  -1.1532108056392807       -1.1532107903397835       -1.5299497224674496E-008 F
     orb,it,eci,eold,eci-eold=                    1                   46  -1.1532108110788342       -1.1532108056392807       -5.4395534743179041E-009 F
     orb,it,eci,eold,eci-eold=                    1                   47  -1.1532108611121377       -1.1532108110788342       -5.0033303500285342E-008 F
     orb,it,eci,eold,eci-eold=                    1                   48  -1.1532108776187446       -1.1532108611121377       -1.6506606970168036E-008 F
     orb,it,eci,eold,eci-eold=                    1                   49  -1.1532108803346215       -1.1532108776187446       -2.7158768567403513E-009 F
     orb,it,eci,eold,eci-eold=                    1                   50  -1.1532109149973238       -1.1532108803346215       -3.4662702264043332E-008 F
     orb,it,eci,eold,eci-eold=                    1                   51  -1.1532109281930649       -1.1532109149973238       -1.3195741166427410E-008 F
     orb,it,eci,eold,eci-eold=                    1                   52  -1.1532109309737344       -1.1532109281930649       -2.7806694724574754E-009 F
     orb,it,eci,eold,eci-eold=                    1                   53  -1.1532109557681727       -1.1532109309737344       -2.4794438280295594E-008 F
     orb,it,eci,eold,eci-eold=                    1                   54  -1.1532109664044725       -1.1532109557681727       -1.0636299840882657E-008 F
     orb,it,eci,eold,eci-eold=                    1                   55  -1.1532109700100246       -1.1532109664044725       -3.6055520791222762E-009 F
     orb,it,eci,eold,eci-eold=                    1                   56  -1.1532109886697215       -1.1532109700100246       -1.8659696898737366E-008 F
     orb,it,eci,eold,eci-eold=                    1                   57  -1.1532109944693028       -1.1532109886697215       -5.7995812596800533E-009 F
     orb,it,eci,eold,eci-eold=                    1                   58  -1.1532109963496340       -1.1532109944693028       -1.8803312240578407E-009 F
     orb,it,eci,eold,eci-eold=                    1                   59  -1.1532110099928059       -1.1532109963496340       -1.3643171925536990E-008 F
     orb,it,eci,eold,eci-eold=                    1                   60  -1.1532110150258674       -1.1532110099928059       -5.0330615231075626E-009 F
     orb,it,eci,eold,eci-eold=                    1                   61  -1.1532110167300369       -1.1532110150258674       -1.7041694722053080E-009 F
     orb,it,eci,eold,eci-eold=                    1                   62  -1.1532110275086118       -1.1532110167300369       -1.0778574921488371E-008 F
     orb,it,eci,eold,eci-eold=                    1                   63  -1.1532110311581507       -1.1532110275086118       -3.6495388933133199E-009 F
     orb,it,eci,eold,eci-eold=                    1                   64  -1.1532110318036866       -1.1532110311581507       -6.4553584699922339E-010 F
     orbital   1 current e=  0.664186E+00 error=0.834E-01 (eci= -0.115321103E+01 error=0.646E-09) iterations  64(   0 preconditioned, Ep,Sp= 20.0  200.0)
     orb,it,eci,eold,eci-eold=                    1                    1  -1.1532110497972623       -1.1532110318036866       -1.7993575740504753E-008 F
     orb,it,eci,eold,eci-eold=                    1                    2  -1.1532110516507315       -1.1532110497972623       -1.8534691559324301E-009 F
     orb,it,eci,eold,eci-eold=                    1                    3  -1.1532110611032769       -1.1532110516507315       -9.4525454130689468E-009 F
     orb,it,eci,eold,eci-eold=                    1                    4  -1.1532110629723915       -1.1532110611032769       -1.8691146408400527E-009 F
     orb,it,eci,eold,eci-eold=                    1                    5  -1.1532110629723915       -1.1532110629723915        0.0000000000000000      F
     orbital   1 current e=  0.664204E+00 error=0.177E-04 (eci= -0.115321106E+01 error=0.000E+00) iterations   5(   0 preconditioned, Ep,Sp= 20.0  200.0)
     orb,it,eci,eold,eci-eold=                    1                    1  -1.1532110698975375       -1.1532110628463808       -7.0511567695774602E-009 F
     orb,it,eci,eold,eci-eold=                    1                    2  -1.1532110713594892       -1.1532110698975375       -1.4619516708336278E-009 F
     orb,it,eci,eold,eci-eold=                    1                    3  -1.1532110713594892       -1.1532110713594892        0.0000000000000000      F
     orbital   1 current e=  0.664196E+00 error=0.818E-05 (eci= -0.115321107E+01 error=0.000E+00) iterations   3(   0 preconditioned, Ep,Sp= 20.0  200.0)
     orb,it,eci,eold,eci-eold=                    2                    1  -1.1451474117135583       -1.1450714729971556       -7.5938716402657036E-005 F
     orb,it,eci,eold,eci-eold=                    2                    2  -1.1451734078341651       -1.1451474117135583       -2.5996120606830431E-005 F
     orb,it,eci,eold,eci-eold=                    2                    3  -1.1451763634057572       -1.1451734078341651       -2.9555715921336656E-006 F
     orb,it,eci,eold,eci-eold=                    2                    4  -1.1451786510462993       -1.1451763634057572       -2.2876405421090595E-006 F
     orb,it,eci,eold,eci-eold=                    2                    5  -1.1451810612539703       -1.1451786510462993       -2.4102076709997533E-006 F
     orb,it,eci,eold,eci-eold=                    2                    6  -1.1451823933554226       -1.1451810612539703       -1.3321014522560404E-006 F
     orb,it,eci,eold,eci-eold=                    2                    7  -1.1451881123944083       -1.1451823933554226       -5.7190389857186830E-006 F
     orb,it,eci,eold,eci-eold=                    2                    8  -1.1451898053450187       -1.1451881123944083       -1.6929506103657843E-006 F
     orb,it,eci,eold,eci-eold=                    2                    9  -1.1451919353041173       -1.1451898053450187       -2.1299590986512129E-006 F
     orb,it,eci,eold,eci-eold=                    2                   10  -1.1451948082677452       -1.1451919353041173       -2.8729636278868043E-006 F
     orb,it,eci,eold,eci-eold=                    2                   11  -1.1451952837247639       -1.1451948082677452       -4.7545701864493140E-007 F
     orb,it,eci,eold,eci-eold=                    2                   12  -1.1451954195002987       -1.1451952837247639       -1.3577553481525229E-007 F
     orb,it,eci,eold,eci-eold=                    2                   13  -1.1451969751056557       -1.1451954195002987       -1.5556053569731887E-006 F
     orb,it,eci,eold,eci-eold=                    2                   14  -1.1451998503763339       -1.1451969751056557       -2.8752706782153581E-006 F
     orb,it,eci,eold,eci-eold=                    2                   15  -1.1452001827590532       -1.1451998503763339       -3.3238271934799002E-007 F
     orb,it,eci,eold,eci-eold=                    2                   16  -1.1452009125055382       -1.1452001827590532       -7.2974648501755723E-007 F
     orb,it,eci,eold,eci-eold=                    2                   17  -1.1452033291325305       -1.1452009125055382       -2.4166269922965000E-006 F
     orb,it,eci,eold,eci-eold=                    2                   18  -1.1452035814668129       -1.1452033291325305       -2.5233428235793554E-007 F
     orb,it,eci,eold,eci-eold=                    2                   19  -1.1452036718179670       -1.1452035814668129       -9.0351154113932353E-008 F
     orb,it,eci,eold,eci-eold=                    2                   20  -1.1452051008532034       -1.1452036718179670       -1.4290352363666159E-006 F
     orb,it,eci,eold,eci-eold=                    2                   21  -1.1452055759052491       -1.1452051008532034       -4.7505204570086335E-007 F
     orb,it,eci,eold,eci-eold=                    2                   22  -1.1452056873443897       -1.1452055759052491       -1.1143914058209248E-007 F
     orb,it,eci,eold,eci-eold=                    2                   23  -1.1452064562834168       -1.1452056873443897       -7.6893902711816509E-007 F
     orb,it,eci,eold,eci-eold=                    2                   24  -1.1452067987496015       -1.1452064562834168       -3.4246618474398360E-007 F
     orb,it,eci,eold,eci-eold=                    2                   25  -1.1452070915675399       -1.1452067987496015       -2.9281793834101677E-007 F
     orb,it,eci,eold,eci-eold=                    2                   26  -1.1452078343736694       -1.1452070915675399       -7.4280612949451097E-007 F
     orb,it,eci,eold,eci-eold=                    2                   27  -1.1452082792383784       -1.1452078343736694       -4.4486470907045828E-007 F
     orb,it,eci,eold,eci-eold=                    2                   28  -1.1452088347388107       -1.1452082792383784       -5.5550043231988866E-007 F
     orb,it,eci,eold,eci-eold=                    2                   29  -1.1452088414861608       -1.1452088347388107       -6.7473500120485141E-009 F
     orb,it,eci,eold,eci-eold=                    2                   30  -1.1452088990152058       -1.1452088414861608       -5.7529045083271058E-008 F
     orb,it,eci,eold,eci-eold=                    2                   31  -1.1452092962086087       -1.1452088990152058       -3.9719340283461690E-007 F
     orb,it,eci,eold,eci-eold=                    2                   32  -1.1452094681557394       -1.1452092962086087       -1.7194713075596724E-007 F
     orb,it,eci,eold,eci-eold=                    2                   33  -1.1452095251415413       -1.1452094681557394       -5.6985801855091722E-008 F
     orb,it,eci,eold,eci-eold=                    2                   34  -1.1452097798941223       -1.1452095251415413       -2.5475258103035969E-007 F
     orb,it,eci,eold,eci-eold=                    2                   35  -1.1452098478953991       -1.1452097798941223       -6.8001276831708424E-008 F
     orb,it,eci,eold,eci-eold=                    2                   36  -1.1452098858818318       -1.1452098478953991       -3.7986432666059500E-008 F
     orb,it,eci,eold,eci-eold=                    2                   37  -1.1452101093906144       -1.1452098858818318       -2.2350878259302931E-007 F
     orb,it,eci,eold,eci-eold=                    2                   38  -1.1452101672316011       -1.1452101093906144       -5.7840986666946037E-008 F
     orb,it,eci,eold,eci-eold=                    2                   39  -1.1452101758576807       -1.1452101672316011       -8.6260796283710306E-009 F
     orb,it,eci,eold,eci-eold=                    2                   40  -1.1452103513919778       -1.1452101758576807       -1.7553429709771251E-007 F
     orb,it,eci,eold,eci-eold=                    2                   41  -1.1452104438077857       -1.1452103513919778       -9.2415807895207536E-008 F
     orb,it,eci,eold,eci-eold=                    2                   42  -1.1452104580485232       -1.1452104438077857       -1.4240737478132814E-008 F
     orb,it,eci,eold,eci-eold=                    2                   43  -1.1452105653453808       -1.1452104580485232       -1.0729685762100871E-007 F
     orb,it,eci,eold,eci-eold=                    2                   44  -1.1452106293816018       -1.1452105653453808       -6.4036220992491621E-008 F
     orb,it,eci,eold,eci-eold=                    2                   45  -1.1452106637630957       -1.1452106293816018       -3.4381493874136027E-008 F
     orb,it,eci,eold,eci-eold=                    2                   46  -1.1452107581540356       -1.1452106637630957       -9.4390939953115094E-008 F
     orb,it,eci,eold,eci-eold=                    2                   47  -1.1452107705875900       -1.1452107581540356       -1.2433554408275427E-008 F
     orb,it,eci,eold,eci-eold=                    2                   48  -1.1452107793439166       -1.1452107705875900       -8.7563265527279555E-009 F
     orb,it,eci,eold,eci-eold=                    2                   49  -1.1452108663377218       -1.1452107793439166       -8.6993805270552116E-008 F
     orb,it,eci,eold,eci-eold=                    2                   50  -1.1452109068793681       -1.1452108663377218       -4.0541646262326481E-008 F
     orb,it,eci,eold,eci-eold=                    2                   51  -1.1452109133013391       -1.1452109068793681       -6.4219709550172865E-009 F
     orb,it,eci,eold,eci-eold=                    2                   52  -1.1452109681871856       -1.1452109133013391       -5.4885846534347138E-008 F
     orb,it,eci,eold,eci-eold=                    2                   53  -1.1452109964670971       -1.1452109681871856       -2.8279911523654278E-008 F
     orb,it,eci,eold,eci-eold=                    2                   54  -1.1452110080936477       -1.1452109964670971       -1.1626550611154585E-008 F
     orb,it,eci,eold,eci-eold=                    2                   55  -1.1452110515376874       -1.1452110080936477       -4.3444039699025438E-008 F
     orb,it,eci,eold,eci-eold=                    2                   56  -1.1452110612295976       -1.1452110515376874       -9.6919101633119453E-009 F
     orb,it,eci,eold,eci-eold=                    2                   57  -1.1452110653194740       -1.1452110612295976       -4.0898764375185692E-009 F
     orb,it,eci,eold,eci-eold=                    2                   58  -1.1452111005014141       -1.1452110653194740       -3.5181940027939618E-008 F
     orb,it,eci,eold,eci-eold=                    2                   59  -1.1452111145498964       -1.1452111005014141       -1.4048482377404525E-008 F
     orb,it,eci,eold,eci-eold=                    2                   60  -1.1452111180422562       -1.1452111145498964       -3.4923597347358282E-009 F
     orb,it,eci,eold,eci-eold=                    2                   61  -1.1452111442710473       -1.1452111180422562       -2.6228791139004670E-008 F
     orb,it,eci,eold,eci-eold=                    2                   62  -1.1452111535051452       -1.1452111442710473       -9.2340979307437010E-009 F
     orb,it,eci,eold,eci-eold=                    2                   63  -1.1452111552738109       -1.1452111535051452       -1.7686656583748572E-009 F
     orb,it,eci,eold,eci-eold=                    2                   64  -1.1452111748270353       -1.1452111552738109       -1.9553224372970135E-008 F
     orb,it,eci,eold,eci-eold=                    2                   65  -1.1452111858747298       -1.1452111748270353       -1.1047694536969743E-008 F
     orb,it,eci,eold,eci-eold=                    2                   66  -1.1452111896662536       -1.1452111858747298       -3.7915237616203967E-009 F
     orb,it,eci,eold,eci-eold=                    2                   67  -1.1452112040454603       -1.1452111896662536       -1.4379206714210113E-008 F
     orb,it,eci,eold,eci-eold=                    2                   68  -1.1452112092338242       -1.1452112040454603       -5.1883639606842280E-009 F
     orb,it,eci,eold,eci-eold=                    2                   69  -1.1452112119263158       -1.1452112092338242       -2.6924915630388568E-009 F
     orb,it,eci,eold,eci-eold=                    2                   70  -1.1452112235011191       -1.1452112119263158       -1.1574803338021411E-008 F
     orb,it,eci,eold,eci-eold=                    2                   71  -1.1452112269618795       -1.1452112235011191       -3.4607603449643420E-009 F
     orb,it,eci,eold,eci-eold=                    2                   72  -1.1452112285625540       -1.1452112269618795       -1.6006744818497509E-009 F
     orb,it,eci,eold,eci-eold=                    2                   73  -1.1452112386748303       -1.1452112285625540       -1.0112276349616423E-008 F
     orb,it,eci,eold,eci-eold=                    2                   74  -1.1452112417125906       -1.1452112386748303       -3.0377602655562441E-009 F
     orb,it,eci,eold,eci-eold=                    2                   75  -1.1452112419185678       -1.1452112417125906       -2.0597723526805112E-010 F
     orbital   2 current e=  0.959882E+00 error=0.176E+00 (eci= -0.114521124E+01 error=0.206E-09) iterations  75(   0 preconditioned, Ep,Sp= 20.0  200.0)
     orb,it,eci,eold,eci-eold=                    2                    1  -1.1452112466782016       -1.1452112419185678       -4.7596337982014347E-009 F
     orb,it,eci,eold,eci-eold=                    2                    2  -1.1452112466782016       -1.1452112466782016        0.0000000000000000      F
     orbital   2 current e=  0.959992E+00 error=0.110E-03 (eci= -0.114521125E+01 error=0.000E+00) iterations   2(   0 preconditioned, Ep,Sp= 20.0  200.0)
     orb,it,eci,eold,eci-eold=                    2                    1  -1.1452112565406924       -1.1452112460851642       -1.0455528220987276E-008 F
     orb,it,eci,eold,eci-eold=                    2                    2  -1.1452112603610911       -1.1452112565406924       -3.8203986640894527E-009 F
     orb,it,eci,eold,eci-eold=                    2                    3  -1.1452112761462512       -1.1452112603610911       -1.5785160067949278E-008 F
     orb,it,eci,eold,eci-eold=                    2                    4  -1.1452112822199418       -1.1452112761462512       -6.0736906615233011E-009 F
     orb,it,eci,eold,eci-eold=                    2                    5  -1.1452112846159914       -1.1452112822199418       -2.3960495809660642E-009 F
     orb,it,eci,eold,eci-eold=                    2                    6  -1.1452112846159914       -1.1452112846159914        0.0000000000000000      F
     orbital   2 current e=  0.960199E+00 error=0.207E-03 (eci= -0.114521128E+01 error=0.000E+00) iterations   6(   0 preconditioned, Ep,Sp= 20.0  200.0)
     orb,it,eci,eold,eci-eold=                    3                    1  -1.1434321116961292       -1.1433898828945692       -4.2228801560018070E-005 F
     orb,it,eci,eold,eci-eold=                    3                    2  -1.1434347961381388       -1.1434321116961292       -2.6844420095706312E-006 F
     orb,it,eci,eold,eci-eold=                    3                    3  -1.1434379308057774       -1.1434347961381388       -3.1346676385712868E-006 F
     orb,it,eci,eold,eci-eold=                    3                    4  -1.1434412295304812       -1.1434379308057774       -3.2987247038374079E-006 F
     orb,it,eci,eold,eci-eold=                    3                    5  -1.1434424021950447       -1.1434412295304812       -1.1726645634535515E-006 F
     orb,it,eci,eold,eci-eold=                    3                    6  -1.1434463107959438       -1.1434424021950447       -3.9086008991606747E-006 F
     orb,it,eci,eold,eci-eold=                    3                    7  -1.1434467976568541       -1.1434463107959438       -4.8686091025373912E-007 F
     orb,it,eci,eold,eci-eold=                    3                    8  -1.1434481749545005       -1.1434467976568541       -1.3772976463766184E-006 F
     orb,it,eci,eold,eci-eold=                    3                    9  -1.1434496642147491       -1.1434481749545005       -1.4892602486771267E-006 F
     orb,it,eci,eold,eci-eold=                    3                   10  -1.1434506029337550       -1.1434496642147491       -9.3871900586073309E-007 F
     orb,it,eci,eold,eci-eold=                    3                   11  -1.1434525469602028       -1.1434506029337550       -1.9440264478198799E-006 F
     orb,it,eci,eold,eci-eold=                    3                   12  -1.1434528178050680       -1.1434525469602028       -2.7084486520223550E-007 F
     orb,it,eci,eold,eci-eold=                    3                   13  -1.1434533467934287       -1.1434528178050680       -5.2898836067072352E-007 F
     orb,it,eci,eold,eci-eold=                    3                   14  -1.1434544667442132       -1.1434533467934287       -1.1199507845560674E-006 F
     orb,it,eci,eold,eci-eold=                    3                   15  -1.1434550748867141       -1.1434544667442132       -6.0814250080198917E-007 F
     orb,it,eci,eold,eci-eold=                    3                   16  -1.1434558148211136       -1.1434550748867141       -7.3993439952957374E-007 F
     orb,it,eci,eold,eci-eold=                    3                   17  -1.1434559396619319       -1.1434558148211136       -1.2484081834962524E-007 F
     orb,it,eci,eold,eci-eold=                    3                   18  -1.1434562150043586       -1.1434559396619319       -2.7534242663662667E-007 F
     orb,it,eci,eold,eci-eold=                    3                   19  -1.1434564991874006       -1.1434562150043586       -2.8418304198751798E-007 F
     orb,it,eci,eold,eci-eold=                    3                   20  -1.1434566509563018       -1.1434564991874006       -1.5176890122425846E-007 F
     orb,it,eci,eold,eci-eold=                    3                   21  -1.1434570313548211       -1.1434566509563018       -3.8039851935067759E-007 F
     orb,it,eci,eold,eci-eold=                    3                   22  -1.1434572517231800       -1.1434570313548211       -2.2036835889416295E-007 F
     orb,it,eci,eold,eci-eold=                    3                   23  -1.1434574261468897       -1.1434572517231800       -1.7442370969789067E-007 F
     orb,it,eci,eold,eci-eold=                    3                   24  -1.1434575197394625       -1.1434574261468897       -9.3592572802947416E-008 F
     orb,it,eci,eold,eci-eold=                    3                   25  -1.1434576912038528       -1.1434575197394625       -1.7146439024173787E-007 F
     orb,it,eci,eold,eci-eold=                    3                   26  -1.1434577664811008       -1.1434576912038528       -7.5277247990612750E-008 F
     orb,it,eci,eold,eci-eold=                    3                   27  -1.1434578403104079       -1.1434577664811008       -7.3829307112305287E-008 F
     orb,it,eci,eold,eci-eold=                    3                   28  -1.1434578503826709       -1.1434578403104079       -1.0072263023630512E-008 F
     orb,it,eci,eold,eci-eold=                    3                   29  -1.1434578890187372       -1.1434578503826709       -3.8636066346242615E-008 F
     orb,it,eci,eold,eci-eold=                    3                   30  -1.1434579460907695       -1.1434578890187372       -5.7072032211280543E-008 F
     orb,it,eci,eold,eci-eold=                    3                   31  -1.1434579741446984       -1.1434579460907695       -2.8053928957660901E-008 F
     orb,it,eci,eold,eci-eold=                    3                   32  -1.1434580261116276       -1.1434579741446984       -5.1966929204283474E-008 F
     orb,it,eci,eold,eci-eold=                    3                   33  -1.1434580285906124       -1.1434580261116276       -2.4789847952177979E-009 F
     orb,it,eci,eold,eci-eold=                    3                   34  -1.1434580338404992       -1.1434580285906124       -5.2498867475492261E-009 F
     orb,it,eci,eold,eci-eold=                    3                   35  -1.1434580703764385       -1.1434580338404992       -3.6535939385018423E-008 F
     orb,it,eci,eold,eci-eold=                    3                   36  -1.1434580736025752       -1.1434580703764385       -3.2261366911257028E-009 F
     orb,it,eci,eold,eci-eold=                    3                   37  -1.1434580736025752       -1.1434580736025752        0.0000000000000000      F
     orbital   3 current e=  0.102867E+01 error=0.131E+00 (eci= -0.114345807E+01 error=0.000E+00) iterations  37(   0 preconditioned, Ep,Sp= 20.0  200.0)
     orb,it,eci,eold,eci-eold=                    3                    1  -1.1434580844600686       -1.1434580727629606       -1.1697107948904772E-008 F
     orb,it,eci,eold,eci-eold=                    3                    2  -1.1434580877783265       -1.1434580844600686       -3.3182578906831850E-009 F
     orb,it,eci,eold,eci-eold=                    3                    3  -1.1434581785758813       -1.1434580877783265       -9.0797554808119685E-008 F
     orb,it,eci,eold,eci-eold=                    3                    4  -1.1434581955062542       -1.1434581785758813       -1.6930372881418521E-008 F
     orb,it,eci,eold,eci-eold=                    3                    5  -1.1434581955062542       -1.1434581955062542        0.0000000000000000      F
     orbital   3 current e=  0.102991E+01 error=0.124E-02 (eci= -0.114345820E+01 error=0.000E+00) iterations   5(   0 preconditioned, Ep,Sp= 20.0  200.0)
     orb,it,eci,eold,eci-eold=                    3                    1  -1.1434581952828091       -1.1434581952828091        0.0000000000000000      F
     orbital   3 current e=  0.102999E+01 error=0.771E-04 (eci= -0.114345820E+01 error=0.000E+00) iterations   1(   0 preconditioned, Ep,Sp= 20.0  200.0)
     orb,it,eci,eold,eci-eold=                    4                    1  -1.1434321115583808       -1.1433898824401436       -4.2229118237147034E-005 F
     orb,it,eci,eold,eci-eold=                    4                    2  -1.1434347962165374       -1.1434321115583808       -2.6846581566708494E-006 F
     orb,it,eci,eold,eci-eold=                    4                    3  -1.1434379309450273       -1.1434347962165374       -3.1347284898952665E-006 F
     orb,it,eci,eold,eci-eold=                    4                    4  -1.1434412295276524       -1.1434379309450273       -3.2985826250442329E-006 F
     orb,it,eci,eold,eci-eold=                    4                    5  -1.1434424020397524       -1.1434412295276524       -1.1725121000782934E-006 F
     orb,it,eci,eold,eci-eold=                    4                    6  -1.1434463106918114       -1.1434424020397524       -3.9086520589037832E-006 F
     orb,it,eci,eold,eci-eold=                    4                    7  -1.1434467975411791       -1.1434463106918114       -4.8684936770904130E-007 F
     orb,it,eci,eold,eci-eold=                    4                    8  -1.1434481747400740       -1.1434467975411791       -1.3771988949251579E-006 F
     orb,it,eci,eold,eci-eold=                    4                    9  -1.1434496641871177       -1.1434481747400740       -1.4894470437010199E-006 F
     orb,it,eci,eold,eci-eold=                    4                   10  -1.1434506030122074       -1.1434496641871177       -9.3882508966913747E-007 F
     orb,it,eci,eold,eci-eold=                    4                   11  -1.1434525469180739       -1.1434506030122074       -1.9439058664971753E-006 F
     orb,it,eci,eold,eci-eold=                    4                   12  -1.1434528178249930       -1.1434525469180739       -2.7090691911979548E-007 F
     orb,it,eci,eold,eci-eold=                    4                   13  -1.1434533469301149       -1.1434528178249930       -5.2910512193804493E-007 F
     orb,it,eci,eold,eci-eold=                    4                   14  -1.1434544667184079       -1.1434533469301149       -1.1197882929803171E-006 F
     orb,it,eci,eold,eci-eold=                    4                   15  -1.1434550747865422       -1.1434544667184079       -6.0806813428904150E-007 F
     orb,it,eci,eold,eci-eold=                    4                   16  -1.1434558147958709       -1.1434550747865422       -7.4000932870355030E-007 F
     orb,it,eci,eold,eci-eold=                    4                   17  -1.1434559396003456       -1.1434558147958709       -1.2480447475482492E-007 F
     orb,it,eci,eold,eci-eold=                    4                   18  -1.1434562149181211       -1.1434559396003456       -2.7531777546663250E-007 F
     orb,it,eci,eold,eci-eold=                    4                   19  -1.1434564991835943       -1.1434562149181211       -2.8426547316051654E-007 F
     orb,it,eci,eold,eci-eold=                    4                   20  -1.1434566510054187       -1.1434564991835943       -1.5182182444561931E-007 F
     orb,it,eci,eold,eci-eold=                    4                   21  -1.1434570313701600       -1.1434566510054187       -3.8036474125924258E-007 F
     orb,it,eci,eold,eci-eold=                    4                   22  -1.1434572517193000       -1.1434570313701600       -2.2034914004542827E-007 F
     orb,it,eci,eold,eci-eold=                    4                   23  -1.1434574261581822       -1.1434572517193000       -1.7443888222778980E-007 F
     orb,it,eci,eold,eci-eold=                    4                   24  -1.1434575197592030       -1.1434574261581822       -9.3601020711986394E-008 F
     orb,it,eci,eold,eci-eold=                    4                   25  -1.1434576912184098       -1.1434575197592030       -1.7145920683248050E-007 F
     orb,it,eci,eold,eci-eold=                    4                   26  -1.1434577664950067       -1.1434576912184098       -7.5276596955831110E-008 F
     orb,it,eci,eold,eci-eold=                    4                   27  -1.1434578403304636       -1.1434577664950067       -7.3835456859683291E-008 F
     orb,it,eci,eold,eci-eold=                    4                   28  -1.1434578504057942       -1.1434578403304636       -1.0075330569847551E-008 F
     orb,it,eci,eold,eci-eold=                    4                   29  -1.1434578890440203       -1.1434578504057942       -3.8638226174114720E-008 F
     orb,it,eci,eold,eci-eold=                    4                   30  -1.1434579461048422       -1.1434578890440203       -5.7060821845311693E-008 F
     orb,it,eci,eold,eci-eold=                    4                   31  -1.1434579741522641       -1.1434579461048422       -2.8047421940513573E-008 F
     orb,it,eci,eold,eci-eold=                    4                   32  -1.1434580261247302       -1.1434579741522641       -5.1972466108551885E-008 F
     orb,it,eci,eold,eci-eold=                    4                   33  -1.1434580286074492       -1.1434580261247302       -2.4827189193388222E-009 F
     orb,it,eci,eold,eci-eold=                    4                   34  -1.1434580338551823       -1.1434580286074492       -5.2477331369260583E-009 F
     orb,it,eci,eold,eci-eold=                    4                   35  -1.1434580703879207       -1.1434580338551823       -3.6532738389993824E-008 F
     orb,it,eci,eold,eci-eold=                    4                   36  -1.1434580736119624       -1.1434580703879207       -3.2240417002782351E-009 F
     orb,it,eci,eold,eci-eold=                    4                   37  -1.1434580736119624       -1.1434580736119624        0.0000000000000000      F
     orbital   4 current e=  0.102867E+01 error=0.131E+00 (eci= -0.114345807E+01 error=0.000E+00) iterations  37(   0 preconditioned, Ep,Sp= 20.0  200.0)
     orb,it,eci,eold,eci-eold=                    4                    1  -1.1434580844492948       -1.1434580727725285       -1.1676766220602985E-008 F
     orb,it,eci,eold,eci-eold=                    4                    2  -1.1434580877556513       -1.1434580844492948       -3.3063565219038082E-009 F
     orb,it,eci,eold,eci-eold=                    4                    3  -1.1434581785881663       -1.1434580877556513       -9.0832515065031316E-008 F
     orb,it,eci,eold,eci-eold=                    4                    4  -1.1434581955024179       -1.1434581785881663       -1.6914251554922544E-008 F
     orb,it,eci,eold,eci-eold=                    4                    5  -1.1434581955024179       -1.1434581955024179        0.0000000000000000      F
     orbital   4 current e=  0.102991E+01 error=0.124E-02 (eci= -0.114345820E+01 error=0.000E+00) iterations   5(   0 preconditioned, Ep,Sp= 20.0  200.0)
     orb,it,eci,eold,eci-eold=                    4                    1  -1.1434581952886216       -1.1434581952886216        0.0000000000000000      F
     orbital   4 current e=  0.102999E+01 error=0.772E-04 (eci= -0.114345820E+01 error=0.000E+00) iterations   1(   0 preconditioned, Ep,Sp= 20.0  200.0)
     orb,it,eci,eold,eci-eold=                    5                    1  -1.1381269129398417       -1.1381242339447311       -2.6789951106387377E-006 F
     orb,it,eci,eold,eci-eold=                    5                    2  -1.1381270638038932       -1.1381269129398417       -1.5086405147357596E-007 F
     orb,it,eci,eold,eci-eold=                    5                    3  -1.1381314083701575       -1.1381270638038932       -4.3445662643026850E-006 F
     orb,it,eci,eold,eci-eold=                    5                    4  -1.1381324318492811       -1.1381314083701575       -1.0234791236740648E-006 F
     orb,it,eci,eold,eci-eold=                    5                    5  -1.1381325224442387       -1.1381324318492811       -9.0594957535827803E-008 F
     orb,it,eci,eold,eci-eold=                    5                    6  -1.1381339193488136       -1.1381325224442387       -1.3969045749018250E-006 F
     orb,it,eci,eold,eci-eold=                    5                    7  -1.1381341929258770       -1.1381339193488136       -2.7357706344766086E-007 F
     orb,it,eci,eold,eci-eold=                    5                    8  -1.1381344255892398       -1.1381341929258770       -2.3266336279803568E-007 F
     orb,it,eci,eold,eci-eold=                    5                    9  -1.1381353856352294       -1.1381344255892398       -9.6004598959531506E-007 F
     orb,it,eci,eold,eci-eold=                    5                   10  -1.1381356780776806       -1.1381353856352294       -2.9244245114412593E-007 F
     orb,it,eci,eold,eci-eold=                    5                   11  -1.1381358937512023       -1.1381356780776806       -2.1567352170848153E-007 F
     orb,it,eci,eold,eci-eold=                    5                   12  -1.1381365073971090       -1.1381358937512023       -6.1364590675516695E-007 F
     orb,it,eci,eold,eci-eold=                    5                   13  -1.1381365566824022       -1.1381365073971090       -4.9285293179934797E-008 F
     orb,it,eci,eold,eci-eold=                    5                   14  -1.1381365962819248       -1.1381365566824022       -3.9599522549949029E-008 F
     orb,it,eci,eold,eci-eold=                    5                   15  -1.1381369527950735       -1.1381365962819248       -3.5651314878037965E-007 F
     orb,it,eci,eold,eci-eold=                    5                   16  -1.1381370457407132       -1.1381369527950735       -9.2945639629249399E-008 F
     orb,it,eci,eold,eci-eold=                    5                   17  -1.1381370842489194       -1.1381370457407132       -3.8508206179344029E-008 F
     orb,it,eci,eold,eci-eold=                    5                   18  -1.1381372956681126       -1.1381370842489194       -2.1141919326339575E-007 F
     orb,it,eci,eold,eci-eold=                    5                   19  -1.1381373682301019       -1.1381372956681126       -7.2561989306052510E-008 F
     orb,it,eci,eold,eci-eold=                    5                   20  -1.1381374090659468       -1.1381373682301019       -4.0835844927755716E-008 F
     orb,it,eci,eold,eci-eold=                    5                   21  -1.1381375550423989       -1.1381374090659468       -1.4597645203728860E-007 F
     orb,it,eci,eold,eci-eold=                    5                   22  -1.1381375921567936       -1.1381375550423989       -3.7114394668691375E-008 F
     orb,it,eci,eold,eci-eold=                    5                   23  -1.1381376082500443       -1.1381375921567936       -1.6093250732041042E-008 F
     orb,it,eci,eold,eci-eold=                    5                   24  -1.1381376942061492       -1.1381376082500443       -8.5956104900475339E-008 F
     orb,it,eci,eold,eci-eold=                    5                   25  -1.1381377148671918       -1.1381376942061492       -2.0661042654523953E-008 F
     orb,it,eci,eold,eci-eold=                    5                   26  -1.1381377214676036       -1.1381377148671918       -6.6004117726947698E-009 F
     orb,it,eci,eold,eci-eold=                    5                   27  -1.1381377704627638       -1.1381377214676036       -4.8995160151221739E-008 F
     orb,it,eci,eold,eci-eold=                    5                   28  -1.1381377879303383       -1.1381377704627638       -1.7467574497942451E-008 F
     orb,it,eci,eold,eci-eold=                    5                   29  -1.1381377966669963       -1.1381377879303383       -8.7366580636683011E-009 F
     orb,it,eci,eold,eci-eold=                    5                   30  -1.1381378301249023       -1.1381377966669963       -3.3457906001288507E-008 F
     orb,it,eci,eold,eci-eold=                    5                   31  -1.1381378430599174       -1.1381378301249023       -1.2935015059056809E-008 F
     orb,it,eci,eold,eci-eold=                    5                   32  -1.1381378503998456       -1.1381378430599174       -7.3399282207731176E-009 F
     orb,it,eci,eold,eci-eold=                    5                   33  -1.1381378730481047       -1.1381378503998456       -2.2648259045965347E-008 F
     orb,it,eci,eold,eci-eold=                    5                   34  -1.1381378799139159       -1.1381378730481047       -6.8658112528652282E-009 F
     orb,it,eci,eold,eci-eold=                    5                   35  -1.1381378837064393       -1.1381378799139159       -3.7925234064317692E-009 F
     orb,it,eci,eold,eci-eold=                    5                   36  -1.1381378971761080       -1.1381378837064393       -1.3469668713739225E-008 F
     orb,it,eci,eold,eci-eold=                    5                   37  -1.1381379005189329       -1.1381378971761080       -3.3428249057720905E-009 F
     orb,it,eci,eold,eci-eold=                    5                   38  -1.1381379025223870       -1.1381379005189329       -2.0034540693103509E-009 F
     orb,it,eci,eold,eci-eold=                    5                   39  -1.1381379108126564       -1.1381379025223870       -8.2902693598896349E-009 F
     orb,it,eci,eold,eci-eold=                    5                   40  -1.1381379132042755       -1.1381379108126564       -2.3916191249639951E-009 F
     orb,it,eci,eold,eci-eold=                    5                   41  -1.1381379148374113       -1.1381379132042755       -1.6331358487775560E-009 F
     orb,it,eci,eold,eci-eold=                    5                   42  -1.1381379209207185       -1.1381379148374113       -6.0833071913179992E-009 F
     orb,it,eci,eold,eci-eold=                    5                   43  -1.1381379226198511       -1.1381379209207185       -1.6991326123871886E-009 F
     orb,it,eci,eold,eci-eold=                    5                   44  -1.1381379236011766       -1.1381379226198511       -9.8132546533236109E-010 F
     orbital   5 current e=  0.241874E+01 error=0.313E+00 (eci= -0.113813792E+01 error=0.981E-09) iterations  44(   0 preconditioned, Ep,Sp= 20.0  200.0)
     orb,it,eci,eold,eci-eold=                    5                    1  -1.1381379383803871       -1.1381379236011766       -1.4779210522064545E-008 F
     orb,it,eci,eold,eci-eold=                    5                    2  -1.1381379419082567       -1.1381379383803871       -3.5278695520446490E-009 F
     orb,it,eci,eold,eci-eold=                    5                    3  -1.1381379419082567       -1.1381379419082567        0.0000000000000000      F
     orbital   5 current e=  0.241806E+01 error=0.682E-03 (eci= -0.113813794E+01 error=0.000E+00) iterations   3(   0 preconditioned, Ep,Sp= 20.0  200.0)
     orb,it,eci,eold,eci-eold=                    5                    1  -1.1381379426329916       -1.1381379414458361       -1.1871554850273469E-009 F
     orb,it,eci,eold,eci-eold=                    5                    2  -1.1381379426329916       -1.1381379426329916        0.0000000000000000      F
     orbital   5 current e=  0.241788E+01 error=0.176E-03 (eci= -0.113813794E+01 error=0.000E+00) iterations   2(   0 preconditioned, Ep,Sp= 20.0  200.0)
     orb,it,eci,eold,eci-eold=                    6                    1  -1.1379787583262850       -1.1379683126623747       -1.0445663910285674E-005 F
     orb,it,eci,eold,eci-eold=                    6                    2  -1.1379801619511385       -1.1379787583262850       -1.4036248534576856E-006 F
     orb,it,eci,eold,eci-eold=                    6                    3  -1.1379804955211008       -1.1379801619511385       -3.3356996231859171E-007 F
     orb,it,eci,eold,eci-eold=                    6                    4  -1.1379813924510280       -1.1379804955211008       -8.9692992721879250E-007 F
     orb,it,eci,eold,eci-eold=                    6                    5  -1.1379825847504013       -1.1379813924510280       -1.1922993732316201E-006 F
     orb,it,eci,eold,eci-eold=                    6                    6  -1.1379833575250018       -1.1379825847504013       -7.7277460053259972E-007 F
     orb,it,eci,eold,eci-eold=                    6                    7  -1.1379841966889082       -1.1379833575250018       -8.3916390636318283E-007 F
     orb,it,eci,eold,eci-eold=                    6                    8  -1.1379846997737584       -1.1379841966889082       -5.0308485022299010E-007 F
     orb,it,eci,eold,eci-eold=                    6                    9  -1.1379849749819910       -1.1379846997737584       -2.7520823264737260E-007 F
     orb,it,eci,eold,eci-eold=                    6                   10  -1.1379850867569141       -1.1379849749819910       -1.1177492309499826E-007 F
     orb,it,eci,eold,eci-eold=                    6                   11  -1.1379853311665757       -1.1379850867569141       -2.4440966162053712E-007 F
     orb,it,eci,eold,eci-eold=                    6                   12  -1.1379854727371188       -1.1379853311665757       -1.4157054306629391E-007 F
     orb,it,eci,eold,eci-eold=                    6                   13  -1.1379856405038298       -1.1379854727371188       -1.6776671096785378E-007 F
     orb,it,eci,eold,eci-eold=                    6                   14  -1.1379857239244591       -1.1379856405038298       -8.3420629293229354E-008 F
     orb,it,eci,eold,eci-eold=                    6                   15  -1.1379858153505311       -1.1379857239244591       -9.1426072046374429E-008 F
     orb,it,eci,eold,eci-eold=                    6                   16  -1.1379858675725458       -1.1379858153505311       -5.2222014712555165E-008 F
     orb,it,eci,eold,eci-eold=                    6                   17  -1.1379859211432444       -1.1379858675725458       -5.3570698543836670E-008 F
     orb,it,eci,eold,eci-eold=                    6                   18  -1.1379859521068241       -1.1379859211432444       -3.0963579700227228E-008 F
     orb,it,eci,eold,eci-eold=                    6                   19  -1.1379859989132148       -1.1379859521068241       -4.6806390763265426E-008 F
     orb,it,eci,eold,eci-eold=                    6                   20  -1.1379860239611810       -1.1379859989132148       -2.5047966145663736E-008 F
     orb,it,eci,eold,eci-eold=                    6                   21  -1.1379860514038973       -1.1379860239611810       -2.7442716321601779E-008 F
     orb,it,eci,eold,eci-eold=                    6                   22  -1.1379860637760466       -1.1379860514038973       -1.2372149305051039E-008 F
     orb,it,eci,eold,eci-eold=                    6                   23  -1.1379860768781780       -1.1379860637760466       -1.3102131379838511E-008 F
     orb,it,eci,eold,eci-eold=                    6                   24  -1.1379860840470037       -1.1379860768781780       -7.1688257552438017E-009 F
     orb,it,eci,eold,eci-eold=                    6                   25  -1.1379860920169320       -1.1379860840470037       -7.9699282728995513E-009 F
     orb,it,eci,eold,eci-eold=                    6                   26  -1.1379860966014821       -1.1379860920169320       -4.5845500729058131E-009 F
     orb,it,eci,eold,eci-eold=                    6                   27  -1.1379861038347565       -1.1379860966014821       -7.2332744238678970E-009 F
     orb,it,eci,eold,eci-eold=                    6                   28  -1.1379861038347565       -1.1379861038347565        0.0000000000000000      F
     orbital   6 current e=  0.252837E+01 error=0.491E+00 (eci= -0.113798610E+01 error=0.000E+00) iterations  28(   0 preconditioned, Ep,Sp= 20.0  200.0)
     orb,it,eci,eold,eci-eold=                    6                    1  -1.1379861153486797       -1.1379861032606191       -1.2088060552528646E-008 F
     orb,it,eci,eold,eci-eold=                    6                    2  -1.1379861169622489       -1.1379861153486797       -1.6135692781915623E-009 F
     orb,it,eci,eold,eci-eold=                    6                    3  -1.1379861183064834       -1.1379861169622489       -1.3442345014880175E-009 F
     orb,it,eci,eold,eci-eold=                    6                    4  -1.1379861193285881       -1.1379861183064834       -1.0221046231606579E-009 F
     orb,it,eci,eold,eci-eold=                    6                    5  -1.1379861197311352       -1.1379861193285881       -4.0254710675924343E-010 F
     orbital   6 current e=  0.253033E+01 error=0.195E-02 (eci= -0.113798612E+01 error=0.403E-09) iterations   5(   0 preconditioned, Ep,Sp= 20.0  200.0)
     orb,it,eci,eold,eci-eold=                    6                    1  -1.1379861225978851       -1.1379861197311352       -2.8667499485379722E-009 F
     orb,it,eci,eold,eci-eold=                    6                    2  -1.1379861233852981       -1.1379861225978851       -7.8741302367291155E-010 F
     orbital   6 current e=  0.253089E+01 error=0.564E-03 (eci= -0.113798612E+01 error=0.787E-09) iterations   2(   0 preconditioned, Ep,Sp= 20.0  200.0)
     orb,it,eci,eold,eci-eold=                    7                    1  -1.1379149378246090       -1.1379094744967415       -5.4633278674387498E-006 F
     orb,it,eci,eold,eci-eold=                    7                    2  -1.1379159785624084       -1.1379149378246090       -1.0407377994958722E-006 F
     orb,it,eci,eold,eci-eold=                    7                    3  -1.1379165645791869       -1.1379159785624084       -5.8601677843661548E-007 F
     orb,it,eci,eold,eci-eold=                    7                    4  -1.1379167190516026       -1.1379165645791869       -1.5447241574761961E-007 F
     orb,it,eci,eold,eci-eold=                    7                    5  -1.1379168934178165       -1.1379167190516026       -1.7436621391198059E-007 F
     orb,it,eci,eold,eci-eold=                    7                    6  -1.1379171914994495       -1.1379168934178165       -2.9808163293232326E-007 F
     orb,it,eci,eold,eci-eold=                    7                    7  -1.1379173104765616       -1.1379171914994495       -1.1897711216235507E-007 F
     orb,it,eci,eold,eci-eold=                    7                    8  -1.1379173237349791       -1.1379173104765616       -1.3258417475014994E-008 F
     orb,it,eci,eold,eci-eold=                    7                    9  -1.1379174649501407       -1.1379173237349791       -1.4121516156428982E-007 F
     orb,it,eci,eold,eci-eold=                    7                   10  -1.1379175668972421       -1.1379174649501407       -1.0194710142741314E-007 F
     orb,it,eci,eold,eci-eold=                    7                   11  -1.1379176263060520       -1.1379175668972421       -5.9408809871541735E-008 F
     orb,it,eci,eold,eci-eold=                    7                   12  -1.1379178036684221       -1.1379176263060520       -1.7736237012400125E-007 F
     orb,it,eci,eold,eci-eold=                    7                   13  -1.1379178199125404       -1.1379178036684221       -1.6244118272723540E-008 F
     orb,it,eci,eold,eci-eold=                    7                   14  -1.1379178204041123       -1.1379178199125404       -4.9157189430104609E-010 F
     orbital   7 current e=  0.242742E+01 error=0.269E+00 (eci= -0.113791782E+01 error=0.492E-09) iterations  14(   0 preconditioned, Ep,Sp= 20.0  200.0)
     orb,it,eci,eold,eci-eold=                    7                    1  -1.1379180698248132       -1.1379178204041123       -2.4942070098177282E-007 F
     orb,it,eci,eold,eci-eold=                    7                    2  -1.1379181094666559       -1.1379180698248132       -3.9641842697335505E-008 F
     orb,it,eci,eold,eci-eold=                    7                    3  -1.1379181226459751       -1.1379181094666559       -1.3179319191536365E-008 F
     orb,it,eci,eold,eci-eold=                    7                    4  -1.1379181498490876       -1.1379181226459751       -2.7203112429319276E-008 F
     orb,it,eci,eold,eci-eold=                    7                    5  -1.1379181763521440       -1.1379181498490876       -2.6503056416160575E-008 F
     orb,it,eci,eold,eci-eold=                    7                    6  -1.1379181860412515       -1.1379181763521440       -9.6891075163085816E-009 F
     orb,it,eci,eold,eci-eold=                    7                    7  -1.1379181911209111       -1.1379181860412515       -5.0796595818525248E-009 F
     orb,it,eci,eold,eci-eold=                    7                    8  -1.1379181949212340       -1.1379181911209111       -3.8003229452243659E-009 F
     orb,it,eci,eold,eci-eold=                    7                    9  -1.1379181949212340       -1.1379181949212340        0.0000000000000000      F
     orbital   7 current e=  0.241253E+01 error=0.149E-01 (eci= -0.113791819E+01 error=0.000E+00) iterations   9(   0 preconditioned, Ep,Sp= 20.0  200.0)
     orb,it,eci,eold,eci-eold=                    7                    1  -1.1379182011140057       -1.1379181947166821       -6.3973235597813982E-009 F
     orb,it,eci,eold,eci-eold=                    7                    2  -1.1379182031505617       -1.1379182011140057       -2.0365560349233647E-009 F
     orb,it,eci,eold,eci-eold=                    7                    3  -1.1379182033125292       -1.1379182031505617       -1.6196755048270006E-010 F
     orbital   7 current e=  0.241403E+01 error=0.150E-02 (eci= -0.113791820E+01 error=0.162E-09) iterations   3(   0 preconditioned, Ep,Sp= 20.0  200.0)
     orb,it,eci,eold,eci-eold=                    8                    1  -1.1379149376040851       -1.1379094747324747       -5.4628716104065944E-006 F
     orb,it,eci,eold,eci-eold=                    8                    2  -1.1379159783782193       -1.1379149376040851       -1.0407741342088883E-006 F
     orb,it,eci,eold,eci-eold=                    8                    3  -1.1379165645420821       -1.1379159783782193       -5.8616386278131927E-007 F
     orb,it,eci,eold,eci-eold=                    8                    4  -1.1379167191048070       -1.1379165645420821       -1.5456272484115630E-007 F
     orb,it,eci,eold,eci-eold=                    8                    5  -1.1379168935359405       -1.1379167191048070       -1.7443113353721174E-007 F
     orb,it,eci,eold,eci-eold=                    8                    6  -1.1379171914014921       -1.1379168935359405       -2.9786555155730809E-007 F
     orb,it,eci,eold,eci-eold=                    8                    7  -1.1379173105041824       -1.1379171914014921       -1.1910269037684884E-007 F
     orb,it,eci,eold,eci-eold=                    8                    8  -1.1379173240405132       -1.1379173105041824       -1.3536330722985213E-008 F
     orb,it,eci,eold,eci-eold=                    8                    9  -1.1379174651375126       -1.1379173240405132       -1.4109699941755593E-007 F
     orb,it,eci,eold,eci-eold=                    8                   10  -1.1379175672032653       -1.1379174651375126       -1.0206575273841167E-007 F
     orb,it,eci,eold,eci-eold=                    8                   11  -1.1379176268628592       -1.1379175672032653       -5.9659593931726818E-008 F
     orb,it,eci,eold,eci-eold=                    8                   12  -1.1379178040003559       -1.1379176268628592       -1.7713749667080947E-007 F
     orb,it,eci,eold,eci-eold=                    8                   13  -1.1379178201721598       -1.1379178040003559       -1.6171803896014580E-008 F
     orb,it,eci,eold,eci-eold=                    8                   14  -1.1379178208574006       -1.1379178201721598       -6.8524075302889287E-010 F
     orbital   8 current e=  0.242743E+01 error=0.269E+00 (eci= -0.113791782E+01 error=0.685E-09) iterations  14(   0 preconditioned, Ep,Sp= 20.0  200.0)
     orb,it,eci,eold,eci-eold=                    8                    1  -1.1379180696934421       -1.1379178208574006       -2.4883604154979366E-007 F
     orb,it,eci,eold,eci-eold=                    8                    2  -1.1379181092582140       -1.1379180696934421       -3.9564771903144447E-008 F
     orb,it,eci,eold,eci-eold=                    8                    3  -1.1379181224562156       -1.1379181092582140       -1.3198001580505547E-008 F
     orb,it,eci,eold,eci-eold=                    8                    4  -1.1379181496489774       -1.1379181224562156       -2.7192761820060696E-008 F
     orb,it,eci,eold,eci-eold=                    8                    5  -1.1379181761301809       -1.1379181496489774       -2.6481203452277668E-008 F
     orb,it,eci,eold,eci-eold=                    8                    6  -1.1379181858083203       -1.1379181761301809       -9.6781394010037047E-009 F
     orb,it,eci,eold,eci-eold=                    8                    7  -1.1379181908804306       -1.1379181858083203       -5.0721102873296786E-009 F
     orb,it,eci,eold,eci-eold=                    8                    8  -1.1379181946687746       -1.1379181908804306       -3.7883440828778703E-009 F
     orb,it,eci,eold,eci-eold=                    8                    9  -1.1379181946687746       -1.1379181946687746        0.0000000000000000      F
     orbital   8 current e=  0.241253E+01 error=0.149E-01 (eci= -0.113791819E+01 error=0.000E+00) iterations   9(   0 preconditioned, Ep,Sp= 20.0  200.0)
     orb,it,eci,eold,eci-eold=                    8                    1  -1.1379182008224367       -1.1379181944676005       -6.3548362128074132E-009 F
     orb,it,eci,eold,eci-eold=                    8                    2  -1.1379182028575148       -1.1379182008224367       -2.0350781060329837E-009 F
     orb,it,eci,eold,eci-eold=                    8                    3  -1.1379182030148174       -1.1379182028575148       -1.5730261537783008E-010 F
     orbital   8 current e=  0.241403E+01 error=0.150E-02 (eci= -0.113791820E+01 error=0.157E-09) iterations   3(   0 preconditioned, Ep,Sp= 20.0  200.0)
     orb,it,eci,eold,eci-eold=                    9                    1  -1.1376483708220593       -1.1376432773819807       -5.0934400785962453E-006 F
     orb,it,eci,eold,eci-eold=                    9                    2  -1.1376495648419351       -1.1376483708220593       -1.1940198758608744E-006 F
     orb,it,eci,eold,eci-eold=                    9                    3  -1.1376505832251709       -1.1376495648419351       -1.0183832357402167E-006 F
     orb,it,eci,eold,eci-eold=                    9                    4  -1.1376508100611384       -1.1376505832251709       -2.2683596756500890E-007 F
     orb,it,eci,eold,eci-eold=                    9                    5  -1.1376508956835893       -1.1376508100611384       -8.5622450907152370E-008 F
     orb,it,eci,eold,eci-eold=                    9                    6  -1.1376512295280656       -1.1376508956835893       -3.3384447628570513E-007 F
     orb,it,eci,eold,eci-eold=                    9                    7  -1.1376513919604010       -1.1376512295280656       -1.6243233535995216E-007 F
     orb,it,eci,eold,eci-eold=                    9                    8  -1.1376514915823135       -1.1376513919604010       -9.9621912497127596E-008 F
     orb,it,eci,eold,eci-eold=                    9                    9  -1.1376515943638714       -1.1376514915823135       -1.0278155793130850E-007 F
     orb,it,eci,eold,eci-eold=                    9                   10  -1.1376516621146415       -1.1376515943638714       -6.7750770105234892E-008 F
     orb,it,eci,eold,eci-eold=                    9                   11  -1.1376517691148584       -1.1376516621146415       -1.0700021690901451E-007 F
     orb,it,eci,eold,eci-eold=                    9                   12  -1.1376518123519683       -1.1376517691148584       -4.3237109892402259E-008 F
     orb,it,eci,eold,eci-eold=                    9                   13  -1.1376518395802506       -1.1376518123519683       -2.7228282295510553E-008 F
     orb,it,eci,eold,eci-eold=                    9                   14  -1.1376518543423300       -1.1376518395802506       -1.4762079336705369E-008 F
     orb,it,eci,eold,eci-eold=                    9                   15  -1.1376518766481565       -1.1376518543423300       -2.2305826519186667E-008 F
     orb,it,eci,eold,eci-eold=                    9                   16  -1.1376518901487431       -1.1376518766481565       -1.3500586648618196E-008 F
     orb,it,eci,eold,eci-eold=                    9                   17  -1.1376519092666413       -1.1376518901487431       -1.9117898153453439E-008 F
     orb,it,eci,eold,eci-eold=                    9                   18  -1.1376519198663304       -1.1376519092666413       -1.0599689126422618E-008 F
     orb,it,eci,eold,eci-eold=                    9                   19  -1.1376519272344490       -1.1376519198663304       -7.3681185597251897E-009 F
     orb,it,eci,eold,eci-eold=                    9                   20  -1.1376519301634380       -1.1376519272344490       -2.9289890512984584E-009 F
     orb,it,eci,eold,eci-eold=                    9                   21  -1.1376519365800632       -1.1376519301634380       -6.4166252311537164E-009 F
     orb,it,eci,eold,eci-eold=                    9                   22  -1.1376519365800632       -1.1376519365800632        0.0000000000000000      F
     orbital   9 current e=  0.332228E+01 error=0.559E+00 (eci= -0.113765194E+01 error=0.000E+00) iterations  22(   0 preconditioned, Ep,Sp= 20.0  200.0)
     orb,it,eci,eold,eci-eold=                    9                    1  -1.1376519429236911       -1.1376519356328112       -7.2908798998128077E-009 F
     orb,it,eci,eold,eci-eold=                    9                    2  -1.1376519466157555       -1.1376519429236911       -3.6920644319593521E-009 F
     orb,it,eci,eold,eci-eold=                    9                    3  -1.1376519469474586       -1.1376519466157555       -3.3170310942409742E-010 F
     orbital   9 current e=  0.332575E+01 error=0.347E-02 (eci= -0.113765195E+01 error=0.332E-09) iterations   3(   0 preconditioned, Ep,Sp= 20.0  200.0)
     orb,it,eci,eold,eci-eold=                    9                    1  -1.1376519502856290       -1.1376519469474586       -3.3381704067636520E-009 F
     orb,it,eci,eold,eci-eold=                    9                    2  -1.1376519518108668       -1.1376519502856290       -1.5252377139063356E-009 F
     orb,it,eci,eold,eci-eold=                    9                    3  -1.1376519518108668       -1.1376519518108668        0.0000000000000000      F
     orbital   9 current e=  0.332699E+01 error=0.124E-02 (eci= -0.113765195E+01 error=0.000E+00) iterations   3(   0 preconditioned, Ep,Sp= 20.0  200.0)
     orb,it,eci,eold,eci-eold=                   10                    1  -1.1376483043935162       -1.1376432687995548       -5.0355939613666578E-006 F
     orb,it,eci,eold,eci-eold=                   10                    2  -1.1376494095946879       -1.1376483043935162       -1.1052011716916610E-006 F
     orb,it,eci,eold,eci-eold=                   10                    3  -1.1376504432049763       -1.1376494095946879       -1.0336102884700438E-006 F
     orb,it,eci,eold,eci-eold=                   10                    4  -1.1376507646316067       -1.1376504432049763       -3.2142663042300512E-007 F
     orb,it,eci,eold,eci-eold=                   10                    5  -1.1376508789048199       -1.1376507646316067       -1.1427321311430205E-007 F
     orb,it,eci,eold,eci-eold=                   10                    6  -1.1376512198043609       -1.1376508789048199       -3.4089954104032927E-007 F
     orb,it,eci,eold,eci-eold=                   10                    7  -1.1376513633486507       -1.1376512198043609       -1.4354428978791134E-007 F
     orb,it,eci,eold,eci-eold=                   10                    8  -1.1376514584509887       -1.1376513633486507       -9.5102338004693365E-008 F
     orb,it,eci,eold,eci-eold=                   10                    9  -1.1376515664892990       -1.1376514584509887       -1.0803831029804201E-007 F
     orb,it,eci,eold,eci-eold=                   10                   10  -1.1376515666339899       -1.1376515664892990       -1.4469092590729815E-010 F
     orbital  10 current e=  0.334319E+01 error=0.538E+00 (eci= -0.113765157E+01 error=0.145E-09) iterations  10(   0 preconditioned, Ep,Sp= 20.0  200.0)
     orb,it,eci,eold,eci-eold=                   10                    1  -1.1376518282234040       -1.1376515666339899       -2.6158941413001457E-007 F
     orb,it,eci,eold,eci-eold=                   10                    2  -1.1376519100531555       -1.1376518282234040       -8.1829751419348895E-008 F
     orb,it,eci,eold,eci-eold=                   10                    3  -1.1376519316170417       -1.1376519100531555       -2.1563886232200957E-008 F
     orb,it,eci,eold,eci-eold=                   10                    4  -1.1376519316170417       -1.1376519316170417        0.0000000000000000      F
     orbital  10 current e=  0.332736E+01 error=0.158E-01 (eci= -0.113765193E+01 error=0.000E+00) iterations   4(   0 preconditioned, Ep,Sp= 20.0  200.0)
     orb,it,eci,eold,eci-eold=                   10                    1  -1.1376519379075736       -1.1376519307289688       -7.1786048216893050E-009 F
[...]
    8    5    8    8       -0.0000001828
    8    5    9    8       -0.0000000127
    8    5   10    8       -0.0053463368
    8    5   11    8       -0.0051771154
    8    5    9    9       -0.0000001320
    8    5   10    9       -0.0056459915
    8    5   11    9        0.0016398376
    8    5   10   10       -0.0000001790
    8    5   11   10        0.0000000168
    8    5   11   11       -0.0000001366
    9    5    9    5        0.1002786316
    9    5   10    5       -0.0000000603
    9    5   11    5       -0.0000000739
    9    5    6    6        0.0000002945
    9    5    7    6       -0.0095286158
    9    5    8    6        0.0000191129
    9    5    9    6       -0.0000068760
    9    5   10    6        0.0000000040
    9    5   11    6        0.0000000177
    9    5    7    7       -0.0000001990
    9    5    8    7       -0.0000000122
    9    5    9    7       -0.0000000481
    9    5   10    7       -0.0000193437
    9    5   11    7       -0.0001324562
    9    5    8    8       -0.0000000327
    9    5    9    8       -0.0000000002
    9    5   10    8       -0.0066189835
    9    5   11    8       -0.0085022964
    9    5    9    9        0.0000000286
    9    5   10    9       -0.0124146392
    9    5   11    9        0.0068843693
    9    5   10   10        0.0000000604
    9    5   11   10        0.0000000504
    9    5   11   11        0.0000000877
   10    5   10    5        0.1127703650
   10    5   11    5       -0.0094697646
   10    5    6    6       -0.1211141000
   10    5    7    6        0.0000000866
   10    5    8    6       -0.0000000094
   10    5    9    6        0.0000001236
   10    5   10    6        0.0000321561
   10    5   11    6        0.0005145166
   10    5    7    7       -0.1344049226
   10    5    8    7        0.0000419477
   10    5    9    7        0.0000095769
   10    5   10    7        0.0000000000
   10    5   11    7        0.0000000060
   10    5    8    8       -0.1122337012
   10    5    9    8       -0.0032281860
   10    5   10    8       -0.0000000352
   10    5   11    8       -0.0000000205
   10    5    9    9       -0.1159918072
   10    5   10    9        0.0000000178
   10    5   11    9        0.0000000066
   10    5   10   10       -0.1718625334
   10    5   11   10        0.0011018405
   10    5   11   11       -0.1506206111
   11    5   11    5        0.0154113040
   11    5    6    6        0.0116267171
   11    5    7    6        0.0000000031
   11    5    8    6        0.0000000009
   11    5    9    6       -0.0000000070
   11    5   10    6        0.0000150345
   11    5   11    6       -0.0000595839
   11    5    7    7        0.0129033388
   11    5    8    7        0.0000122884
   11    5    9    7        0.0000234522
   11    5   10    7       -0.0000000004
   11    5   11    7       -0.0000000006
   11    5    8    8        0.0079755202
   11    5    9    8       -0.0016729136
   11    5   10    8        0.0000000043
   11    5   11    8        0.0000000135
   11    5    9    9        0.0139338885
   11    5   10    9        0.0000000189
   11    5   11    9        0.0000000026
   11    5   10   10        0.0145739166
   11    5   11   10       -0.0102580694
   11    5   11   11        0.0163857176
    6    6    6    6        0.6942201292
    6    6    7    6        0.0000003257
    6    6    8    6        0.0000000126
    6    6    9    6       -0.0000000771
    6    6   10    6       -0.0000412391
    6    6   11    6       -0.0003431015
    6    6    7    7        0.6262359904
    6    6    8    7        0.0000090528
    6    6    9    7       -0.0000026951
    6    6   10    7       -0.0000000024
    6    6   11    7       -0.0000000133
    6    6    8    8        0.6334237809
    6    6    9    8        0.0000000052
    6    6   10    8       -0.0000002813
    6    6   11    8       -0.0000004120
    6    6    9    9        0.6334237392
    6    6   10    9       -0.0000002713
    6    6   11    9        0.0000001819
    6    6   10   10        0.6026228815
    6    6   11   10        0.0000000287
    6    6   11   11        0.6026740030
    7    6    7    6        0.0276794806
    7    6    8    6       -0.0000000526
    7    6    9    6        0.0000000233
    7    6   10    6       -0.0000000005
    7    6   11    6       -0.0000000034
    7    6    7    7        0.0000005666
    7    6    8    7       -0.0000000007
    7    6    9    7        0.0000000941
    7    6   10    7        0.0000552286
    7    6   11    7        0.0003879207
    7    6    8    8        0.0000005700
    7    6    9    8       -0.0000000019
    7    6   10    8        0.0067738207
    7    6   11    8        0.0104932067
    7    6    9    9        0.0000005136
    7    6   10    9        0.0104955460
    7    6   11    9       -0.0067740728
    7    6   10   10        0.0000000572
    7    6   11   10       -0.0000000312
    7    6   11   11        0.0000000306
    8    6    8    6        0.0278372446
    8    6    9    6        0.0000000001
    8    6   10    6       -0.0000000519
    8    6   11    6       -0.0000000782
    8    6    7    7        0.0000000169
    8    6    8    7        0.0000000124
    8    6    9    7       -0.0000000049
    8    6   10    7        0.0071818352
    8    6   11    7        0.0111238761
    8    6    8    8        0.0000000136
    8    6    9    8       -0.0000000360
    8    6   10    8       -0.0000160051
    8    6   11    8       -0.0002754319
    8    6    9    9        0.0000000151
    8    6   10    9       -0.0000151537
    8    6   11    9        0.0000287059
    8    6   10   10        0.0000000149
    8    6   11   10       -0.0000000055
    8    6   11   11        0.0000000026
    9    6    9    6        0.0278372445
    9    6   10    6       -0.0000000627
    9    6   11    6        0.0000000418
    9    6    7    7       -0.0000001284
    9    6    8    7        0.0000000040
    9    6    9    7        0.0000000011
    9    6   10    7        0.0111274759
    9    6   11    7       -0.0071813376
    9    6    8    8       -0.0000000452
    9    6    9    8        0.0000000010
    9    6   10    8       -0.0000168560
    9    6   11    8        0.0000292088
    9    6    9    9       -0.0000001561
    9    6   10    9       -0.0000502436
    9    6   11    9       -0.0002032660
    9    6   10   10       -0.0000001164
    9    6   11   10       -0.0000000424
    9    6   11   11       -0.0000001332
   10    6   10    6        0.0226675726
   10    6   11    6        0.0000001563
   10    6    7    7       -0.0000752741
   10    6    8    7       -0.0040984874
   10    6    9    7       -0.0063502036
   10    6   10    7       -0.0000001414
   10    6   11    7       -0.0000000090
   10    6    8    8       -0.0000310624
   10    6    9    8        0.0000089005
   10    6   10    8        0.0000000050
   10    6   11    8       -0.0000000004
   10    6    9    9        0.0000017243
   10    6   10    9       -0.0000000807
   10    6   11    9       -0.0000000286
   10    6   10   10       -0.0000788599
   10    6   11   10       -0.0004611020
   10    6   11   11       -0.0000506141
   11    6   11    6        0.0226703945
   11    6    7    7       -0.0005836055
   11    6    8    7       -0.0063443166
   11    6    9    7        0.0040958335
   11    6   10    7       -0.0000000032
   11    6   11    7       -0.0000001472
   11    6    8    8       -0.0001183234
   11    6    9    8       -0.0000179790
   11    6   10    8       -0.0000000070
   11    6   11    8       -0.0000000034
   11    6    9    9       -0.0001657959
   11    6   10    9       -0.0000000405
   11    6   11    9       -0.0000000974
   11    6   10   10       -0.0007022034
   11    6   11   10       -0.0000169420
   11    6   11   11       -0.0011287125
    7    7    7    7        0.6479254755
    7    7    8    7        0.0000191824
    7    7    9    7       -0.0000056974
    7    7   10    7        0.0000000011
    7    7   11    7        0.0000000092
    7    7    8    8        0.6034461927
    7    7    9    8        0.0000000074
    7    7   10    8        0.0000000930
    7    7   11    8        0.0000001596
    7    7    9    9        0.6034461528
    7    7   10    9        0.0000002376
    7    7   11    9       -0.0000001478
    7    7   10   10        0.6072094447
    7    7   11   10        0.0000018016
    7    7   11   11        0.6072635084
    8    7    8    7        0.0291783283
    8    7    9    7        0.0000000040
    8    7   10    7        0.0000000387
    8    7   11    7        0.0000000603
    8    7    8    8        0.0000154600
    8    7    9    8       -0.0000010132
    8    7   10    8       -0.0000000021
    8    7   11    8       -0.0000000050
    8    7    9    9        0.0000090908
    8    7   10    9        0.0000000641
    8    7   11    9        0.0000000934
    8    7   10   10        0.0000489540
    8    7   11   10        0.0002596524
    8    7   11   11        0.0004230866
    9    7    9    7        0.0291783402
    9    7   10    7        0.0000000574
    9    7   11    7       -0.0000000371
    9    7    8    8       -0.0000026998
    9    7    9    8        0.0000034109
    9    7   10    8        0.0000000760
    9    7   11    8        0.0000001222
    9    7    9    9       -0.0000045916
    9    7   10    9        0.0000001486
    9    7   11    9       -0.0000000969
    9    7   10   10        0.0000065137
    9    7   11   10        0.0003150578
    9    7   11   11       -0.0003420913
   10    7   10    7        0.0348241056
   10    7   11    7        0.0000006264
   10    7    8    8        0.0000000025
   10    7    9    8       -0.0000000001
   10    7   10    8        0.0000215071
   10    7   11    8       -0.0000243740
   10    7    9    9       -0.0000001398
   10    7   10    9       -0.0000109691
   10    7   11    9       -0.0001370481
   10    7   10   10       -0.0000000004
   10    7   11   10       -0.0000000055
   10    7   11   11       -0.0000000006
   11    7   11    7        0.0348279358
   11    7    8    8        0.0000000145
   11    7    9    8       -0.0000000135
   11    7   10    8        0.0003315093
   11    7   11    8        0.0001974852
   11    7    9    9        0.0000000995
   11    7   10    9        0.0005129430
   11    7   11    9       -0.0001851196
   11    7   10   10       -0.0000000044
   11    7   11   10       -0.0000000017
   11    7   11   11       -0.0000000086
    8    8    8    8        0.6703339495
    8    8    9    8        0.0000000057
    8    8   10    8       -0.0000000527
    8    8   11    8       -0.0000000457
    8    8    9    9        0.6104185673
    8    8   10    9        0.0000000841
    8    8   11    9       -0.0000000573
    8    8   10   10        0.5899191725
    8    8   11   10        0.0175312353
    8    8   11   11        0.6055117689
    9    8    9    8        0.0309456484
    9    8   10    8        0.0000000510
    9    8   11    8       -0.0000000309
    9    8    9    9        0.0000000128
    9    8   10    9       -0.0000000422
    9    8   11    9       -0.0000000447
    9    8   10   10        0.0175250827
    9    8   11   10        0.0080704994
    9    8   11   11       -0.0175174722
   10    8   10    8        0.0139257639
   10    8   11    8        0.0120643442
   10    8    9    9       -0.0000000925
   10    8   10    9        0.0120773526
   10    8   11    9       -0.0016589130
   10    8   10   10        0.0000000501
   10    8   11   10       -0.0000000121
   10    8   11   11       -0.0000000733
   11    8   11    8        0.0247729837
   11    8    9    9       -0.0000001249
   11    8   10    9        0.0126351883
   11    8   11    9       -0.0120734504
   11    8   10   10       -0.0000000251
   11    8   11   10       -0.0000000546
   11    8   11   11       -0.0000000104
    9    9    9    9        0.6703338452
    9    9   10    9        0.0000000208
    9    9   11    9        0.0000000085
    9    9   10   10        0.6054725334
    9    9   11   10       -0.0175332162
    9    9   11   11        0.5899706207
   10    9   10    9        0.0247737891
   10    9   11    9       -0.0120654753
   10    9   10   10       -0.0000000559
   10    9   11   10       -0.0000000619
   10    9   11   11       -0.0000000230
   11    9   11    9        0.0139319530
   11    9   10   10       -0.0000000313
   11    9   11   10        0.0000000031
   11    9   11   11        0.0000000775
   10   10   10   10        0.6984569505
   10   10   11   10        0.0000174946
   10   10   11   11        0.6354410528
   11   10   11   10        0.0324546711
   11   10   11   11       -0.0000166819
   11   11   11   11        0.6985765371
 end_two_electron_integrals


 output epsi filename:./pspw_hf_H2.emovecs

 Total PSPW energy     :  -0.1137135966E+01


=== Spin Contamination ===

 <Sexact^2> =    0.0000000000000000     
 <S^2>      =    0.0000000000000000     



== Center of Charge ==

spin up     (    0.0000,    0.0000,    0.0000 )
spin down   (    0.0000,    0.0000,    0.0000 )
     total  (    0.0000,    0.0000,    0.0000 )
ionic       (    0.0000,    0.0000,    0.0000 )


== Molecular Dipole wrt Center of Mass ==

mu   =  (   -0.0000,   -0.0000,   -0.0000 ) au
|mu| =     0.0000 au,       0.0000 Debye

 output psi filename:./pspw_hf_H2.movecs

 Writing Crystallographic Information File:./H2.cif
   - cell not shifted (nwpw:cif_shift_cell .false.)


== Timing ==

cputime in seconds
  prologue    :   0.595560E+01
  main loop   :   0.158476E+03
  epilogue    :   0.166236E-01
  total       :   0.164448E+03
  cputime/step:   0.180086E+01       (      88 evalulations,      40 linesearches)


Time spent doing                        total          step       percent
  total time                 :   0.164471E+03  0.186899E+01       100.0 %
  i/o time                   :   0.287770E+00  0.327011E-02         0.2 %
  FFTs                       :   0.112849E+03  0.128238E+01        68.6 %
  dot products               :   0.496200E+01  0.563863E-01         3.0 %
  geodesic                   :   0.360158E-01  0.409270E-03         0.0 %
  ffm_dgemm                  :   0.442964E-02  0.503368E-04         0.0 %
  fmf_dgemm                  :   0.435216E-02  0.494563E-04         0.0 %
  mmm_dgemm                  :   0.158351E-02  0.179945E-04         0.0 %
  m_diagonalize              :   0.800832E-03  0.910036E-05         0.0 %
  local pseudopotentials     :   0.216375E+01  0.245881E-01         1.3 %
  non-local pseudopotentials :   0.464553E+01  0.527901E-01         2.8 %
  structure factors          :   0.248290E+00  0.282148E-02         0.2 %
  phase factors              :   0.795900E-05  0.904432E-07         0.0 %
  masking and packing        :   0.315917E+01  0.358997E-01         1.9 %
  queue fft                  :   0.335988E+01  0.381805E-01         2.0 %
  queue fft (serial)         :   0.127203E+01  0.144549E-01         0.8 %
  queue fft (message passing):   0.207121E+01  0.235365E-01         1.3 %
  HFX potential              :   0.227401E+01  0.258411E-01         1.4 %
  non-local psp FFM          :   0.444682E+01  0.505321E-01         2.7 %
  non-local psp FMF          :   0.429984E-01  0.488618E-03         0.0 %
  non-local psp FFM A        :   0.192036E-01  0.218222E-03         0.0 %
  non-local psp FFM B        :   0.600776E-01  0.682700E-03         0.0 %

== HFX Counters ==
  HFX Evalulations         =    88
  Lin ACE HFX Evalulations =     0


     >>>  JOB COMPLETED     AT Mon Apr 14 15:20:48 2025  <<<

 Task  times  cpu:      152.0s     wall:      164.5s


                                NWChem Input Module
                                -------------------


 Summary of allocated global arrays
-----------------------------------
  No active global arrays


MA_summarize_allocated_blocks: starting scan ...
MA_summarize_allocated_blocks: scan completed: 0 heap blocks, 0 stack blocks
MA usage statistics:

	allocation statistics:
					      heap	     stack
					      ----	     -----
	current number of blocks	         0	         0
	maximum number of blocks	       313	        36
	current total bytes		         0	         0
	maximum total bytes		  16366104	   5334696
	maximum total K-bytes		     16367	      5335
	maximum total M-bytes		        17	         6


                                     CITATION
                                     --------
                Please cite the following reference when publishing
                           results obtained with NWChem:

          E. Apra, E. J. Bylaska, W. A. de Jong, N. Govind, K. Kowalski,
       T. P. Straatsma, M. Valiev, H. J. J. van Dam, Y. Alexeev, J. Anchell,
       V. Anisimov, F. W. Aquino, R. Atta-Fynn, J. Autschbach, N. P. Bauman,
     J. C. Becca, D. E. Bernholdt, K. Bhaskaran-Nair, S. Bogatko, P. Borowski,
         J. Boschen, J. Brabec, A. Bruner, E. Cauet, Y. Chen, G. N. Chuev,
      C. J. Cramer, J. Daily, M. J. O. Deegan, T. H. Dunning Jr., M. Dupuis,
   K. G. Dyall, G. I. Fann, S. A. Fischer, A. Fonari, H. Fruchtl, L. Gagliardi,
      J. Garza, N. Gawande, S. Ghosh, K. Glaesemann, A. W. Gotz, J. Hammond,
       V. Helms, E. D. Hermes, K. Hirao, S. Hirata, M. Jacquelin, L. Jensen,
   B. G. Johnson, H. Jonsson, R. A. Kendall, M. Klemm, R. Kobayashi, V. Konkov,
      S. Krishnamoorthy, M. Krishnan, Z. Lin, R. D. Lins, R. J. Littlefield,
      A. J. Logsdail, K. Lopata, W. Ma, A. V. Marenich, J. Martin del Campo,
   D. Mejia-Rodriguez, J. E. Moore, J. M. Mullin, T. Nakajima, D. R. Nascimento,
    J. A. Nichols, P. J. Nichols, J. Nieplocha, A. Otero-de-la-Roza, B. Palmer,
    A. Panyala, T. Pirojsirikul, B. Peng, R. Peverati, J. Pittner, L. Pollack,
   R. M. Richard, P. Sadayappan, G. C. Schatz, W. A. Shelton, D. W. Silverstein,
   D. M. A. Smith, T. A. Soares, D. Song, M. Swart, H. L. Taylor, G. S. Thomas,
            V. Tipparaju, D. G. Truhlar, K. Tsemekhman, T. Van Voorhis,
      A. Vazquez-Mayagoitia, P. Verma, O. Villa, A. Vishnu, K. D. Vogiatzis,
        D. Wang, J. H. Weare, M. J. Williamson, T. L. Windus, K. Wolinski,
        A. T. Wong, Q. Wu, C. Yang, Q. Yu, M. Zacharias, Z. Zhang, Y. Zhao,
                                and R. J. Harrison
                        "NWChem: Past, present, and future
                         J. Chem. Phys. 152, 184102 (2020)
                               doi:10.1063/5.0004997

                                      AUTHORS
                                      -------
  E. Apra, E. J. Bylaska, N. Govind, K. Kowalski, M. Valiev, D. Mejia-Rodriguez,
       A. Kunitsa, N. P. Bauman, A. Panyala, W. A. de Jong, T. P. Straatsma,
   H. J. J. van Dam, D. Wang, T. L. Windus, J. Hammond, J. Autschbach, A. Woods,
    K. Bhaskaran-Nair, J. Brabec, K. Lopata, S. A. Fischer, S. Krishnamoorthy,
     M. Jacquelin, W. Ma, M. Klemm, O. Villa, Y. Chen, V. Anisimov, F. Aquino,
     S. Hirata, M. T. Hackler, E. Hermes, L. Jensen, J. E. Moore, J. C. Becca,
      V. Konjkov, T. Risthaus, M. Malagoli, A. Marenich, A. Otero-de-la-Roza,
        J. Mullin, P. Nichols, R. Peverati, J. Pittner, Y. Zhao, P.-D. Fan,
        A. Fonari, M. J. Williamson, R. J. Harrison, J. R. Rehr, M. Dupuis,
     D. Silverstein, D. M. A. Smith, J. Nieplocha, V. Tipparaju, M. Krishnan,
     B. E. Van Kuiken, A. Vazquez-Mayagoitia, M. Swart, Q. Wu, T. Van Voorhis,
     A. A. Auer, M. Nooijen, L. D. Crosby, E. Brown, G. Cisneros, G. I. Fann,
   H. Fruchtl, J. Garza, K. Hirao, R. A. Kendall, J. A. Nichols, K. Tsemekhman,
    K. Wolinski, J. Anchell, D. E. Bernholdt, P. Borowski, T. Clark, D. Clerc,
   H. Dachsel, M. J. O. Deegan, K. Dyall, D. Elwood, E. Glendening, M. Gutowski,
   A. C. Hess, J. Jaffe, B. G. Johnson, J. Ju, R. Kobayashi, R. Kutteh, Z. Lin,
   R. Littlefield, X. Long, B. Meng, T. Nakajima, S. Niu, L. Pollack, M. Rosing,
   K. Glaesemann, G. Sandrone, M. Stave, H. Taylor, G. Thomas, J. H. van Lenthe,
                               A. T. Wong, Z. Zhang.

 Total times  cpu:      152.1s     wall:      164.6s
