 argument  1 = H2-0.8.nw



============================== echo of input deck ==============================
title "swnc: e theory=pspw4 xc=hf formula=H2 charge=0 mult=1"
#machinejob:expert

echo

start pspw_hf_H2

memory heap 1200 mb stack 1200 mb global 10 mb

charge 0

geometry
H    0.00000    0.00000   -0.4000
H    0.00000    0.00000    0.4000
end

nwpw
  ### pseudopotential block begin ###
  ### pseudopotential block end   ###
  simulation_cell
     SC 15.0000
     boundary_conditions aperiodic
  end

  cutoff 50.0
  mult 1
  xc hf
  lmbfgs
  tolerances 1.0e-9 1.0e-9

  virtual 10
end
set nwpw:cif_filename H2

#set nwpw:CI_maxit_orb 15
#set nwpw:CI_maxit_linesearch 15
set pspw:HFX_screening_radius 14.0


set nwpw:2qintegrals .true.
set nwpw:3x3_virtual .true.

task pspw energy

================================================================================


                                         
                                         


             Northwest Computational Chemistry Package (NWChem) 7.2.3
             --------------------------------------------------------


                    Environmental Molecular Sciences Laboratory
                       Pacific Northwest National Laboratory
                                Richland, WA 99352

                              Copyright (c) 1994-2022
                       Pacific Northwest National Laboratory
                            Battelle Memorial Institute

             NWChem is an open-source computational chemistry package
                        distributed under the terms of the
                      Educational Community License (ECL) 2.0
             A copy of the license is included with this distribution
                              in the LICENSE.TXT file

                                  ACKNOWLEDGMENT
                                  --------------

            This software and its documentation were developed at the
            EMSL at Pacific Northwest National Laboratory, a multiprogram
            national laboratory, operated for the U.S. Department of Energy
            by Battelle under Contract Number DE-AC05-76RL01830. Support
            for this work was provided by the Department of Energy Office
            of Biological and Environmental Research, Office of Basic
            Energy Sciences, and the Office of Advanced Scientific Computing.


           Job information
           ---------------

    hostname        = mqs-al
    program         = nwchem
    date            = Mon Apr 14 15:21:05 2025

    compiled        = Thu_Oct_31_08:55:15_2024
    source          = /home/conda/feedstock_root/build_artifacts/nwchem_1730356057992/work
    nwchem branch   = 7.2.3
    nwchem revision = c400b04
    ga revision     = 5.8.0
    use scalapack   = T
    input           = H2-0.8.nw
    prefix          = pspw_hf_H2.
    data base       = ./pspw_hf_H2.db
    status          = startup
    nproc           =       24
    time left       =     -1s



           Memory information
           ------------------

    heap     =  157286398 doubles =   1200.0 Mbytes
    stack    =  157286395 doubles =   1200.0 Mbytes
    global   =    1310720 doubles =     10.0 Mbytes (distinct from heap & stack)
    total    =  315883513 doubles =   2410.0 Mbytes
    verify   = yes
    hardfail = no 


           Directory information
           ---------------------

  0 permanent = .
  0 scratch   = .




                                NWChem Input Module
                                -------------------


               swnc: e theory=pspw4 xc=hf formula=H2 charge=0 mult=1
               -----------------------------------------------------

 Scaling coordinates for geometry "geometry" by  1.889725989
 (inverse scale =  0.529177249)

  zeroes
  zeroes
  zeroes
  zeroes
  zeroes
  zeroes
  zeroes
  zeroes
  zeroes
  zeroes
  zeroes
  zeroes
  zeroes
  zeroes
  zeroes
  zeroes
  zeroes
  zeroes
  zeroes
  zeroes
  zeroes
  zeroes
  zeroes
  zeroes
  zeroes
  zeroes
  zeroes
  zeroes
  zeroes
  zeroes
  zeroes
  zeroes
  zeroes
  zeroes
  zeroes
  zeroes
  zeroes
  zeroes
  zeroes
  zeroes
  zeroes
  zeroes
  zeroes
  zeroes
  zeroes
  zeroes
  zeroes
  zeroes
 ORDER OF PRIMARY AXIS IS BEING SET TO 4
 D4H symmetry detected

          ------
          auto-z
          ------
  no constraints, skipping    0.0000000000000000     
  no constraints, skipping    0.0000000000000000     


                             Geometry "geometry" -> ""
                             -------------------------

 Output coordinates in angstroms (scale by  1.889725989 to convert to a.u.)

  No.       Tag          Charge          X              Y              Z
 ---- ---------------- ---------- -------------- -------------- --------------
    1 H                    1.0000     0.00000000     0.00000000    -0.40000000
    2 H                    1.0000     0.00000000     0.00000000     0.40000000

      Atomic Mass 
      ----------- 

      H                  1.007825


 Effective nuclear repulsion energy (a.u.)       0.6614715612

            Nuclear Dipole moment (a.u.) 
            ----------------------------
        X                 Y               Z
 ---------------- ---------------- ----------------
     0.0000000000     0.0000000000     0.0000000000

      Symmetry information
      --------------------

 Group name             D4h       
 Group number             28
 Group order              16
 No. of unique centers     1

      Symmetry unique atoms

     1



                                Z-matrix (autoz)
                                -------- 

 Units are Angstrom for bonds and degrees for angles

      Type          Name      I     J     K     L     M      Value
      ----------- --------  ----- ----- ----- ----- ----- ----------
    1 Stretch                  1     2                       0.80000


            XYZ format geometry
            -------------------
     2
 geometry
 H                     0.00000000     0.00000000    -0.40000000
 H                     0.00000000     0.00000000     0.40000000

          ****************************************************
          *                                                  *
          *               NWPW PSPW Calculation              *
          *                                                  *
          * [ (Grassmann/Stiefel manifold implementation)  ] *
          *                                                  *
          *      [ NorthWest Chemistry implementation ]      *
          *                                                  *
          *            version #5.10   06/12/02              *
          *                                                  *
          *    This code was developed by Eric J. Bylaska,   *
          *    and was based upon algorithms and code        *
          *    developed by the group of Prof. John H. Weare *
          *                                                  *
          ****************************************************
     >>>  JOB STARTED       AT Mon Apr 14 15:21:05 2025  <<<
          ================ input data ========================

 input psi filename:./pspw_hf_H2.movecs

 number of processors used:        24
 processor grid           :  24 x   1
 parallel mapping         :2d-hilbert
 parallel mapping         :  balanced
 number of threads        :         1
 parallel io              :       off

 options:
      boundary conditions  = aperiodic   (version4)
      electron spin        = restricted
      exchange-correlation = Hartree-Fock
      - HFX relaxed
      - HFX restricted orbitals :    1
      - HFX free-space coulomb solver


 elements involved in the cluster:
      1: H   valence charge:  1.0000  lmax=  1
             comment    : Parameterized (Chem.Phys.Lett., vol 322, page 447) Hamman psp
             pseudpotential type            :   0
             highest angular component      :   1
             local potential used           :   1
             number of non-local projections:   1
             aperiodic cutoff radius        :  1.000
             cutoff =   0.800   0.800


 total charge:   0.000

 atomic composition:
     H   :    2

 number of electrons: spin up=     1 (   1 per task)  down=     1 (   1 per task) (Fourier space)
 number of orbitals : spin up=     1 (   1 per task)  down=     1 (   1 per task) (Fourier space)

 supercell:
      cell_name:  cell_default                                      
      lattice:    a1=<  15.000   0.000   0.000 >
                  a2=<   0.000  15.000   0.000 >
                  a3=<   0.000   0.000  15.000 >
      reciprocal: b1=<   0.419   0.000   0.000 >
                  b2=<   0.000   0.419   0.000 >
                  b3=<   0.000   0.000   0.419 >
      lattice:    a=      15.000 b=     15.000 c=      15.000
                  alpha=  90.000 beta=  90.000 gamma=  90.000
                  omega=      3375.0

      density cutoff=100.000  fft= 70x 70x 70(    80618 waves     3359 per task)
      wavefnc cutoff= 50.000  fft= 70x 70x 70(    28526 waves     1188 per task)

 technical parameters:
      time step=      5.80     fictitious mass=  400000.0
      tolerance=0.100E-08 (energy)   0.100E-08 (density)
      maximum iterations =      1000 (   10 inner    100 outer )





== Energy Calculation ==


          ============ Grassmann lmbfgs iteration ============
     >>>  ITERATION STARTED AT Mon Apr 14 15:21:12 2025  <<<
    iter.           Energy         DeltaE       DeltaRho 
    ------------------------------------------------------
      10   -0.1132357043E+01   -0.75979E-04    0.24041E-02
      20   -0.1132511608E+01   -0.18330E-05    0.29304E-05
      30   -0.1132516041E+01   -0.61105E-07    0.40267E-08
      40   -0.1132516176E+01   -0.12716E-08    0.11331E-10
      50   -0.1132516177E+01   -0.88394E-09    0.12784E-12
  *** tolerance ok. iteration terminated
     >>>  ITERATION ENDED   AT Mon Apr 14 15:21:16 2025  <<<


==  Summary Of Results  ==

 number of electrons: spin up=    1.00000  down=    1.00000 (real space)

 total     energy    :  -0.1132516177E+01 (   -0.56626E+00/ion)
 total orbital energy:  -0.1156947996E+01 (   -0.11569E+01/electron)
 hartree   energy    :   0.1274079485E+01 (    0.12741E+01/electron)
 exc-corr  energy    :   0.0000000000E+00 (    0.00000E+00/electron)
 HF exchange energy  :  -0.6370397423E+00 (   -0.63704E+00/electron)
 ion-ion   energy    :   0.6614715612E+00 (    0.33074E+00/ion)

 kinetic (planewave) :   0.1014726773E+01 (    0.10147E+01/electron)
 V_local (planewave) :  -0.3150581061E+01 (   -0.31506E+01/electron)
 V_nl    (planewave) :  -0.2951731927E+00 (   -0.29517E+00/electron)
 V_Coul  (planewave) :   0.2548158969E+01 (    0.25482E+01/electron)
 V_xc.   (planewave) :   0.0000000000E+00 (    0.00000E+00/electron)
 K.S. HFX energy     :  -0.1274079485E+01 (   -0.12741E+01/electron)
 Virial Coefficient  :  -0.8845684454E+00

 orbital energies:
    -0.5784740E+00 ( -15.741eV)


== Virtual Orbital Calculation ==


 input epsi filename:./pspw_hf_H2.emovecs

 COVOs Mimimization
 ------------------
CI gradient algorithm =         3
maxit_sweeps          =         3
maxit_orb             =       120
maxit_linesearch      =        15
maxerror              = 0.100E-08

     orb,it,eci,eold,eci-eold=                    1                    1  -1.1510570431156932       -1.1510096522156190       -4.7390900074217868E-005 F
     orb,it,eci,eold,eci-eold=                    1                    2  -1.1510602859489016       -1.1510570431156932       -3.2428332084055711E-006 F
     orb,it,eci,eold,eci-eold=                    1                    3  -1.1511168628662829       -1.1510602859489016       -5.6576917381256919E-005 F
     orb,it,eci,eold,eci-eold=                    1                    4  -1.1511491317258282       -1.1511168628662829       -3.2268859545325768E-005 F
     orb,it,eci,eold,eci-eold=                    1                    5  -1.1511898723885943       -1.1511491317258282       -4.0740662766047819E-005 F
     orb,it,eci,eold,eci-eold=                    1                    6  -1.1511952219578829       -1.1511898723885943       -5.3495692886595947E-006 F
     orb,it,eci,eold,eci-eold=                    1                    7  -1.1511988413669960       -1.1511952219578829       -3.6194091130870021E-006 F
     orb,it,eci,eold,eci-eold=                    1                    8  -1.1512178055821034       -1.1511988413669960       -1.8964215107386551E-005 F
     orb,it,eci,eold,eci-eold=                    1                    9  -1.1512249576289906       -1.1512178055821034       -7.1520468871710818E-006 F
     orb,it,eci,eold,eci-eold=                    1                   10  -1.1512272366265024       -1.1512249576289906       -2.2789975118175931E-006 F
     orb,it,eci,eold,eci-eold=                    1                   11  -1.1512393872494453       -1.1512272366265024       -1.2150622942908029E-005 F
     orb,it,eci,eold,eci-eold=                    1                   12  -1.1512407292103535       -1.1512393872494453       -1.3419609081743999E-006 F
     orb,it,eci,eold,eci-eold=                    1                   13  -1.1512410795166148       -1.1512407292103535       -3.5030626133192300E-007 F
     orb,it,eci,eold,eci-eold=                    1                   14  -1.1512488351809513       -1.1512410795166148       -7.7556643365284117E-006 F
     orb,it,eci,eold,eci-eold=                    1                   15  -1.1512510669501772       -1.1512488351809513       -2.2317692258688737E-006 F
     orb,it,eci,eold,eci-eold=                    1                   16  -1.1512523838710660       -1.1512510669501772       -1.3169208887831019E-006 F
     orb,it,eci,eold,eci-eold=                    1                   17  -1.1512583896456356       -1.1512523838710660       -6.0057745696617815E-006 F
     orb,it,eci,eold,eci-eold=                    1                   18  -1.1512585564271334       -1.1512583896456356       -1.6678149772353379E-007 F
     orb,it,eci,eold,eci-eold=                    1                   19  -1.1512586956946029       -1.1512585564271334       -1.3926746955661429E-007 F
     orb,it,eci,eold,eci-eold=                    1                   20  -1.1512637357514952       -1.1512586956946029       -5.0400568922803757E-006 F
     orb,it,eci,eold,eci-eold=                    1                   21  -1.1512658814785552       -1.1512637357514952       -2.1457270600322431E-006 F
     orb,it,eci,eold,eci-eold=                    1                   22  -1.1512664047042975       -1.1512658814785552       -5.2322574228824692E-007 F
     orb,it,eci,eold,eci-eold=                    1                   23  -1.1512693691352403       -1.1512664047042975       -2.9644309427201421E-006 F
     orb,it,eci,eold,eci-eold=                    1                   24  -1.1512697408211989       -1.1512693691352403       -3.7168595867775878E-007 F
     orb,it,eci,eold,eci-eold=                    1                   25  -1.1512699778781335       -1.1512697408211989       -2.3705693452669152E-007 F
     orb,it,eci,eold,eci-eold=                    1                   26  -1.1512732064849984       -1.1512699778781335       -3.2286068649689526E-006 F
     orb,it,eci,eold,eci-eold=                    1                   27  -1.1512739624743658       -1.1512732064849984       -7.5598936732923505E-007 F
     orb,it,eci,eold,eci-eold=                    1                   28  -1.1512742361347645       -1.1512739624743658       -2.7366039878629067E-007 F
     orb,it,eci,eold,eci-eold=                    1                   29  -1.1512764966540487       -1.1512742361347645       -2.2605192842028998E-006 F
     orb,it,eci,eold,eci-eold=                    1                   30  -1.1512775209002255       -1.1512764966540487       -1.0242461767617783E-006 F
     orb,it,eci,eold,eci-eold=                    1                   31  -1.1512784809759848       -1.1512775209002255       -9.6007575933754197E-007 F
     orb,it,eci,eold,eci-eold=                    1                   32  -1.1512790790570795       -1.1512784809759848       -5.9808109464931647E-007 F
     orb,it,eci,eold,eci-eold=                    1                   33  -1.1512801351616169       -1.1512790790570795       -1.0561045373780331E-006 F
     orb,it,eci,eold,eci-eold=                    1                   34  -1.1512807246053829       -1.1512801351616169       -5.8944376601921533E-007 F
     orb,it,eci,eold,eci-eold=                    1                   35  -1.1512813739644960       -1.1512807246053829       -6.4935911314734085E-007 F
     orb,it,eci,eold,eci-eold=                    1                   36  -1.1512816503674876       -1.1512813739644960       -2.7640299160580639E-007 F
     orb,it,eci,eold,eci-eold=                    1                   37  -1.1512820500732548       -1.1512816503674876       -3.9970576715120387E-007 F
     orb,it,eci,eold,eci-eold=                    1                   38  -1.1512820709808103       -1.1512820500732548       -2.0907555464688699E-008 F
     orb,it,eci,eold,eci-eold=                    1                   39  -1.1512821521321772       -1.1512820709808103       -8.1151366959630877E-008 F
     orb,it,eci,eold,eci-eold=                    1                   40  -1.1512824967112329       -1.1512821521321772       -3.4457905573326286E-007 F
     orb,it,eci,eold,eci-eold=                    1                   41  -1.1512825635889627       -1.1512824967112329       -6.6877729798520136E-008 F
     orb,it,eci,eold,eci-eold=                    1                   42  -1.1512825817959513       -1.1512825635889627       -1.8206988583457928E-008 F
     orb,it,eci,eold,eci-eold=                    1                   43  -1.1512828374735222       -1.1512825817959513       -2.5567757089284271E-007 F
     orb,it,eci,eold,eci-eold=                    1                   44  -1.1512829978765202       -1.1512828374735222       -1.6040299799513491E-007 F
     orb,it,eci,eold,eci-eold=                    1                   45  -1.1512830597617241       -1.1512829978765202       -6.1885203850309267E-008 F
     orb,it,eci,eold,eci-eold=                    1                   46  -1.1512832678224298       -1.1512830597617241       -2.0806070577528146E-007 F
     orb,it,eci,eold,eci-eold=                    1                   47  -1.1512833037253196       -1.1512832678224298       -3.5902889772287949E-008 F
     orb,it,eci,eold,eci-eold=                    1                   48  -1.1512833047774729       -1.1512833037253196       -1.0521532534113476E-009 F
     orb,it,eci,eold,eci-eold=                    1                   49  -1.1512834483581913       -1.1512833047774729       -1.4358071842579534E-007 F
     orb,it,eci,eold,eci-eold=                    1                   50  -1.1512835674090121       -1.1512834483581913       -1.1905082075713835E-007 F
     orb,it,eci,eold,eci-eold=                    1                   51  -1.1512836191363978       -1.1512835674090121       -5.1727385708133511E-008 F
     orb,it,eci,eold,eci-eold=                    1                   52  -1.1512837380074847       -1.1512836191363978       -1.1887108697372639E-007 F
     orb,it,eci,eold,eci-eold=                    1                   53  -1.1512837476989186       -1.1512837380074847       -9.6914338776343811E-009 F
     orb,it,eci,eold,eci-eold=                    1                   54  -1.1512837516010521       -1.1512837476989186       -3.9021335052069617E-009 F
     orb,it,eci,eold,eci-eold=                    1                   55  -1.1512838384791204       -1.1512837516010521       -8.6878068294993227E-008 F
     orb,it,eci,eold,eci-eold=                    1                   56  -1.1512838982485345       -1.1512838384791204       -5.9769414084698269E-008 F
     orb,it,eci,eold,eci-eold=                    1                   57  -1.1512839227070439       -1.1512838982485345       -2.4458509439995169E-008 F
     orb,it,eci,eold,eci-eold=                    1                   58  -1.1512839931402201       -1.1512839227070439       -7.0433176180273449E-008 F
     orb,it,eci,eold,eci-eold=                    1                   59  -1.1512840040169046       -1.1512839931402201       -1.0876684441996076E-008 F
     orb,it,eci,eold,eci-eold=                    1                   60  -1.1512840065563708       -1.1512840040169046       -2.5394661928856976E-009 F
     orb,it,eci,eold,eci-eold=                    1                   61  -1.1512840576596062       -1.1512840065563708       -5.1103235421123827E-008 F
     orb,it,eci,eold,eci-eold=                    1                   62  -1.1512840917614862       -1.1512840576596062       -3.4101879986536687E-008 F
     orb,it,eci,eold,eci-eold=                    1                   63  -1.1512841048351785       -1.1512840917614862       -1.3073692350928923E-008 F
     orb,it,eci,eold,eci-eold=                    1                   64  -1.1512841451035607       -1.1512841048351785       -4.0268382184294182E-008 F
     orb,it,eci,eold,eci-eold=                    1                   65  -1.1512841531409248       -1.1512841451035607       -8.0373641075937030E-009 F
     orb,it,eci,eold,eci-eold=                    1                   66  -1.1512841553161266       -1.1512841531409248       -2.1752017964615789E-009 F
     orb,it,eci,eold,eci-eold=                    1                   67  -1.1512841845176554       -1.1512841553161266       -2.9201528750633088E-008 F
     orb,it,eci,eold,eci-eold=                    1                   68  -1.1512842040312998       -1.1512841845176554       -1.9513644478053038E-008 F
     orb,it,eci,eold,eci-eold=                    1                   69  -1.1512842125436022       -1.1512842040312998       -8.5123024184952101E-009 F
     orb,it,eci,eold,eci-eold=                    1                   70  -1.1512842376898662       -1.1512842125436022       -2.5146263959996418E-008 F
     orb,it,eci,eold,eci-eold=                    1                   71  -1.1512842430151666       -1.1512842376898662       -5.3253004228537293E-009 F
     orb,it,eci,eold,eci-eold=                    1                   72  -1.1512842442795077       -1.1512842430151666       -1.2643410762791518E-009 F
     orb,it,eci,eold,eci-eold=                    1                   73  -1.1512842609291587       -1.1512842442795077       -1.6649650991240605E-008 F
     orb,it,eci,eold,eci-eold=                    1                   74  -1.1512842704364876       -1.1512842609291587       -9.5073289241298653E-009 F
     orb,it,eci,eold,eci-eold=                    1                   75  -1.1512842741092388       -1.1512842704364876       -3.6727512142675778E-009 F
     orb,it,eci,eold,eci-eold=                    1                   76  -1.1512842872021412       -1.1512842741092388       -1.3092902317879407E-008 F
     orb,it,eci,eold,eci-eold=                    1                   77  -1.1512842919485629       -1.1512842872021412       -4.7464217001191855E-009 F
     orb,it,eci,eold,eci-eold=                    1                   78  -1.1512842944015018       -1.1512842919485629       -2.4529389630600917E-009 F
     orb,it,eci,eold,eci-eold=                    1                   79  -1.1512843061043143       -1.1512842944015018       -1.1702812496849901E-008 F
     orb,it,eci,eold,eci-eold=                    1                   80  -1.1512843107719637       -1.1512843061043143       -4.6676493781205863E-009 F
     orb,it,eci,eold,eci-eold=                    1                   81  -1.1512843120007823       -1.1512843107719637       -1.2288186024278502E-009 F
     orb,it,eci,eold,eci-eold=                    1                   82  -1.1512843197767413       -1.1512843120007823       -7.7759589878212410E-009 F
     orb,it,eci,eold,eci-eold=                    1                   83  -1.1512843231003607       -1.1512843197767413       -3.3236193797137048E-009 F
     orb,it,eci,eold,eci-eold=                    1                   84  -1.1512843243215016       -1.1512843231003607       -1.2211409661233574E-009 F
     orb,it,eci,eold,eci-eold=                    1                   85  -1.1512843306019653       -1.1512843243215016       -6.2804637046554035E-009 F
     orb,it,eci,eold,eci-eold=                    1                   86  -1.1512843332737508       -1.1512843306019653       -2.6717854595403878E-009 F
     orb,it,eci,eold,eci-eold=                    1                   87  -1.1512843341340306       -1.1512843332737508       -8.6027984735892460E-010 F
     orbital   1 current e=  0.541848E+00 error=0.695E-01 (eci= -0.115128433E+01 error=0.860E-09) iterations  87(   0 preconditioned, Ep,Sp= 20.0  200.0)
     orb,it,eci,eold,eci-eold=                    1                    1  -1.1512843391445948       -1.1512843341340306       -5.0105641857811634E-009 F
     orb,it,eci,eold,eci-eold=                    1                    2  -1.1512843391445948       -1.1512843391445948        0.0000000000000000      F
     orbital   1 current e=  0.541851E+00 error=0.258E-05 (eci= -0.115128434E+01 error=0.000E+00) iterations   2(   0 preconditioned, Ep,Sp= 20.0  200.0)
     orb,it,eci,eold,eci-eold=                    1                    1  -1.1512843606501417       -1.1512843384227192       -2.2227422569187638E-008 F
     orb,it,eci,eold,eci-eold=                    1                    2  -1.1512843626767948       -1.1512843606501417       -2.0266530675883132E-009 F
     orb,it,eci,eold,eci-eold=                    1                    3  -1.1512843626767948       -1.1512843626767948        0.0000000000000000      F
     orbital   1 current e=  0.541849E+00 error=0.167E-05 (eci= -0.115128436E+01 error=0.000E+00) iterations   3(   0 preconditioned, Ep,Sp= 20.0  200.0)
     orb,it,eci,eold,eci-eold=                    2                    1  -1.1400135179330000       -1.1399497782267631       -6.3739706236853877E-005 F
     orb,it,eci,eold,eci-eold=                    2                    2  -1.1400393703966403       -1.1400135179330000       -2.5852463640285706E-005 F
     orb,it,eci,eold,eci-eold=                    2                    3  -1.1400547439306172       -1.1400393703966403       -1.5373533976958953E-005 F
     orb,it,eci,eold,eci-eold=                    2                    4  -1.1400633862086189       -1.1400547439306172       -8.6422780016803813E-006 F
     orb,it,eci,eold,eci-eold=                    2                    5  -1.1400659413808050       -1.1400633862086189       -2.5551721860583854E-006 F
     orb,it,eci,eold,eci-eold=                    2                    6  -1.1400673445547551       -1.1400659413808050       -1.4031739501429996E-006 F
     orb,it,eci,eold,eci-eold=                    2                    7  -1.1400684543483957       -1.1400673445547551       -1.1097936405413122E-006 F
     orb,it,eci,eold,eci-eold=                    2                    8  -1.1400704978267275       -1.1400684543483957       -2.0434783318812322E-006 F
     orb,it,eci,eold,eci-eold=                    2                    9  -1.1400717870614230       -1.1400704978267275       -1.2892346954451739E-006 F
     orb,it,eci,eold,eci-eold=                    2                   10  -1.1400734338157279       -1.1400717870614230       -1.6467543049181188E-006 F
     orb,it,eci,eold,eci-eold=                    2                   11  -1.1400743528535005       -1.1400734338157279       -9.1903777255097907E-007 F
     orb,it,eci,eold,eci-eold=                    2                   12  -1.1400754539661326       -1.1400743528535005       -1.1011126321847087E-006 F
     orb,it,eci,eold,eci-eold=                    2                   13  -1.1400760631711262       -1.1400754539661326       -6.0920499356242885E-007 F
     orb,it,eci,eold,eci-eold=                    2                   14  -1.1400767384676116       -1.1400760631711262       -6.7529648539732534E-007 F
     orb,it,eci,eold,eci-eold=                    2                   15  -1.1400767426842511       -1.1400767384676116       -4.2166394820242203E-009 F
     orb,it,eci,eold,eci-eold=                    2                   16  -1.1400770102766997       -1.1400767426842511       -2.6759244864393850E-007 F
     orb,it,eci,eold,eci-eold=                    2                   17  -1.1400774709368895       -1.1400770102766997       -4.6066018977164447E-007 F
     orb,it,eci,eold,eci-eold=                    2                   18  -1.1400777539534266       -1.1400774709368895       -2.8301653709483787E-007 F
     orb,it,eci,eold,eci-eold=                    2                   19  -1.1400780904250536       -1.1400777539534266       -3.3647162700489730E-007 F
     orb,it,eci,eold,eci-eold=                    2                   20  -1.1400782423503886       -1.1400780904250536       -1.5192533497909722E-007 F
     orb,it,eci,eold,eci-eold=                    2                   21  -1.1400784027156106       -1.1400782423503886       -1.6036522199058822E-007 F
     orb,it,eci,eold,eci-eold=                    2                   22  -1.1400785000708153       -1.1400784027156106       -9.7355204786708782E-008 F
     orb,it,eci,eold,eci-eold=                    2                   23  -1.1400786722155889       -1.1400785000708153       -1.7214477354698943E-007 F
     orb,it,eci,eold,eci-eold=                    2                   24  -1.1400787630289271       -1.1400786722155889       -9.0813338182726966E-008 F
     orb,it,eci,eold,eci-eold=                    2                   25  -1.1400788756354610       -1.1400787630289271       -1.1260653387523689E-007 F
     orb,it,eci,eold,eci-eold=                    2                   26  -1.1400789365151394       -1.1400788756354610       -6.0879678409619942E-008 F
     orb,it,eci,eold,eci-eold=                    2                   27  -1.1400790017287818       -1.1400789365151394       -6.5213642486128265E-008 F
     orb,it,eci,eold,eci-eold=                    2                   28  -1.1400790344580223       -1.1400790017287818       -3.2729240428963635E-008 F
     orb,it,eci,eold,eci-eold=                    2                   29  -1.1400790784413704       -1.1400790344580223       -4.3983348074760897E-008 F
     orb,it,eci,eold,eci-eold=                    2                   30  -1.1400791041708476       -1.1400790784413704       -2.5729477215463703E-008 F
     orb,it,eci,eold,eci-eold=                    2                   31  -1.1400791359804989       -1.1400791041708476       -3.1809651357406210E-008 F
     orb,it,eci,eold,eci-eold=                    2                   32  -1.1400791525757181       -1.1400791359804989       -1.6595219198833888E-008 F
     orb,it,eci,eold,eci-eold=                    2                   33  -1.1400791787026290       -1.1400791525757181       -2.6126910857016128E-008 F
     orb,it,eci,eold,eci-eold=                    2                   34  -1.1400791916599695       -1.1400791787026290       -1.2957340533858996E-008 F
     orb,it,eci,eold,eci-eold=                    2                   35  -1.1400792058297047       -1.1400791916599695       -1.4169735162994357E-008 F
     orb,it,eci,eold,eci-eold=                    2                   36  -1.1400792139505522       -1.1400792058297047       -8.1208475499749966E-009 F
     orb,it,eci,eold,eci-eold=                    2                   37  -1.1400792235326576       -1.1400792139505522       -9.5821053314182336E-009 F
     orb,it,eci,eold,eci-eold=                    2                   38  -1.1400792285178336       -1.1400792235326576       -4.9851760497432451E-009 F
     orb,it,eci,eold,eci-eold=                    2                   39  -1.1400792355860092       -1.1400792285178336       -7.0681756003665441E-009 F
     orb,it,eci,eold,eci-eold=                    2                   40  -1.1400792355860092       -1.1400792355860092        0.0000000000000000      F
     orbital   2 current e=  0.892470E+00 error=0.158E+00 (eci= -0.114007924E+01 error=0.000E+00) iterations  40(   0 preconditioned, Ep,Sp= 20.0  200.0)
     orb,it,eci,eold,eci-eold=                    2                    1  -1.1400792488533233       -1.1400792346485502       -1.4204773135517712E-008 F
     orb,it,eci,eold,eci-eold=                    2                    2  -1.1400792521611138       -1.1400792488533233       -3.3077904859624141E-009 F
     orb,it,eci,eold,eci-eold=                    2                    3  -1.1400792521611138       -1.1400792521611138        0.0000000000000000      F
     orbital   2 current e=  0.892650E+00 error=0.180E-03 (eci= -0.114007925E+01 error=0.000E+00) iterations   3(   0 preconditioned, Ep,Sp= 20.0  200.0)
     orb,it,eci,eold,eci-eold=                    2                    1  -1.1400792567512907       -1.1400792516317091       -5.1195816475058109E-009 F
     orb,it,eci,eold,eci-eold=                    2                    2  -1.1400792590789610       -1.1400792567512907       -2.3276702787455861E-009 F
     orb,it,eci,eold,eci-eold=                    2                    3  -1.1400792606533847       -1.1400792590789610       -1.5744237025216989E-009 F
     orb,it,eci,eold,eci-eold=                    2                    4  -1.1400792612076192       -1.1400792606533847       -5.5423443612312440E-010 F
     orbital   2 current e=  0.892791E+00 error=0.141E-03 (eci= -0.114007926E+01 error=0.554E-09) iterations   4(   0 preconditioned, Ep,Sp= 20.0  200.0)
     orb,it,eci,eold,eci-eold=                    3                    1  -1.1385512736528962       -1.1385151685578920       -3.6105095004179688E-005 F
     orb,it,eci,eold,eci-eold=                    3                    2  -1.1385518213752763       -1.1385512736528962       -5.4772238011757679E-007 F
     orb,it,eci,eold,eci-eold=                    3                    3  -1.1385546324681113       -1.1385518213752763       -2.8110928349533992E-006 F
     orb,it,eci,eold,eci-eold=                    3                    4  -1.1385581938201215       -1.1385546324681113       -3.5613520101840379E-006 F
     orb,it,eci,eold,eci-eold=                    3                    5  -1.1385598335445402       -1.1385581938201215       -1.6397244186894255E-006 F
     orb,it,eci,eold,eci-eold=                    3                    6  -1.1385638115342214       -1.1385598335445402       -3.9779896812142113E-006 F
     orb,it,eci,eold,eci-eold=                    3                    7  -1.1385644302019140       -1.1385638115342214       -6.1866769263119181E-007 F
     orb,it,eci,eold,eci-eold=                    3                    8  -1.1385659989027495       -1.1385644302019140       -1.5687008354525744E-006 F
     orb,it,eci,eold,eci-eold=                    3                    9  -1.1385673932598075       -1.1385659989027495       -1.3943570580376985E-006 F
     orb,it,eci,eold,eci-eold=                    3                   10  -1.1385682286934153       -1.1385673932598075       -8.3543360784865683E-007 F
     orb,it,eci,eold,eci-eold=                    3                   11  -1.1385702499351829       -1.1385682286934153       -2.0212417675136152E-006 F
     orb,it,eci,eold,eci-eold=                    3                   12  -1.1385706211272715       -1.1385702499351829       -3.7119208862179676E-007 F
     orb,it,eci,eold,eci-eold=                    3                   13  -1.1385710765525081       -1.1385706211272715       -4.5542523663399948E-007 F
     orb,it,eci,eold,eci-eold=                    3                   14  -1.1385722100144080       -1.1385710765525081       -1.1334618998937174E-006 F
     orb,it,eci,eold,eci-eold=                    3                   15  -1.1385729036565935       -1.1385722100144080       -6.9364218546752454E-007 F
     orb,it,eci,eold,eci-eold=                    3                   16  -1.1385736819101340       -1.1385729036565935       -7.7825354050098383E-007 F
     orb,it,eci,eold,eci-eold=                    3                   17  -1.1385738639964527       -1.1385736819101340       -1.8208631868965597E-007 F
     orb,it,eci,eold,eci-eold=                    3                   18  -1.1385742418048774       -1.1385738639964527       -3.7780842476742293E-007 F
     orb,it,eci,eold,eci-eold=                    3                   19  -1.1385745799590477       -1.1385742418048774       -3.3815417022076133E-007 F
     orb,it,eci,eold,eci-eold=                    3                   20  -1.1385747051621276       -1.1385745799590477       -1.2520307990371293E-007 F
     orb,it,eci,eold,eci-eold=                    3                   21  -1.1385751748190911       -1.1385747051621276       -4.6965696354206443E-007 F
     orb,it,eci,eold,eci-eold=                    3                   22  -1.1385752457733256       -1.1385751748190911       -7.0954234487885515E-008 F
     orb,it,eci,eold,eci-eold=                    3                   23  -1.1385752682006109       -1.1385752457733256       -2.2427285362169869E-008 F
     orb,it,eci,eold,eci-eold=                    3                   24  -1.1385755664235204       -1.1385752682006109       -2.9822290947834063E-007 F
     orb,it,eci,eold,eci-eold=                    3                   25  -1.1385757529173652       -1.1385755664235204       -1.8649384481150832E-007 F
     orb,it,eci,eold,eci-eold=                    3                   26  -1.1385758891501574       -1.1385757529173652       -1.3623279215835282E-007 F
     orb,it,eci,eold,eci-eold=                    3                   27  -1.1385759707680310       -1.1385758891501574       -8.1617873570749566E-008 F
     orb,it,eci,eold,eci-eold=                    3                   28  -1.1385761349577532       -1.1385759707680310       -1.6418972226261985E-007 F
     orb,it,eci,eold,eci-eold=                    3                   29  -1.1385762183144692       -1.1385761349577532       -8.3356715974147733E-008 F
     orb,it,eci,eold,eci-eold=                    3                   30  -1.1385762963427506       -1.1385762183144692       -7.8028281391695486E-008 F
     orb,it,eci,eold,eci-eold=                    3                   31  -1.1385763390307184       -1.1385762963427506       -4.2687967827248485E-008 F
     orb,it,eci,eold,eci-eold=                    3                   32  -1.1385764185991238       -1.1385763390307184       -7.9568405420005206E-008 F
     orb,it,eci,eold,eci-eold=                    3                   33  -1.1385764625190862       -1.1385764185991238       -4.3919962333660578E-008 F
     orb,it,eci,eold,eci-eold=                    3                   34  -1.1385765005985180       -1.1385764625190862       -3.8079431829984856E-008 F
     orb,it,eci,eold,eci-eold=                    3                   35  -1.1385765200594613       -1.1385765005985180       -1.9460943301297107E-008 F
     orb,it,eci,eold,eci-eold=                    3                   36  -1.1385765696401351       -1.1385765200594613       -4.9580673788796048E-008 F
     orb,it,eci,eold,eci-eold=                    3                   37  -1.1385765706779307       -1.1385765696401351       -1.0377956272122901E-009 F
     orb,it,eci,eold,eci-eold=                    3                   38  -1.1385765726537018       -1.1385765706779307       -1.9757711022805324E-009 F
     orb,it,eci,eold,eci-eold=                    3                   39  -1.1385766035043108       -1.1385765726537018       -3.0850608956356496E-008 F
     orb,it,eci,eold,eci-eold=                    3                   40  -1.1385766206367074       -1.1385766035043108       -1.7132396612495882E-008 F
     orb,it,eci,eold,eci-eold=                    3                   41  -1.1385766385354739       -1.1385766206367074       -1.7898766468960048E-008 F
     orb,it,eci,eold,eci-eold=                    3                   42  -1.1385766385354739       -1.1385766385354739        0.0000000000000000      F
     orbital   3 current e=  0.930836E+00 error=0.110E+00 (eci= -0.113857664E+01 error=0.000E+00) iterations  42(   0 preconditioned, Ep,Sp= 20.0  200.0)
     orb,it,eci,eold,eci-eold=                    3                    1  -1.1385766868447029       -1.1385766383929445       -4.8451758383194488E-008 F
     orb,it,eci,eold,eci-eold=                    3                    2  -1.1385766937662656       -1.1385766868447029       -6.9215626563590149E-009 F
     orb,it,eci,eold,eci-eold=                    3                    3  -1.1385766971537858       -1.1385766937662656       -3.3875202642974500E-009 F
     orb,it,eci,eold,eci-eold=                    3                    4  -1.1385767073476443       -1.1385766971537858       -1.0193858424045743E-008 F
     orb,it,eci,eold,eci-eold=                    3                    5  -1.1385767137667995       -1.1385767073476443       -6.4191552073822322E-009 F
     orb,it,eci,eold,eci-eold=                    3                    6  -1.1385767178783639       -1.1385767137667995       -4.1115644222600167E-009 F
     orb,it,eci,eold,eci-eold=                    3                    7  -1.1385767211035378       -1.1385767178783639       -3.2251739057187478E-009 F
     orb,it,eci,eold,eci-eold=                    3                    8  -1.1385767226817207       -1.1385767211035378       -1.5781829176830797E-009 F
     orb,it,eci,eold,eci-eold=                    3                    9  -1.1385767235256230       -1.1385767226817207       -8.4390228138886414E-010 F
     orbital   3 current e=  0.932080E+00 error=0.124E-02 (eci= -0.113857672E+01 error=0.844E-09) iterations   9(   0 preconditioned, Ep,Sp= 20.0  200.0)
     orb,it,eci,eold,eci-eold=                    3                    1  -1.1385767266825255       -1.1385767235256230       -3.1569025171762632E-009 F
     orb,it,eci,eold,eci-eold=                    3                    2  -1.1385767270926659       -1.1385767266825255       -4.1014036611386473E-010 F
     orbital   3 current e=  0.932048E+00 error=0.323E-04 (eci= -0.113857673E+01 error=0.410E-09) iterations   2(   0 preconditioned, Ep,Sp= 20.0  200.0)
     orb,it,eci,eold,eci-eold=                    4                    1  -1.1385512720159863       -1.1385151684032058       -3.6103612780502559E-005 F
     orb,it,eci,eold,eci-eold=                    4                    2  -1.1385518205473897       -1.1385512720159863       -5.4853140341037943E-007 F
     orb,it,eci,eold,eci-eold=                    4                    3  -1.1385546334196650       -1.1385518205473897       -2.8128722753262281E-006 F
     orb,it,eci,eold,eci-eold=                    4                    4  -1.1385581942664613       -1.1385546334196650       -3.5608467963132995E-006 F
     orb,it,eci,eold,eci-eold=                    4                    5  -1.1385598322624784       -1.1385581942664613       -1.6379960170453955E-006 F
     orb,it,eci,eold,eci-eold=                    4                    6  -1.1385638115107553       -1.1385598322624784       -3.9792482768863380E-006 F
     orb,it,eci,eold,eci-eold=                    4                    7  -1.1385644269535531       -1.1385638115107553       -6.1544279783554146E-007 F
     orb,it,eci,eold,eci-eold=                    4                    8  -1.1385659932244336       -1.1385644269535531       -1.5662708805486147E-006 F
     orb,it,eci,eold,eci-eold=                    4                    9  -1.1385673923739557       -1.1385659932244336       -1.3991495220189165E-006 F
     orb,it,eci,eold,eci-eold=                    4                   10  -1.1385682305783269       -1.1385673923739557       -8.3820437124515479E-007 F
     orb,it,eci,eold,eci-eold=                    4                   11  -1.1385702501770365       -1.1385682305783269       -2.0195987096016665E-006 F
     orb,it,eci,eold,eci-eold=                    4                   12  -1.1385706229848929       -1.1385702501770365       -3.7280785636362168E-007 F
     orb,it,eci,eold,eci-eold=                    4                   13  -1.1385710812440304       -1.1385706229848929       -4.5825913752572944E-007 F
     orb,it,eci,eold,eci-eold=                    4                   14  -1.1385722117190658       -1.1385710812440304       -1.1304750353602344E-006 F
     orb,it,eci,eold,eci-eold=                    4                   15  -1.1385729031909848       -1.1385722117190658       -6.9147191905649663E-007 F
     orb,it,eci,eold,eci-eold=                    4                   16  -1.1385736834421536       -1.1385729031909848       -7.8025116878599476E-007 F
     orb,it,eci,eold,eci-eold=                    4                   17  -1.1385738667844958       -1.1385736834421536       -1.8334234219707923E-007 F
     orb,it,eci,eold,eci-eold=                    4                   18  -1.1385742435040822       -1.1385738667844958       -3.7671958641460890E-007 F
     orb,it,eci,eold,eci-eold=                    4                   19  -1.1385745807925243       -1.1385742435040822       -3.3728844206493136E-007 F
     orb,it,eci,eold,eci-eold=                    4                   20  -1.1385747065391820       -1.1385745807925243       -1.2574665775311189E-007 F
     orb,it,eci,eold,eci-eold=                    4                   21  -1.1385751764031284       -1.1385747065391820       -4.6986394641734819E-007 F
     orb,it,eci,eold,eci-eold=                    4                   22  -1.1385752466349093       -1.1385751764031284       -7.0231780835428026E-008 F
     orb,it,eci,eold,eci-eold=                    4                   23  -1.1385752688272572       -1.1385752466349093       -2.2192347959304470E-008 F
     orb,it,eci,eold,eci-eold=                    4                   24  -1.1385755669094393       -1.1385752688272572       -2.9808218204863124E-007 F
     orb,it,eci,eold,eci-eold=                    4                   25  -1.1385757533270380       -1.1385755669094393       -1.8641759869097996E-007 F
     orb,it,eci,eold,eci-eold=                    4                   26  -1.1385758893376041       -1.1385757533270380       -1.3601056614298557E-007 F
     orb,it,eci,eold,eci-eold=                    4                   27  -1.1385759708567136       -1.1385758893376041       -8.1519109462746542E-008 F
     orb,it,eci,eold,eci-eold=                    4                   28  -1.1385761351840022       -1.1385759708567136       -1.6432728866533353E-007 F
     orb,it,eci,eold,eci-eold=                    4                   29  -1.1385762185759749       -1.1385761351840022       -8.3391972660606939E-008 F
     orb,it,eci,eold,eci-eold=                    4                   30  -1.1385762963826798       -1.1385762185759749       -7.7806704856797637E-008 F
     orb,it,eci,eold,eci-eold=                    4                   31  -1.1385763389608521       -1.1385762963826798       -4.2578172321228180E-008 F
     orb,it,eci,eold,eci-eold=                    4                   32  -1.1385764186146625       -1.1385763389608521       -7.9653810436397521E-008 F
     orb,it,eci,eold,eci-eold=                    4                   33  -1.1385764625962382       -1.1385764186146625       -4.3981575714724386E-008 F
     orb,it,eci,eold,eci-eold=                    4                   34  -1.1385765005897124       -1.1385764625962382       -3.7993474144570882E-008 F
     orb,it,eci,eold,eci-eold=                    4                   35  -1.1385765199768483       -1.1385765005897124       -1.9387135896664631E-008 F
     orb,it,eci,eold,eci-eold=                    4                   36  -1.1385765695679433       -1.1385765199768483       -4.9591095008238995E-008 F
     orb,it,eci,eold,eci-eold=                    4                   37  -1.1385765706961357       -1.1385765695679433       -1.1281924283679245E-009 F
     orb,it,eci,eold,eci-eold=                    4                   38  -1.1385765726784158       -1.1385765706961357       -1.9822801178293048E-009 F
     orb,it,eci,eold,eci-eold=                    4                   39  -1.1385766034929663       -1.1385765726784158       -3.0814550466828905E-008 F
     orb,it,eci,eold,eci-eold=                    4                   40  -1.1385766205927135       -1.1385766034929663       -1.7099747173787705E-008 F
     orb,it,eci,eold,eci-eold=                    4                   41  -1.1385766385083620       -1.1385766205927135       -1.7915648520272498E-008 F
     orb,it,eci,eold,eci-eold=                    4                   42  -1.1385766385083620       -1.1385766385083620        0.0000000000000000      F
     orbital   4 current e=  0.930837E+00 error=0.110E+00 (eci= -0.113857664E+01 error=0.000E+00) iterations  42(   0 preconditioned, Ep,Sp= 20.0  200.0)
     orb,it,eci,eold,eci-eold=                    4                    1  -1.1385766868171572       -1.1385766384091482       -4.8408008934686109E-008 F
     orb,it,eci,eold,eci-eold=                    4                    2  -1.1385766937989021       -1.1385766868171572       -6.9817449599440806E-009 F
     orb,it,eci,eold,eci-eold=                    4                    3  -1.1385766972399847       -1.1385766937989021       -3.4410825300312808E-009 F
     orb,it,eci,eold,eci-eold=                    4                    4  -1.1385767074676205       -1.1385766972399847       -1.0227635849346939E-008 F
     orb,it,eci,eold,eci-eold=                    4                    5  -1.1385767137848415       -1.1385767074676205       -6.3172209685546932E-009 F
     orb,it,eci,eold,eci-eold=                    4                    6  -1.1385767178690744       -1.1385767137848415       -4.0842329518397946E-009 F
     orb,it,eci,eold,eci-eold=                    4                    7  -1.1385767210626445       -1.1385767178690744       -3.1935700750551632E-009 F
     orb,it,eci,eold,eci-eold=                    4                    8  -1.1385767226186116       -1.1385767210626445       -1.5559671329157254E-009 F
     orb,it,eci,eold,eci-eold=                    4                    9  -1.1385767234658375       -1.1385767226186116       -8.4722584503538201E-010 F
     orbital   4 current e=  0.932081E+00 error=0.124E-02 (eci= -0.113857672E+01 error=0.847E-09) iterations   9(   0 preconditioned, Ep,Sp= 20.0  200.0)
     orb,it,eci,eold,eci-eold=                    4                    1  -1.1385767266577140       -1.1385767234658375       -3.1918765408534000E-009 F
     orb,it,eci,eold,eci-eold=                    4                    2  -1.1385767270920604       -1.1385767266577140       -4.3434633667516209E-010 F
     orbital   4 current e=  0.932048E+00 error=0.323E-04 (eci= -0.113857673E+01 error=0.434E-09) iterations   2(   0 preconditioned, Ep,Sp= 20.0  200.0)
     orb,it,eci,eold,eci-eold=                    5                    1  -1.1336087335297826       -1.1336076059751403       -1.1275546423217264E-006 F
     orb,it,eci,eold,eci-eold=                    5                    2  -1.1336087335297826       -1.1336087335297826        0.0000000000000000      F
     orbital   5 current e=  0.217826E+01 error=0.181E+00 (eci= -0.113360873E+01 error=0.000E+00) iterations   2(   0 preconditioned, Ep,Sp= 20.0  200.0)
     orb,it,eci,eold,eci-eold=                    5                    1  -1.1336143454839922       -1.1336087327875843       -5.6126964078639929E-006 F
     orb,it,eci,eold,eci-eold=                    5                    2  -1.1336155021535452       -1.1336143454839922       -1.1566695530262905E-006 F
     orb,it,eci,eold,eci-eold=                    5                    3  -1.1336177211854532       -1.1336155021535452       -2.2190319080017673E-006 F
     orb,it,eci,eold,eci-eold=                    5                    4  -1.1336195394730972       -1.1336177211854532       -1.8182876440064888E-006 F
     orb,it,eci,eold,eci-eold=                    5                    5  -1.1336202709858578       -1.1336195394730972       -7.3151276058780468E-007 F
     orb,it,eci,eold,eci-eold=                    5                    6  -1.1336204277650130       -1.1336202709858578       -1.5677915521372654E-007 F
     orb,it,eci,eold,eci-eold=                    5                    7  -1.1336204693433385       -1.1336204277650130       -4.1578325449265208E-008 F
     orb,it,eci,eold,eci-eold=                    5                    8  -1.1336209171688842       -1.1336204693433385       -4.4782554575739653E-007 F
     orb,it,eci,eold,eci-eold=                    5                    9  -1.1336209951462843       -1.1336209171688842       -7.7977400092521520E-008 F
     orb,it,eci,eold,eci-eold=                    5                   10  -1.1336210298581599       -1.1336209951462843       -3.4711875596116215E-008 F
     orb,it,eci,eold,eci-eold=                    5                   11  -1.1336212631485836       -1.1336210298581599       -2.3329042364572672E-007 F
     orb,it,eci,eold,eci-eold=                    5                   12  -1.1336212854784786       -1.1336212631485836       -2.2329895044137515E-008 F
     orb,it,eci,eold,eci-eold=                    5                   13  -1.1336212960729881       -1.1336212854784786       -1.0594509491923532E-008 F
     orb,it,eci,eold,eci-eold=                    5                   14  -1.1336214363538639       -1.1336212960729881       -1.4028087580442161E-007 F
     orb,it,eci,eold,eci-eold=                    5                   15  -1.1336214646229241       -1.1336214363538639       -2.8269060203811591E-008 F
     orb,it,eci,eold,eci-eold=                    5                   16  -1.1336214721145359       -1.1336214646229241       -7.4916117753787148E-009 F
     orb,it,eci,eold,eci-eold=                    5                   17  -1.1336215626091704       -1.1336214721145359       -9.0494634452653600E-008 F
     orb,it,eci,eold,eci-eold=                    5                   18  -1.1336215840129664       -1.1336215626091704       -2.1403796068852898E-008 F
     orb,it,eci,eold,eci-eold=                    5                   19  -1.1336215859410497       -1.1336215840129664       -1.9280832486145982E-009 F
     orb,it,eci,eold,eci-eold=                    5                   20  -1.1336216413510278       -1.1336215859410497       -5.5409978161335971E-008 F
     orb,it,eci,eold,eci-eold=                    5                   21  -1.1336216623170092       -1.1336216413510278       -2.0965981395448807E-008 F
     orb,it,eci,eold,eci-eold=                    5                   22  -1.1336216673521828       -1.1336216623170092       -5.0351736113896095E-009 F
     orb,it,eci,eold,eci-eold=                    5                   23  -1.1336216999548145       -1.1336216673521828       -3.2602631705458407E-008 F
     orb,it,eci,eold,eci-eold=                    5                   24  -1.1336217077238420       -1.1336216999548145       -7.7690274213892963E-009 F
     orb,it,eci,eold,eci-eold=                    5                   25  -1.1336217099872834       -1.1336217077238420       -2.2634414342803666E-009 F
     orb,it,eci,eold,eci-eold=                    5                   26  -1.1336217303451521       -1.1336217099872834       -2.0357868724119044E-008 F
     orb,it,eci,eold,eci-eold=                    5                   27  -1.1336217356246525       -1.1336217303451521       -5.2795003924188677E-009 F
     orb,it,eci,eold,eci-eold=                    5                   28  -1.1336217371999495       -1.1336217356246525       -1.5752970039528691E-009 F
     orb,it,eci,eold,eci-eold=                    5                   29  -1.1336217507631463       -1.1336217371999495       -1.3563196787913512E-008 F
     orb,it,eci,eold,eci-eold=                    5                   30  -1.1336217539314515       -1.1336217507631463       -3.1683051737729784E-009 F
     orb,it,eci,eold,eci-eold=                    5                   31  -1.1336217542145850       -1.1336217539314515       -2.8313351663200592E-010 F
     orbital   5 current e=  0.211735E+01 error=0.609E-01 (eci= -0.113362175E+01 error=0.283E-09) iterations  31(   0 preconditioned, Ep,Sp= 20.0  200.0)
     orb,it,eci,eold,eci-eold=                    5                    1  -1.1336217798463117       -1.1336217542145850       -2.5631726741082161E-008 F
     orb,it,eci,eold,eci-eold=                    5                    2  -1.1336217839731739       -1.1336217798463117       -4.1268621853163268E-009 F
     orb,it,eci,eold,eci-eold=                    5                    3  -1.1336217848625616       -1.1336217839731739       -8.8938767461854695E-010 F
     orbital   5 current e=  0.211655E+01 error=0.796E-03 (eci= -0.113362178E+01 error=0.889E-09) iterations   3(   0 preconditioned, Ep,Sp= 20.0  200.0)
     orb,it,eci,eold,eci-eold=                    6                    1  -1.1334101740836504       -1.1334008665386364       -9.3075450140478466E-006 F
     orb,it,eci,eold,eci-eold=                    6                    2  -1.1334121204551391       -1.1334101740836504       -1.9463714886480687E-006 F
     orb,it,eci,eold,eci-eold=                    6                    3  -1.1334146244005558       -1.1334121204551391       -2.5039454167874453E-006 F
     orb,it,eci,eold,eci-eold=                    6                    4  -1.1334158381374639       -1.1334146244005558       -1.2137369080900129E-006 F
     orb,it,eci,eold,eci-eold=                    6                    5  -1.1334160808740055       -1.1334158381374639       -2.4273654153361690E-007 F
     orb,it,eci,eold,eci-eold=                    6                    6  -1.1334161236432134       -1.1334160808740055       -4.2769207952986221E-008 F
     orb,it,eci,eold,eci-eold=                    6                    7  -1.1334171836405742       -1.1334161236432134       -1.0599973607750002E-006 F
     orb,it,eci,eold,eci-eold=                    6                    8  -1.1334171911185726       -1.1334171836405742       -7.4779984426953661E-009 F
     orb,it,eci,eold,eci-eold=                    6                    9  -1.1334172401456053       -1.1334171911185726       -4.9027032655857283E-008 F
     orb,it,eci,eold,eci-eold=                    6                   10  -1.1334177263029759       -1.1334172401456053       -4.8615737058277375E-007 F
     orb,it,eci,eold,eci-eold=                    6                   11  -1.1334179956625563       -1.1334177263029759       -2.6935958041818253E-007 F
     orb,it,eci,eold,eci-eold=                    6                   12  -1.1334183744415307       -1.1334179956625563       -3.7877897440807828E-007 F
     orb,it,eci,eold,eci-eold=                    6                   13  -1.1334185818522762       -1.1334183744415307       -2.0741074546748450E-007 F
     orb,it,eci,eold,eci-eold=                    6                   14  -1.1334187393642956       -1.1334185818522762       -1.5751201942748594E-007 F
     orb,it,eci,eold,eci-eold=                    6                   15  -1.1334188074859790       -1.1334187393642956       -6.8121683405308886E-008 F
     orb,it,eci,eold,eci-eold=                    6                   16  -1.1334189648880990       -1.1334188074859790       -1.5740212000459053E-007 F
     orb,it,eci,eold,eci-eold=                    6                   17  -1.1334190523012222       -1.1334189648880990       -8.7413123184276742E-008 F
     orb,it,eci,eold,eci-eold=                    6                   18  -1.1334191090304968       -1.1334190523012222       -5.6729274611200253E-008 F
     orb,it,eci,eold,eci-eold=                    6                   19  -1.1334191319207860       -1.1334191090304968       -2.2890289219645865E-008 F
     orb,it,eci,eold,eci-eold=                    6                   20  -1.1334191763703199       -1.1334191319207860       -4.4449533831425470E-008 F
     orb,it,eci,eold,eci-eold=                    6                   21  -1.1334192011090225       -1.1334191763703199       -2.4738702641968757E-008 F
     orb,it,eci,eold,eci-eold=                    6                   22  -1.1334192273382315       -1.1334192011090225       -2.6229209026951139E-008 F
     orb,it,eci,eold,eci-eold=                    6                   23  -1.1334192427478549       -1.1334192273382315       -1.5409623355111535E-008 F
     orb,it,eci,eold,eci-eold=                    6                   24  -1.1334192608498865       -1.1334192427478549       -1.8102031651423545E-008 F
     orb,it,eci,eold,eci-eold=                    6                   25  -1.1334192692801157       -1.1334192608498865       -8.4302291813997954E-009 F
     orb,it,eci,eold,eci-eold=                    6                   26  -1.1334192828718190       -1.1334192692801157       -1.3591703318382997E-008 F
     orb,it,eci,eold,eci-eold=                    6                   27  -1.1334192838361634       -1.1334192828718190       -9.6434438212611440E-010 F
     orbital   6 current e=  0.221561E+01 error=0.405E+00 (eci= -0.113341928E+01 error=0.964E-09) iterations  27(   0 preconditioned, Ep,Sp= 20.0  200.0)
     orb,it,eci,eold,eci-eold=                    6                    1  -1.1334192950283624       -1.1334192838361634       -1.1192198945408904E-008 F
     orb,it,eci,eold,eci-eold=                    6                    2  -1.1334193005320941       -1.1334192950283624       -5.5037316926132007E-009 F
     orb,it,eci,eold,eci-eold=                    6                    3  -1.1334193096351097       -1.1334193005320941       -9.1030156745830482E-009 F
     orb,it,eci,eold,eci-eold=                    6                    4  -1.1334193145131595       -1.1334193096351097       -4.8780497419187441E-009 F
     orb,it,eci,eold,eci-eold=                    6                    5  -1.1334193175051541       -1.1334193145131595       -2.9919946520351459E-009 F
     orb,it,eci,eold,eci-eold=                    6                    6  -1.1334193188711703       -1.1334193175051541       -1.3660161890527434E-009 F
     orb,it,eci,eold,eci-eold=                    6                    7  -1.1334193201703295       -1.1334193188711703       -1.2991592246436312E-009 F
     orb,it,eci,eold,eci-eold=                    6                    8  -1.1334193201703295       -1.1334193201703295        0.0000000000000000      F
     orbital   6 current e=  0.221238E+01 error=0.323E-02 (eci= -0.113341932E+01 error=0.000E+00) iterations   8(   0 preconditioned, Ep,Sp= 20.0  200.0)
     orb,it,eci,eold,eci-eold=                    6                    1  -1.1334193225354030       -1.1334193194565367       -3.0788662730429905E-009 F
     orb,it,eci,eold,eci-eold=                    6                    2  -1.1334193231543062       -1.1334193225354030       -6.1890315095070036E-010 F
     orbital   6 current e=  0.221237E+01 error=0.149E-04 (eci= -0.113341932E+01 error=0.619E-09) iterations   2(   0 preconditioned, Ep,Sp= 20.0  200.0)
     orb,it,eci,eold,eci-eold=                    7                    1  -1.1333273039162568       -1.1333263407067633       -9.6320949349859575E-007 F
     orb,it,eci,eold,eci-eold=                    7                    2  -1.1333273067027780       -1.1333273039162568       -2.7865212359756697E-009 F
     orb,it,eci,eold,eci-eold=                    7                    3  -1.1333295019233247       -1.1333273067027780       -2.1952205466746477E-006 F
     orb,it,eci,eold,eci-eold=                    7                    4  -1.1333306884356877       -1.1333295019233247       -1.1865123630272478E-006 F
     orb,it,eci,eold,eci-eold=                    7                    5  -1.1333311548391281       -1.1333306884356877       -4.6640344031345649E-007 F
     orb,it,eci,eold,eci-eold=                    7                    6  -1.1333314637937333       -1.1333311548391281       -3.0895460523261420E-007 F
     orb,it,eci,eold,eci-eold=                    7                    7  -1.1333314784015738       -1.1333314637937333       -1.4607840492786295E-008 F
     orb,it,eci,eold,eci-eold=                    7                    8  -1.1333318745367713       -1.1333314784015738       -3.9613519753345372E-007 F
     orb,it,eci,eold,eci-eold=                    7                    9  -1.1333323124112358       -1.1333318745367713       -4.3787446446508227E-007 F
     orb,it,eci,eold,eci-eold=                    7                   10  -1.1333323422279025       -1.1333323124112358       -2.9816666691218074E-008 F
     orb,it,eci,eold,eci-eold=                    7                   11  -1.1333323931587518       -1.1333323422279025       -5.0930849315733440E-008 F
     orb,it,eci,eold,eci-eold=                    7                   12  -1.1333326506184405       -1.1333323931587518       -2.5745968867951774E-007 F
     orb,it,eci,eold,eci-eold=                    7                   13  -1.1333330440704721       -1.1333326506184405       -3.9345203162177711E-007 F
     orb,it,eci,eold,eci-eold=                    7                   14  -1.1333331544727048       -1.1333330440704721       -1.1040223268921068E-007 F
     orb,it,eci,eold,eci-eold=                    7                   15  -1.1333333451027452       -1.1333331544727048       -1.9063004041974807E-007 F
     orb,it,eci,eold,eci-eold=                    7                   16  -1.1333337240533150       -1.1333333451027452       -3.7895056981263053E-007 F
     orb,it,eci,eold,eci-eold=                    7                   17  -1.1333338957344949       -1.1333337240533150       -1.7168117993904275E-007 F
     orb,it,eci,eold,eci-eold=                    7                   18  -1.1333341299411963       -1.1333338957344949       -2.3420670136609090E-007 F
     orb,it,eci,eold,eci-eold=                    7                   19  -1.1333341484299571       -1.1333341299411963       -1.8488760744617139E-008 F
     orb,it,eci,eold,eci-eold=                    7                   20  -1.1333341584125656       -1.1333341484299571       -9.9826085175891421E-009 F
     orb,it,eci,eold,eci-eold=                    7                   21  -1.1333342720955268       -1.1333341584125656       -1.1368296126690325E-007 F
     orb,it,eci,eold,eci-eold=                    7                   22  -1.1333343411730443       -1.1333342720955268       -6.9077517483862039E-008 F
     orb,it,eci,eold,eci-eold=                    7                   23  -1.1333343931416491       -1.1333343411730443       -5.1968604752872238E-008 F
     orb,it,eci,eold,eci-eold=                    7                   24  -1.1333345042995717       -1.1333343931416491       -1.1115792264426716E-007 F
     orb,it,eci,eold,eci-eold=                    7                   25  -1.1333345101123151       -1.1333345042995717       -5.8127433977261944E-009 F
     orb,it,eci,eold,eci-eold=                    7                   26  -1.1333345206394203       -1.1333345101123151       -1.0527105187563279E-008 F
     orb,it,eci,eold,eci-eold=                    7                   27  -1.1333346173626366       -1.1333345206394203       -9.6723216325145245E-008 F
     orb,it,eci,eold,eci-eold=                    7                   28  -1.1333346547986223       -1.1333346173626366       -3.7435985644762582E-008 F
     orb,it,eci,eold,eci-eold=                    7                   29  -1.1333346581783061       -1.1333346547986223       -3.3796838661004358E-009 F
     orb,it,eci,eold,eci-eold=                    7                   30  -1.1333347200463635       -1.1333346581783061       -6.1868057343872351E-008 F
     orb,it,eci,eold,eci-eold=                    7                   31  -1.1333347677195249       -1.1333347200463635       -4.7673161418515519E-008 F
     orb,it,eci,eold,eci-eold=                    7                   32  -1.1333347877163282       -1.1333347677195249       -1.9996803324318080E-008 F
     orb,it,eci,eold,eci-eold=                    7                   33  -1.1333348289793981       -1.1333347877163282       -4.1263069849861722E-008 F
     orb,it,eci,eold,eci-eold=                    7                   34  -1.1333348569789534       -1.1333348289793981       -2.7999555340940674E-008 F
     orb,it,eci,eold,eci-eold=                    7                   35  -1.1333348934295009       -1.1333348569789534       -3.6450547469257799E-008 F
     orb,it,eci,eold,eci-eold=                    7                   36  -1.1333349129932275       -1.1333348934295009       -1.9563726638693879E-008 F
     orb,it,eci,eold,eci-eold=                    7                   37  -1.1333349365730749       -1.1333349129932275       -2.3579847407972920E-008 F
     orb,it,eci,eold,eci-eold=                    7                   38  -1.1333349468499363       -1.1333349365730749       -1.0276861361901979E-008 F
     orb,it,eci,eold,eci-eold=                    7                   39  -1.1333349615557149       -1.1333349468499363       -1.4705778594858998E-008 F
     orb,it,eci,eold,eci-eold=                    7                   40  -1.1333349711363825       -1.1333349615557149       -9.5806675926013440E-009 F
     orb,it,eci,eold,eci-eold=                    7                   41  -1.1333349843687752       -1.1333349711363825       -1.3232392737094756E-008 F
     orb,it,eci,eold,eci-eold=                    7                   42  -1.1333349912226089       -1.1333349843687752       -6.8538337227863622E-009 F
     orb,it,eci,eold,eci-eold=                    7                   43  -1.1333349998418920       -1.1333349912226089       -8.6192830650588803E-009 F
     orb,it,eci,eold,eci-eold=                    7                   44  -1.1333350042026906       -1.1333349998418920       -4.3607986111027230E-009 F
     orb,it,eci,eold,eci-eold=                    7                   45  -1.1333350106327666       -1.1333350042026906       -6.4300760271862600E-009 F
     orb,it,eci,eold,eci-eold=                    7                   46  -1.1333350106327666       -1.1333350106327666        0.0000000000000000      F
     orbital   7 current e=  0.216128E+01 error=0.236E+00 (eci= -0.113333501E+01 error=0.000E+00) iterations  46(   0 preconditioned, Ep,Sp= 20.0  200.0)
     orb,it,eci,eold,eci-eold=                    7                    1  -1.1333350143070891       -1.1333350102074378       -4.0996512851165789E-009 F
     orb,it,eci,eold,eci-eold=                    7                    2  -1.1333350152941550       -1.1333350143070891       -9.8706598450348793E-010 F
     orbital   7 current e=  0.216143E+01 error=0.148E-03 (eci= -0.113333502E+01 error=0.987E-09) iterations   2(   0 preconditioned, Ep,Sp= 20.0  200.0)
     orb,it,eci,eold,eci-eold=                    7                    1  -1.1333350350372664       -1.1333350152941550       -1.9743111367986899E-008 F
     orb,it,eci,eold,eci-eold=                    7                    2  -1.1333350352057505       -1.1333350350372664       -1.6848411554803988E-010 F
     orbital   7 current e=  0.216142E+01 error=0.472E-05 (eci= -0.113333504E+01 error=0.168E-09) iterations   2(   0 preconditioned, Ep,Sp= 20.0  200.0)
     orb,it,eci,eold,eci-eold=                    8                    1  -1.1333272990816718       -1.1333263406632266       -9.5841844527377873E-007 F
     orb,it,eci,eold,eci-eold=                    8                    2  -1.1333273015479248       -1.1333272990816718       -2.4662529796160015E-009 F
     orb,it,eci,eold,eci-eold=                    8                    3  -1.1333294914843484       -1.1333273015479248       -2.1899364235355989E-006 F
     orb,it,eci,eold,eci-eold=                    8                    4  -1.1333306951380993       -1.1333294914843484       -1.2036537508919309E-006 F
     orb,it,eci,eold,eci-eold=                    8                    5  -1.1333311709080782       -1.1333306951380993       -4.7576997896925377E-007 F
     orb,it,eci,eold,eci-eold=                    8                    6  -1.1333314666079271       -1.1333311709080782       -2.9569984882904521E-007 F
     orb,it,eci,eold,eci-eold=                    8                    7  -1.1333318683473326       -1.1333314666079271       -4.0173940552001852E-007 F
     orb,it,eci,eold,eci-eold=                    8                    8  -1.1333326977284510       -1.1333318683473326       -8.2938111845010098E-007 F
     orb,it,eci,eold,eci-eold=                    8                    9  -1.1333330760395623       -1.1333326977284510       -3.7831111132646811E-007 F
     orb,it,eci,eold,eci-eold=                    8                   10  -1.1333335686399058       -1.1333330760395623       -4.9260034340470327E-007 F
     orb,it,eci,eold,eci-eold=                    8                   11  -1.1333335904594237       -1.1333335686399058       -2.1819517970200764E-008 F
     orb,it,eci,eold,eci-eold=                    8                   12  -1.1333336235741278       -1.1333335904594237       -3.3114704089953761E-008 F
     orb,it,eci,eold,eci-eold=                    8                   13  -1.1333338816484604       -1.1333336235741278       -2.5807433257085677E-007 F
     orb,it,eci,eold,eci-eold=                    8                   14  -1.1333340785003245       -1.1333338816484604       -1.9685186414264422E-007 F
     orb,it,eci,eold,eci-eold=                    8                   15  -1.1333342030727074       -1.1333340785003245       -1.2457238285357164E-007 F
     orb,it,eci,eold,eci-eold=                    8                   16  -1.1333343329810945       -1.1333342030727074       -1.2990838715865038E-007 F
     orb,it,eci,eold,eci-eold=                    8                   17  -1.1333344241393817       -1.1333343329810945       -9.1158287141013261E-008 F
     orb,it,eci,eold,eci-eold=                    8                   18  -1.1333345723139709       -1.1333344241393817       -1.4817458926508209E-007 F
     orb,it,eci,eold,eci-eold=                    8                   19  -1.1333346389584942       -1.1333345723139709       -6.6644523233350128E-008 F
     orb,it,eci,eold,eci-eold=                    8                   20  -1.1333347321188350       -1.1333346389584942       -9.3160340775000350E-008 F
     orb,it,eci,eold,eci-eold=                    8                   21  -1.1333347868166812       -1.1333347321188350       -5.4697846252338422E-008 F
     orb,it,eci,eold,eci-eold=                    8                   22  -1.1333348296882084       -1.1333347868166812       -4.2871527217158700E-008 F
     orb,it,eci,eold,eci-eold=                    8                   23  -1.1333348487606458       -1.1333348296882084       -1.9072437407174903E-008 F
     orb,it,eci,eold,eci-eold=                    8                   24  -1.1333348922662005       -1.1333348487606458       -4.3505554714329264E-008 F
     orb,it,eci,eold,eci-eold=                    8                   25  -1.1333348939614112       -1.1333348922662005       -1.6952106385303978E-009 F
     orb,it,eci,eold,eci-eold=                    8                   26  -1.1333348965450414       -1.1333348939614112       -2.5836301986714716E-009 F
     orb,it,eci,eold,eci-eold=                    8                   27  -1.1333349223723701       -1.1333348965450414       -2.5827328720140486E-008 F
     orb,it,eci,eold,eci-eold=                    8                   28  -1.1333349307000116       -1.1333349223723701       -8.3276414652999620E-009 F
     orb,it,eci,eold,eci-eold=                    8                   29  -1.1333349355175091       -1.1333349307000116       -4.8174975120218733E-009 F
     orb,it,eci,eold,eci-eold=                    8                   30  -1.1333349552824472       -1.1333349355175091       -1.9764938130606424E-008 F
     orb,it,eci,eold,eci-eold=                    8                   31  -1.1333349552824472       -1.1333349552824472        0.0000000000000000      F
     orbital   8 current e=  0.215256E+01 error=0.245E+00 (eci= -0.113333496E+01 error=0.000E+00) iterations  31(   0 preconditioned, Ep,Sp= 20.0  200.0)
     orb,it,eci,eold,eci-eold=                    8                    1  -1.1333349957991818       -1.1333349545665279       -4.1232653957834486E-008 F
     orb,it,eci,eold,eci-eold=                    8                    2  -1.1333350137820926       -1.1333349957991818       -1.7982910716085598E-008 F
     orb,it,eci,eold,eci-eold=                    8                    3  -1.1333350255692713       -1.1333350137820926       -1.1787178788580377E-008 F
     orb,it,eci,eold,eci-eold=                    8                    4  -1.1333350256378112       -1.1333350255692713       -6.8539840469838964E-011 F
     orbital   8 current e=  0.215992E+01 error=0.737E-02 (eci= -0.113333503E+01 error=0.685E-10) iterations   4(   0 preconditioned, Ep,Sp= 20.0  200.0)
     orb,it,eci,eold,eci-eold=                    8                    1  -1.1333350320795634       -1.1333350256378112       -6.4417522427362428E-009 F
     orb,it,eci,eold,eci-eold=                    8                    2  -1.1333350355045551       -1.1333350320795634       -3.4249916236461786E-009 F
     orb,it,eci,eold,eci-eold=                    8                    3  -1.1333350367703141       -1.1333350355045551       -1.2657590531262031E-009 F
     orb,it,eci,eold,eci-eold=                    8                    4  -1.1333350367861030       -1.1333350367703141       -1.5788925722404201E-011 F
     orbital   8 current e=  0.216077E+01 error=0.851E-03 (eci= -0.113333504E+01 error=0.158E-10) iterations   4(   0 preconditioned, Ep,Sp= 20.0  200.0)
     orb,it,eci,eold,eci-eold=                    9                    1  -1.1329926690766960       -1.1329886119377641       -4.0571389319232765E-006 F
     orb,it,eci,eold,eci-eold=                    9                    2  -1.1329932746236397       -1.1329926690766960       -6.0554694369940876E-007 F
     orb,it,eci,eold,eci-eold=                    9                    3  -1.1329935218206779       -1.1329932746236397       -2.4719703817233096E-007 F
     orb,it,eci,eold,eci-eold=                    9                    4  -1.1329938399998942       -1.1329935218206779       -3.1817921630761248E-007 F
     orb,it,eci,eold,eci-eold=                    9                    5  -1.1329944297191876       -1.1329938399998942       -5.8971929339790563E-007 F
     orb,it,eci,eold,eci-eold=                    9                    6  -1.1329948360593454       -1.1329944297191876       -4.0634015774365650E-007 F
     orb,it,eci,eold,eci-eold=                    9                    7  -1.1329953291842860       -1.1329948360593454       -4.9312494065922863E-007 F
     orb,it,eci,eold,eci-eold=                    9                    8  -1.1329956063955571       -1.1329953291842860       -2.7721127104918253E-007 F
     orb,it,eci,eold,eci-eold=                    9                    9  -1.1329958284820125       -1.1329956063955571       -2.2208645544807837E-007 F
     orb,it,eci,eold,eci-eold=                    9                   10  -1.1329959246360721       -1.1329958284820125       -9.6154059603392739E-008 F
     orb,it,eci,eold,eci-eold=                    9                   11  -1.1329959875837357       -1.1329959246360721       -6.2947663526102815E-008 F
     orb,it,eci,eold,eci-eold=                    9                   12  -1.1329960207298218       -1.1329959875837357       -3.3146086098057026E-008 F
     orb,it,eci,eold,eci-eold=                    9                   13  -1.1329961001280999       -1.1329960207298218       -7.9398278174380721E-008 F
     orb,it,eci,eold,eci-eold=                    9                   14  -1.1329961478692823       -1.1329961001280999       -4.7741182340743649E-008 F
     orb,it,eci,eold,eci-eold=                    9                   15  -1.1329962083350940       -1.1329961478692823       -6.0465811690946225E-008 F
     orb,it,eci,eold,eci-eold=                    9                   16  -1.1329962407560779       -1.1329962083350940       -3.2420983897551992E-008 F
     orb,it,eci,eold,eci-eold=                    9                   17  -1.1329962793183739       -1.1329962407560779       -3.8562296023059162E-008 F
     orb,it,eci,eold,eci-eold=                    9                   18  -1.1329963000430627       -1.1329962793183739       -2.0724688853945850E-008 F
[...]
    8    5    8    8        0.0000000004
    8    5    9    8       -0.0000000002
    8    5   10    8       -0.0125998560
    8    5   11    8        0.0069999190
    8    5    9    9       -0.0000000020
    8    5   10    9       -0.0067608427
    8    5   11    9       -0.0087225371
    8    5   10   10        0.0000000032
    8    5   11   10        0.0000000019
    8    5   11   11        0.0000000039
    9    5    9    5        0.0376405344
    9    5   10    5        0.0000000028
    9    5   11    5       -0.0000000023
    9    5    6    6       -0.0000000233
    9    5    7    6       -0.0051943023
    9    5    8    6       -0.0000000357
    9    5    9    6        0.0000046385
    9    5   10    6        0.0000000002
    9    5   11    6        0.0000000012
    9    5    7    7        0.0000000857
    9    5    8    7       -0.0000000003
    9    5    9    7       -0.0000000001
    9    5   10    7       -0.0000010401
    9    5   11    7       -0.0000422083
    9    5    8    8       -0.0000000048
    9    5    9    8       -0.0000000006
    9    5   10    8       -0.0057526972
    9    5   11    8        0.0017240283
    9    5    9    9       -0.0000000068
    9    5   10    9       -0.0054036858
    9    5   11    9       -0.0052834367
    9    5   10   10       -0.0000000053
    9    5   11   10        0.0000000010
    9    5   11   11       -0.0000000041
   10    5   10    5        0.1051886110
   10    5   11    5       -0.0088365028
   10    5    6    6       -0.1147138493
   10    5    7    6       -0.0000000329
   10    5    8    6        0.0000000013
   10    5    9    6        0.0000000000
   10    5   10    6        0.0000354963
   10    5   11    6        0.0004282125
   10    5    7    7       -0.1250736731
   10    5    8    7        0.0000066564
   10    5    9    7        0.0000145604
   10    5   10    7       -0.0000000004
   10    5   11    7       -0.0000000017
   10    5    8    8       -0.1093599543
   10    5    9    8       -0.0030299056
   10    5   10    8        0.0000000012
   10    5   11    8        0.0000000000
   10    5    9    9       -0.1058588680
   10    5   10    9       -0.0000000005
   10    5   11    9        0.0000000002
   10    5   10   10       -0.1602108497
   10    5   11   10        0.0010074870
   10    5   11   11       -0.1408911411
   11    5   11    5        0.0142846789
   11    5    6    6        0.0110018900
   11    5    7    6        0.0000000037
   11    5    8    6        0.0000000003
   11    5    9    6        0.0000000002
   11    5   10    6        0.0000137491
   11    5   11    6       -0.0000469310
   11    5    7    7        0.0119966727
   11    5    8    7        0.0000160034
   11    5    9    7        0.0000090982
   11    5   10    7       -0.0000000007
   11    5   11    7        0.0000000002
   11    5    8    8        0.0131031083
   11    5    9    8       -0.0015633664
   11    5   10    8        0.0000000006
   11    5   11    8        0.0000000001
   11    5    9    9        0.0075352124
   11    5   10    9        0.0000000004
   11    5   11    9        0.0000000006
   11    5   10   10        0.0136212329
   11    5   11   10       -0.0093257170
   11    5   11   11        0.0152641251
    6    6    6    6        0.6612063250
    6    6    7    6       -0.0000000631
    6    6    8    6       -0.0000000010
    6    6    9    6        0.0000000001
    6    6   10    6       -0.0000436805
    6    6   11    6       -0.0003773028
    6    6    7    7        0.5944320868
    6    6    8    7       -0.0000010916
    6    6    9    7        0.0000034214
    6    6   10    7        0.0000000013
    6    6   11    7        0.0000000116
    6    6    8    8        0.6032609146
    6    6    9    8        0.0000000008
    6    6   10    8        0.0000000045
    6    6   11    8       -0.0000000031
    6    6    9    9        0.6033148364
    6    6   10    9       -0.0000000010
    6    6   11    9       -0.0000000009
    6    6   10   10        0.5731310940
    6    6   11   10        0.0000000889
    6    6   11   11        0.5732332888
    7    6    7    6        0.0271960935
    7    6    8    6        0.0000004092
    7    6    9    6       -0.0000013480
    7    6   10    6        0.0000000001
    7    6   11    6        0.0000000005
    7    6    7    7       -0.0000001104
    7    6    8    7        0.0000000010
    7    6    9    7        0.0000000000
    7    6   10    7        0.0000384921
    7    6   11    7        0.0003054239
    7    6    8    8       -0.0000000774
    7    6    9    8        0.0000000001
    7    6   10    8        0.0105802928
    7    6   11    8       -0.0068248174
    7    6    9    9       -0.0000000753
    7    6   10    9        0.0068285506
    7    6   11    9        0.0105758694
    7    6   10   10       -0.0000000376
    7    6   11   10       -0.0000000012
    7    6   11   11       -0.0000000384
    8    6    8    6        0.0258817757
    8    6    9    6       -0.0000000003
    8    6   10    6        0.0000000005
    8    6   11    6       -0.0000000004
    8    6    7    7       -0.0000000013
    8    6    8    7        0.0000000139
    8    6    9    7        0.0000000001
    8    6   10    7        0.0103591186
    8    6   11    7       -0.0066833293
    8    6    8    8       -0.0000000017
    8    6    9    8        0.0000000001
    8    6   10    8       -0.0000337708
    8    6   11    8       -0.0001747253
    8    6    9    9       -0.0000000006
    8    6   10    9       -0.0000059251
    8    6   11    9        0.0000130232
    8    6   10   10       -0.0000000008
    8    6   11   10        0.0000000002
    8    6   11   11       -0.0000000024
    9    6    9    6        0.0258890104
    9    6   10    6       -0.0000000000
    9    6   11    6        0.0000000000
    9    6    7    7        0.0000000001
    9    6    8    7       -0.0000000000
    9    6    9    7        0.0000000143
    9    6   10    7        0.0066862831
    9    6   11    7        0.0103568152
    9    6    8    8        0.0000000000
    9    6    9    8       -0.0000000003
    9    6   10    8       -0.0000061083
    9    6   11    8        0.0000130663
    9    6    9    9       -0.0000000000
    9    6   10    9       -0.0000137644
    9    6   11    9       -0.0002082091
    9    6   10   10        0.0000000001
    9    6   11   10        0.0000000007
    9    6   11   11        0.0000000016
   10    6   10    6        0.0212666298
   10    6   11    6        0.0000001431
   10    6    7    7       -0.0000630613
   10    6    8    7       -0.0055316837
   10    6    9    7       -0.0035701527
   10    6   10    7        0.0000000279
   10    6   11    7       -0.0000000003
   10    6    8    8       -0.0000117308
   10    6    9    8        0.0000028311
   10    6   10    8       -0.0000000006
   10    6   11    8       -0.0000000008
   10    6    9    9       -0.0000333704
   10    6   10    9       -0.0000000000
   10    6   11    9       -0.0000000001
   10    6   10   10       -0.0000861183
   10    6   11   10       -0.0003414104
   10    6   11   11       -0.0000480668
   11    6   11    6        0.0212754568
   11    6    7    7       -0.0005301443
   11    6    8    7        0.0035704941
   11    6    9    7       -0.0055325946
   11    6   10    7       -0.0000000002
   11    6   11    7        0.0000000278
   11    6    8    8       -0.0002128319
   11    6    9    8       -0.0000082059
   11    6   10    8        0.0000000005
   11    6   11    8       -0.0000000013
   11    6    9    9       -0.0001897359
   11    6   10    9        0.0000000006
   11    6   11    9        0.0000000004
   11    6   10   10       -0.0005706670
   11    6   11   10       -0.0000181105
   11    6   11   11       -0.0009859915
    7    7    7    7        0.6127972687
    7    7    8    7       -0.0000019710
    7    7    9    7        0.0000064293
    7    7   10    7        0.0000000010
    7    7   11    7        0.0000000090
    7    7    8    8        0.5725308211
    7    7    9    8        0.0000000009
    7    7   10    8       -0.0000000759
    7    7   11    8        0.0000000488
    7    7    9    9        0.5725813969
    7    7   10    9       -0.0000000514
    7    7   11    9       -0.0000000793
    7    7   10   10        0.5731959374
    7    7   11   10        0.0000010892
    7    7   11   11        0.5733128460
    8    7    8    7        0.0273945393
    8    7    9    7        0.0000000003
    8    7   10    7       -0.0000000068
    8    7   11    7        0.0000000044
    8    7    8    8       -0.0000018067
    8    7    9    8        0.0000013372
    8    7   10    8        0.0000000014
    8    7   11    8        0.0000000003
    8    7    9    9       -0.0000010582
    8    7   10    9        0.0000000008
    8    7   11    9        0.0000000012
    8    7   10   10        0.0000168190
    8    7   11   10        0.0002346929
    8    7   11   11       -0.0002739989
    9    7    9    7        0.0273969565
    9    7   10    7       -0.0000000044
    9    7   11    7       -0.0000000068
    9    7    8    8        0.0000033686
    9    7    9    8       -0.0000004013
    9    7   10    8        0.0000000007
    9    7   11    8        0.0000000010
    9    7    9    9        0.0000058681
    9    7   10    9        0.0000000001
    9    7   11    9        0.0000000010
    9    7   10   10        0.0000425411
    9    7   11   10        0.0001898470
    9    7   11   11        0.0003733619
   10    7   10    7        0.0334520133
   10    7   11    7        0.0000002565
   10    7    8    8       -0.0000000005
   10    7    9    8        0.0000000001
   10    7   10    8        0.0000000590
   10    7   11    8       -0.0001348034
   10    7    9    9        0.0000000012
   10    7   10    9        0.0000233700
   10    7   11    9       -0.0000352252
   10    7   10   10        0.0000000012
   10    7   11   10        0.0000000012
   10    7   11   11        0.0000000010
   11    7   11    7        0.0334565808
   11    7    8    8        0.0000000118
   11    7    9    8        0.0000000001
   11    7   10    8        0.0004082652
   11    7   11    8       -0.0001486938
   11    7    9    9        0.0000000105
   11    7   10    9        0.0002541414
   11    7   11    9        0.0001863771
   11    7   10   10        0.0000000081
   11    7   11   10        0.0000000001
   11    7   11   11        0.0000000105
    8    8    8    8        0.6374433387
    8    8    9    8       -0.0000000021
    8    8   10    8        0.0000000007
    8    8   11    8       -0.0000000006
    8    8    9    9        0.5809329287
    8    8   10    9       -0.0000000032
    8    8   11    9       -0.0000000047
    8    8   10   10        0.5742646281
    8    8   11   10       -0.0164800550
    8    8   11   11        0.5597434258
    9    8    9    8        0.0292485931
    9    8   10    8       -0.0000000011
    9    8   11    8       -0.0000000018
    9    8    9    9        0.0000000050
    9    8   10    9        0.0000000019
    9    8   11    9       -0.0000000010
    9    8   10   10        0.0164752393
    9    8   11   10        0.0075939482
    9    8   11   11       -0.0164695481
   10    8   10    8        0.0242520058
   10    8   11    8       -0.0118588948
   10    8    9    9        0.0000000035
   10    8   10    9        0.0118739045
   10    8   11    9        0.0125275280
   10    8   10   10       -0.0000000022
   10    8   11   10       -0.0000000021
   10    8   11   11       -0.0000000009
   11    8   11    8        0.0135856876
   11    8    9    9       -0.0000000023
   11    8   10    9       -0.0017338856
   11    8   11    9       -0.0118674311
   11    8   10   10       -0.0000000012
   11    8   11   10        0.0000000003
   11    8   11   11        0.0000000029
    9    9    9    9        0.6375483381
    9    9   10    9       -0.0000000018
    9    9   11    9       -0.0000000017
    9    9   10   10        0.5596946824
    9    9   11   10        0.0164796488
    9    9   11   11        0.5743980022
   10    9   10    9        0.0135841901
   10    9   11    9        0.0118593068
   10    9   10   10        0.0000000010
   10    9   11   10       -0.0000000007
   10    9   11   11       -0.0000000030
   11    9   11    9        0.0242458461
   11    9   10   10       -0.0000000020
   11    9   11   10       -0.0000000022
   11    9   11   11       -0.0000000014
   10   10   10   10        0.6581728366
   10   10   11   10        0.0000179852
   10   10   11   11        0.6000905280
   11   10   11   10        0.0299916754
   11   10   11   11       -0.0000169948
   11   11   11   11        0.6584714985
 end_two_electron_integrals


 output epsi filename:./pspw_hf_H2.emovecs

 Total PSPW energy     :  -0.1132516177E+01


=== Spin Contamination ===

 <Sexact^2> =    0.0000000000000000     
 <S^2>      =    0.0000000000000000     



== Center of Charge ==

spin up     (    0.0000,    0.0000,    0.0000 )
spin down   (    0.0000,    0.0000,    0.0000 )
     total  (    0.0000,    0.0000,    0.0000 )
ionic       (    0.0000,    0.0000,    0.0000 )


== Molecular Dipole wrt Center of Mass ==

mu   =  (   -0.0000,   -0.0000,   -0.0000 ) au
|mu| =     0.0000 au,       0.0000 Debye

 output psi filename:./pspw_hf_H2.movecs

 Writing Crystallographic Information File:./H2.cif
   - cell not shifted (nwpw:cif_shift_cell .false.)


== Timing ==

cputime in seconds
  prologue    :   0.691219E+01
  main loop   :   0.178974E+03
  epilogue    :   0.163920E-01
  total       :   0.185902E+03
  cputime/step:   0.194536E+01       (      92 evalulations,      41 linesearches)


Time spent doing                        total          step       percent
  total time                 :   0.185913E+03  0.202079E+01       100.0 %
  i/o time                   :   0.274231E+00  0.298078E-02         0.1 %
  FFTs                       :   0.127759E+03  0.138868E+01        68.7 %
  dot products               :   0.596928E+01  0.648835E-01         3.2 %
  geodesic                   :   0.368273E-01  0.400297E-03         0.0 %
  ffm_dgemm                  :   0.450570E-02  0.489750E-04         0.0 %
  fmf_dgemm                  :   0.450192E-02  0.489339E-04         0.0 %
  mmm_dgemm                  :   0.160325E-02  0.174266E-04         0.0 %
  m_diagonalize              :   0.830518E-03  0.902737E-05         0.0 %
  local pseudopotentials     :   0.238026E+01  0.258724E-01         1.3 %
  non-local pseudopotentials :   0.557051E+01  0.605490E-01         3.0 %
  structure factors          :   0.271184E+00  0.294765E-02         0.1 %
  phase factors              :   0.838600E-05  0.911522E-07         0.0 %
  masking and packing        :   0.356326E+01  0.387311E-01         1.9 %
  queue fft                  :   0.371462E+01  0.403763E-01         2.0 %
  queue fft (serial)         :   0.139974E+01  0.152146E-01         0.8 %
  queue fft (message passing):   0.229737E+01  0.249714E-01         1.2 %
  HFX potential              :   0.245196E+01  0.266517E-01         1.3 %
  non-local psp FFM          :   0.535050E+01  0.581576E-01         2.9 %
  non-local psp FMF          :   0.472881E-01  0.514001E-03         0.0 %
  non-local psp FFM A        :   0.202861E-01  0.220501E-03         0.0 %
  non-local psp FFM B        :   0.689540E-01  0.749500E-03         0.0 %

== HFX Counters ==
  HFX Evalulations         =    92
  Lin ACE HFX Evalulations =     0


     >>>  JOB COMPLETED     AT Mon Apr 14 15:24:11 2025  <<<

 Task  times  cpu:      172.8s     wall:      185.9s


                                NWChem Input Module
                                -------------------


 Summary of allocated global arrays
-----------------------------------
  No active global arrays


MA_summarize_allocated_blocks: starting scan ...
MA_summarize_allocated_blocks: scan completed: 0 heap blocks, 0 stack blocks
MA usage statistics:

	allocation statistics:
					      heap	     stack
					      ----	     -----
	current number of blocks	         0	         0
	maximum number of blocks	       313	        36
	current total bytes		         0	         0
	maximum total bytes		  16366088	   5334712
	maximum total K-bytes		     16367	      5335
	maximum total M-bytes		        17	         6


                                     CITATION
                                     --------
                Please cite the following reference when publishing
                           results obtained with NWChem:

          E. Apra, E. J. Bylaska, W. A. de Jong, N. Govind, K. Kowalski,
       T. P. Straatsma, M. Valiev, H. J. J. van Dam, Y. Alexeev, J. Anchell,
       V. Anisimov, F. W. Aquino, R. Atta-Fynn, J. Autschbach, N. P. Bauman,
     J. C. Becca, D. E. Bernholdt, K. Bhaskaran-Nair, S. Bogatko, P. Borowski,
         J. Boschen, J. Brabec, A. Bruner, E. Cauet, Y. Chen, G. N. Chuev,
      C. J. Cramer, J. Daily, M. J. O. Deegan, T. H. Dunning Jr., M. Dupuis,
   K. G. Dyall, G. I. Fann, S. A. Fischer, A. Fonari, H. Fruchtl, L. Gagliardi,
      J. Garza, N. Gawande, S. Ghosh, K. Glaesemann, A. W. Gotz, J. Hammond,
       V. Helms, E. D. Hermes, K. Hirao, S. Hirata, M. Jacquelin, L. Jensen,
   B. G. Johnson, H. Jonsson, R. A. Kendall, M. Klemm, R. Kobayashi, V. Konkov,
      S. Krishnamoorthy, M. Krishnan, Z. Lin, R. D. Lins, R. J. Littlefield,
      A. J. Logsdail, K. Lopata, W. Ma, A. V. Marenich, J. Martin del Campo,
   D. Mejia-Rodriguez, J. E. Moore, J. M. Mullin, T. Nakajima, D. R. Nascimento,
    J. A. Nichols, P. J. Nichols, J. Nieplocha, A. Otero-de-la-Roza, B. Palmer,
    A. Panyala, T. Pirojsirikul, B. Peng, R. Peverati, J. Pittner, L. Pollack,
   R. M. Richard, P. Sadayappan, G. C. Schatz, W. A. Shelton, D. W. Silverstein,
   D. M. A. Smith, T. A. Soares, D. Song, M. Swart, H. L. Taylor, G. S. Thomas,
            V. Tipparaju, D. G. Truhlar, K. Tsemekhman, T. Van Voorhis,
      A. Vazquez-Mayagoitia, P. Verma, O. Villa, A. Vishnu, K. D. Vogiatzis,
        D. Wang, J. H. Weare, M. J. Williamson, T. L. Windus, K. Wolinski,
        A. T. Wong, Q. Wu, C. Yang, Q. Yu, M. Zacharias, Z. Zhang, Y. Zhao,
                                and R. J. Harrison
                        "NWChem: Past, present, and future
                         J. Chem. Phys. 152, 184102 (2020)
                               doi:10.1063/5.0004997

                                      AUTHORS
                                      -------
  E. Apra, E. J. Bylaska, N. Govind, K. Kowalski, M. Valiev, D. Mejia-Rodriguez,
       A. Kunitsa, N. P. Bauman, A. Panyala, W. A. de Jong, T. P. Straatsma,
   H. J. J. van Dam, D. Wang, T. L. Windus, J. Hammond, J. Autschbach, A. Woods,
    K. Bhaskaran-Nair, J. Brabec, K. Lopata, S. A. Fischer, S. Krishnamoorthy,
     M. Jacquelin, W. Ma, M. Klemm, O. Villa, Y. Chen, V. Anisimov, F. Aquino,
     S. Hirata, M. T. Hackler, E. Hermes, L. Jensen, J. E. Moore, J. C. Becca,
      V. Konjkov, T. Risthaus, M. Malagoli, A. Marenich, A. Otero-de-la-Roza,
        J. Mullin, P. Nichols, R. Peverati, J. Pittner, Y. Zhao, P.-D. Fan,
        A. Fonari, M. J. Williamson, R. J. Harrison, J. R. Rehr, M. Dupuis,
     D. Silverstein, D. M. A. Smith, J. Nieplocha, V. Tipparaju, M. Krishnan,
     B. E. Van Kuiken, A. Vazquez-Mayagoitia, M. Swart, Q. Wu, T. Van Voorhis,
     A. A. Auer, M. Nooijen, L. D. Crosby, E. Brown, G. Cisneros, G. I. Fann,
   H. Fruchtl, J. Garza, K. Hirao, R. A. Kendall, J. A. Nichols, K. Tsemekhman,
    K. Wolinski, J. Anchell, D. E. Bernholdt, P. Borowski, T. Clark, D. Clerc,
   H. Dachsel, M. J. O. Deegan, K. Dyall, D. Elwood, E. Glendening, M. Gutowski,
   A. C. Hess, J. Jaffe, B. G. Johnson, J. Ju, R. Kobayashi, R. Kutteh, Z. Lin,
   R. Littlefield, X. Long, B. Meng, T. Nakajima, S. Niu, L. Pollack, M. Rosing,
   K. Glaesemann, G. Sandrone, M. Stave, H. Taylor, G. Thomas, J. H. van Lenthe,
                               A. T. Wong, Z. Zhang.

 Total times  cpu:      172.9s     wall:      186.0s
