 argument  1 = H2-1.5.nw



============================== echo of input deck ==============================
title "swnc: e theory=pspw4 xc=hf formula=H2 charge=0 mult=1"
#machinejob:expert

echo

start pspw_hf_H2

memory heap 1200 mb stack 1200 mb global 10 mb

charge 0

geometry
H    0.00000    0.00000   -0.75000
H    0.00000    0.00000    0.75000
end

nwpw
  ### pseudopotential block begin ###
  ### pseudopotential block end   ###
  simulation_cell
     SC 15.0000
     boundary_conditions aperiodic
  end

  cutoff 50.0
  mult 1
  xc hf
  lmbfgs
  tolerances 1.0e-9 1.0e-9

  virtual 10
end
set nwpw:cif_filename H2

#set nwpw:CI_maxit_orb 15
#set nwpw:CI_maxit_linesearch 15
set pspw:HFX_screening_radius 14.0


set nwpw:2qintegrals .true.
set nwpw:3x3_virtual .true.

task pspw energy

================================================================================


                                         
                                         


             Northwest Computational Chemistry Package (NWChem) 7.2.3
             --------------------------------------------------------


                    Environmental Molecular Sciences Laboratory
                       Pacific Northwest National Laboratory
                                Richland, WA 99352

                              Copyright (c) 1994-2022
                       Pacific Northwest National Laboratory
                            Battelle Memorial Institute

             NWChem is an open-source computational chemistry package
                        distributed under the terms of the
                      Educational Community License (ECL) 2.0
             A copy of the license is included with this distribution
                              in the LICENSE.TXT file

                                  ACKNOWLEDGMENT
                                  --------------

            This software and its documentation were developed at the
            EMSL at Pacific Northwest National Laboratory, a multiprogram
            national laboratory, operated for the U.S. Department of Energy
            by Battelle under Contract Number DE-AC05-76RL01830. Support
            for this work was provided by the Department of Energy Office
            of Biological and Environmental Research, Office of Basic
            Energy Sciences, and the Office of Advanced Scientific Computing.


           Job information
           ---------------

    hostname        = mqs-al
    program         = nwchem
    date            = Mon Apr 14 15:33:38 2025

    compiled        = Thu_Oct_31_08:55:15_2024
    source          = /home/conda/feedstock_root/build_artifacts/nwchem_1730356057992/work
    nwchem branch   = 7.2.3
    nwchem revision = c400b04
    ga revision     = 5.8.0
    use scalapack   = T
    input           = H2-1.5.nw
    prefix          = pspw_hf_H2.
    data base       = ./pspw_hf_H2.db
    status          = startup
    nproc           =       24
    time left       =     -1s



           Memory information
           ------------------

    heap     =  157286400 doubles =   1200.0 Mbytes
    stack    =  157286397 doubles =   1200.0 Mbytes
    global   =    1310720 doubles =     10.0 Mbytes (distinct from heap & stack)
    total    =  315883517 doubles =   2410.0 Mbytes
    verify   = yes
    hardfail = no 


           Directory information
           ---------------------

  0 permanent = .
  0 scratch   = .




                                NWChem Input Module
                                -------------------


               swnc: e theory=pspw4 xc=hf formula=H2 charge=0 mult=1
               -----------------------------------------------------

 Scaling coordinates for geometry "geometry" by  1.889725989
 (inverse scale =  0.529177249)

  zeroes
  zeroes
  zeroes
  zeroes
  zeroes
  zeroes
  zeroes
  zeroes
  zeroes
  zeroes
  zeroes
  zeroes
  zeroes
  zeroes
  zeroes
  zeroes
  zeroes
  zeroes
  zeroes
  zeroes
  zeroes
  zeroes
  zeroes
  zeroes
  zeroes
  zeroes
  zeroes
  zeroes
  zeroes
  zeroes
  zeroes
  zeroes
  zeroes
  zeroes
  zeroes
  zeroes
  zeroes
  zeroes
  zeroes
  zeroes
  zeroes
  zeroes
  zeroes
  zeroes
  zeroes
  zeroes
  zeroes
  zeroes
 ORDER OF PRIMARY AXIS IS BEING SET TO 4
 D4H symmetry detected

          ------
          auto-z
          ------
     1 autoz failed with cvr_scaling = 1.2 changing to 1.3
     2 autoz failed with cvr_scaling = 1.3 changing to 1.4
     3 autoz failed with cvr_scaling = 1.4 changing to 1.5
     4 autoz failed with cvr_scaling = 1.5 changing to 1.6
     5 autoz failed with cvr_scaling = 1.6 changing to 1.7

 AUTOZ failed to generate good internal coordinates.
 Cartesian coordinates will be used in optimizations.



                             Geometry "geometry" -> ""
                             -------------------------

 Output coordinates in angstroms (scale by  1.889725989 to convert to a.u.)

  No.       Tag          Charge          X              Y              Z
 ---- ---------------- ---------- -------------- -------------- --------------
    1 H                    1.0000     0.00000000     0.00000000    -0.75000000
    2 H                    1.0000     0.00000000     0.00000000     0.75000000

      Atomic Mass 
      ----------- 

      H                  1.007825


 Effective nuclear repulsion energy (a.u.)       0.3527848327

            Nuclear Dipole moment (a.u.) 
            ----------------------------
        X                 Y               Z
 ---------------- ---------------- ----------------
     0.0000000000     0.0000000000     0.0000000000

      Symmetry information
      --------------------

 Group name             D4h       
 Group number             28
 Group order              16
 No. of unique centers     1

      Symmetry unique atoms

     1


            XYZ format geometry
            -------------------
     2
 geometry
 H                     0.00000000     0.00000000    -0.75000000
 H                     0.00000000     0.00000000     0.75000000

          ****************************************************
          *                                                  *
          *               NWPW PSPW Calculation              *
          *                                                  *
          * [ (Grassmann/Stiefel manifold implementation)  ] *
          *                                                  *
          *      [ NorthWest Chemistry implementation ]      *
          *                                                  *
          *            version #5.10   06/12/02              *
          *                                                  *
          *    This code was developed by Eric J. Bylaska,   *
          *    and was based upon algorithms and code        *
          *    developed by the group of Prof. John H. Weare *
          *                                                  *
          ****************************************************
     >>>  JOB STARTED       AT Mon Apr 14 15:33:38 2025  <<<
          ================ input data ========================

 input psi filename:./pspw_hf_H2.movecs

 number of processors used:        24
 processor grid           :  24 x   1
 parallel mapping         :2d-hilbert
 parallel mapping         :  balanced
 number of threads        :         1
 parallel io              :       off

 options:
      boundary conditions  = aperiodic   (version4)
      electron spin        = restricted
      exchange-correlation = Hartree-Fock
      - HFX relaxed
      - HFX restricted orbitals :    1
      - HFX free-space coulomb solver


 elements involved in the cluster:
      1: H   valence charge:  1.0000  lmax=  1
             comment    : Parameterized (Chem.Phys.Lett., vol 322, page 447) Hamman psp
             pseudpotential type            :   0
             highest angular component      :   1
             local potential used           :   1
             number of non-local projections:   1
             aperiodic cutoff radius        :  1.000
             cutoff =   0.800   0.800


 total charge:   0.000

 atomic composition:
     H   :    2

 number of electrons: spin up=     1 (   1 per task)  down=     1 (   1 per task) (Fourier space)
 number of orbitals : spin up=     1 (   1 per task)  down=     1 (   1 per task) (Fourier space)

 supercell:
      cell_name:  cell_default                                      
      lattice:    a1=<  15.000   0.000   0.000 >
                  a2=<   0.000  15.000   0.000 >
                  a3=<   0.000   0.000  15.000 >
      reciprocal: b1=<   0.419   0.000   0.000 >
                  b2=<   0.000   0.419   0.000 >
                  b3=<   0.000   0.000   0.419 >
      lattice:    a=      15.000 b=     15.000 c=      15.000
                  alpha=  90.000 beta=  90.000 gamma=  90.000
                  omega=      3375.0

      density cutoff=100.000  fft= 70x 70x 70(    80618 waves     3359 per task)
      wavefnc cutoff= 50.000  fft= 70x 70x 70(    28526 waves     1188 per task)

 technical parameters:
      time step=      5.80     fictitious mass=  400000.0
      tolerance=0.100E-08 (energy)   0.100E-08 (density)
      maximum iterations =      1000 (   10 inner    100 outer )





== Energy Calculation ==


          ============ Grassmann lmbfgs iteration ============
     >>>  ITERATION STARTED AT Mon Apr 14 15:33:44 2025  <<<
    iter.           Energy         DeltaE       DeltaRho 
    ------------------------------------------------------
      10   -0.1000721356E+01   -0.14784E-02    0.21907E-01
     -  10 steepest descent iterations performed
      20   -0.1004157082E+01   -0.46673E-04    0.56009E-04
      30   -0.1004256409E+01   -0.23536E-05    0.16663E-05
      40   -0.1004260823E+01   -0.65434E-07    0.24330E-07
      50   -0.1004261033E+01   -0.22027E-08    0.57489E-09
      60   -0.1004261037E+01   -0.87669E-09    0.58415E-11
  *** tolerance ok. iteration terminated
     >>>  ITERATION ENDED   AT Mon Apr 14 15:33:49 2025  <<<


==  Summary Of Results  ==

 number of electrons: spin up=    1.00000  down=    1.00000 (real space)

 total     energy    :  -0.1004261037E+01 (   -0.50213E+00/ion)
 total orbital energy:  -0.8821275871E+00 (   -0.88213E+00/electron)
 hartree   energy    :   0.9498365643E+00 (    0.94984E+00/electron)
 exc-corr  energy    :   0.0000000000E+00 (    0.00000E+00/electron)
 HF exchange energy  :  -0.4749182821E+00 (   -0.47492E+00/electron)
 ion-ion   energy    :   0.3527848327E+00 (    0.17639E+00/ion)

 kinetic (planewave) :   0.6931290608E+00 (    0.69313E+00/electron)
 V_local (planewave) :  -0.2351194262E+01 (   -0.23512E+01/electron)
 V_nl    (planewave) :  -0.1738989502E+00 (   -0.17390E+00/electron)
 V_Coul  (planewave) :   0.1899673129E+01 (    0.18997E+01/electron)
 V_xc.   (planewave) :   0.0000000000E+00 (    0.00000E+00/electron)
 K.S. HFX energy     :  -0.9498365643E+00 (   -0.94984E+00/electron)
 Virial Coefficient  :  -0.9023140408E+00

 orbital energies:
    -0.4410638E+00 ( -12.002eV)


== Virtual Orbital Calculation ==


 input epsi filename:./pspw_hf_H2.emovecs

 COVOs Mimimization
 ------------------
CI gradient algorithm =         3
maxit_sweeps          =         3
maxit_orb             =       120
maxit_linesearch      =        15
maxerror              = 0.100E-08

     orb,it,eci,eold,eci-eold=                    1                    1  -1.0360301769440365       -1.0340599643304482       -1.9702126135883180E-003 F
     orb,it,eci,eold,eci-eold=                    1                    2  -1.0361236594300562       -1.0360301769440365       -9.3482486019702549E-005 F
     orb,it,eci,eold,eci-eold=                    1                    3  -1.0396328149341882       -1.0361236594300562       -3.5091555041319999E-003 F
     orb,it,eci,eold,eci-eold=                    1                    4  -1.0402277881079949       -1.0396328149341882       -5.9497317380663439E-004 F
     orb,it,eci,eold,eci-eold=                    1                    5  -1.0407989491536720       -1.0402277881079949       -5.7116104567711545E-004 F
     orb,it,eci,eold,eci-eold=                    1                    6  -1.0427154535882055       -1.0407989491536720       -1.9165044345335058E-003 F
     orb,it,eci,eold,eci-eold=                    1                    7  -1.0432863036029740       -1.0427154535882055       -5.7085001476853137E-004 F
     orb,it,eci,eold,eci-eold=                    1                    8  -1.0440844369226665       -1.0432863036029740       -7.9813331969247336E-004 F
     orb,it,eci,eold,eci-eold=                    1                    9  -1.0444814423076145       -1.0440844369226665       -3.9700538494802373E-004 F
     orb,it,eci,eold,eci-eold=                    1                   10  -1.0451127656755608       -1.0444814423076145       -6.3132336794624599E-004 F
     orb,it,eci,eold,eci-eold=                    1                   11  -1.0453605005850979       -1.0451127656755608       -2.4773490953711175E-004 F
     orb,it,eci,eold,eci-eold=                    1                   12  -1.0457910438962739       -1.0453605005850979       -4.3054331117597933E-004 F
     orb,it,eci,eold,eci-eold=                    1                   13  -1.0469699455047465       -1.0457910438962739       -1.1789016084726711E-003 F
     orb,it,eci,eold,eci-eold=                    1                   14  -1.0475977106126575       -1.0469699455047465       -6.2776510791096030E-004 F
     orb,it,eci,eold,eci-eold=                    1                   15  -1.0480025091159590       -1.0475977106126575       -4.0479850330155109E-004 F
     orb,it,eci,eold,eci-eold=                    1                   16  -1.0481576855282793       -1.0480025091159590       -1.5517641232021262E-004 F
     orb,it,eci,eold,eci-eold=                    1                   17  -1.0487327192834004       -1.0481576855282793       -5.7503375512113486E-004 F
     orb,it,eci,eold,eci-eold=                    1                   18  -1.0490974839985219       -1.0487327192834004       -3.6476471512147945E-004 F
     orb,it,eci,eold,eci-eold=                    1                   19  -1.0492529435631581       -1.0490974839985219       -1.5545956463625110E-004 F
     orb,it,eci,eold,eci-eold=                    1                   20  -1.0496319359678909       -1.0492529435631581       -3.7899240473282525E-004 F
     orb,it,eci,eold,eci-eold=                    1                   21  -1.0499068526206381       -1.0496319359678909       -2.7491665274714805E-004 F
     orb,it,eci,eold,eci-eold=                    1                   22  -1.0502571351599450       -1.0499068526206381       -3.5028253930691200E-004 F
     orb,it,eci,eold,eci-eold=                    1                   23  -1.0504610285231177       -1.0502571351599450       -2.0389336317272466E-004 F
     orb,it,eci,eold,eci-eold=                    1                   24  -1.0508802549762080       -1.0504610285231177       -4.1922645309022677E-004 F
     orb,it,eci,eold,eci-eold=                    1                   25  -1.0509331391925412       -1.0508802549762080       -5.2884216333204392E-005 F
     orb,it,eci,eold,eci-eold=                    1                   26  -1.0509667737781325       -1.0509331391925412       -3.3634585591357791E-005 F
     orb,it,eci,eold,eci-eold=                    1                   27  -1.0512476808426601       -1.0509667737781325       -2.8090706452754688E-004 F
     orb,it,eci,eold,eci-eold=                    1                   28  -1.0513946320288918       -1.0512476808426601       -1.4695118623175851E-004 F
     orb,it,eci,eold,eci-eold=                    1                   29  -1.0515812032897747       -1.0513946320288918       -1.8657126088283960E-004 F
     orb,it,eci,eold,eci-eold=                    1                   30  -1.0515960366877124       -1.0515812032897747       -1.4833397937730197E-005 F
     orb,it,eci,eold,eci-eold=                    1                   31  -1.0516369721577910       -1.0515960366877124       -4.0935470078551361E-005 F
     orb,it,eci,eold,eci-eold=                    1                   32  -1.0518188332000058       -1.0516369721577910       -1.8186104221484811E-004 F
     orb,it,eci,eold,eci-eold=                    1                   33  -1.0518648008243643       -1.0518188332000058       -4.5967624358489445E-005 F
     orb,it,eci,eold,eci-eold=                    1                   34  -1.0518843751454567       -1.0518648008243643       -1.9574321092452607E-005 F
     orb,it,eci,eold,eci-eold=                    1                   35  -1.0520626729225404       -1.0518843751454567       -1.7829777708366912E-004 F
     orb,it,eci,eold,eci-eold=                    1                   36  -1.0520905930435154       -1.0520626729225404       -2.7920120974966878E-005 F
     orb,it,eci,eold,eci-eold=                    1                   37  -1.0520957646062485       -1.0520905930435154       -5.1715627331638814E-006 F
     orb,it,eci,eold,eci-eold=                    1                   38  -1.0522054679185862       -1.0520957646062485       -1.0970331233761677E-004 F
     orb,it,eci,eold,eci-eold=                    1                   39  -1.0522836277632728       -1.0522054679185862       -7.8159844686620517E-005 F
     orb,it,eci,eold,eci-eold=                    1                   40  -1.0523071962602568       -1.0522836277632728       -2.3568496984038845E-005 F
     orb,it,eci,eold,eci-eold=                    1                   41  -1.0523836984235628       -1.0523071962602568       -7.6502163306013671E-005 F
     orb,it,eci,eold,eci-eold=                    1                   42  -1.0524310937011034       -1.0523836984235628       -4.7395277540607239E-005 F
     orb,it,eci,eold,eci-eold=                    1                   43  -1.0524666302881514       -1.0524310937011034       -3.5536587047912960E-005 F
     orb,it,eci,eold,eci-eold=                    1                   44  -1.0525630246260289       -1.0524666302881514       -9.6394337877558911E-005 F
     orb,it,eci,eold,eci-eold=                    1                   45  -1.0525793724629695       -1.0525630246260289       -1.6347836940600047E-005 F
     orb,it,eci,eold,eci-eold=                    1                   46  -1.0525886244684144       -1.0525793724629695       -9.2520054448819167E-006 F
     orb,it,eci,eold,eci-eold=                    1                   47  -1.0526716336873345       -1.0525886244684144       -8.3009218920127026E-005 F
     orb,it,eci,eold,eci-eold=                    1                   48  -1.0526761899629207       -1.0526716336873345       -4.5562755861539017E-006 F
     orb,it,eci,eold,eci-eold=                    1                   49  -1.0526829362560655       -1.0526761899629207       -6.7462931447881402E-006 F
     orb,it,eci,eold,eci-eold=                    1                   50  -1.0527642492609295       -1.0526829362560655       -8.1313004864025373E-005 F
     orb,it,eci,eold,eci-eold=                    1                   51  -1.0527708617627844       -1.0527642492609295       -6.6125018549634262E-006 F
     orb,it,eci,eold,eci-eold=                    1                   52  -1.0527724882572422       -1.0527708617627844       -1.6264944577848439E-006 F
     orb,it,eci,eold,eci-eold=                    1                   53  -1.0528249536551231       -1.0527724882572422       -5.2465397880840925E-005 F
     orb,it,eci,eold,eci-eold=                    1                   54  -1.0528446666940361       -1.0528249536551231       -1.9713038913016234E-005 F
     orb,it,eci,eold,eci-eold=                    1                   55  -1.0528489533995502       -1.0528446666940361       -4.2867055141115884E-006 F
     orb,it,eci,eold,eci-eold=                    1                   56  -1.0528847289087357       -1.0528489533995502       -3.5775509185542731E-005 F
     orb,it,eci,eold,eci-eold=                    1                   57  -1.0529090874665075       -1.0528847289087357       -2.4358557771719802E-005 F
     orb,it,eci,eold,eci-eold=                    1                   58  -1.0529174384940323       -1.0529090874665075       -8.3510275248332988E-006 F
     orb,it,eci,eold,eci-eold=                    1                   59  -1.0529423056251606       -1.0529174384940323       -2.4867131128258890E-005 F
     orb,it,eci,eold,eci-eold=                    1                   60  -1.0529525196277074       -1.0529423056251606       -1.0214002546860002E-005 F
     orb,it,eci,eold,eci-eold=                    1                   61  -1.0529599093989654       -1.0529525196277074       -7.3897712580262009E-006 F
     orb,it,eci,eold,eci-eold=                    1                   62  -1.0529880863003176       -1.0529599093989654       -2.8176901352150452E-005 F
     orb,it,eci,eold,eci-eold=                    1                   63  -1.0529999320594876       -1.0529880863003176       -1.1845759170014958E-005 F
     orb,it,eci,eold,eci-eold=                    1                   64  -1.0530025680729009       -1.0529999320594876       -2.6360134133263102E-006 F
     orb,it,eci,eold,eci-eold=                    1                   65  -1.0530177305569537       -1.0530025680729009       -1.5162484052755332E-005 F
     orb,it,eci,eold,eci-eold=                    1                   66  -1.0530249955608115       -1.0530177305569537       -7.2650038578370157E-006 F
     orb,it,eci,eold,eci-eold=                    1                   67  -1.0530295913566277       -1.0530249955608115       -4.5957958161313428E-006 F
     orb,it,eci,eold,eci-eold=                    1                   68  -1.0530475060965829       -1.0530295913566277       -1.7914739955271486E-005 F
     orb,it,eci,eold,eci-eold=                    1                   69  -1.0530555563260526       -1.0530475060965829       -8.0502294697026855E-006 F
     orb,it,eci,eold,eci-eold=                    1                   70  -1.0530575470142245       -1.0530555563260526       -1.9906881718600999E-006 F
     orb,it,eci,eold,eci-eold=                    1                   71  -1.0530680563046915       -1.0530575470142245       -1.0509290466975685E-005 F
     orb,it,eci,eold,eci-eold=                    1                   72  -1.0530740791502531       -1.0530680563046915       -6.0228455616151422E-006 F
     orb,it,eci,eold,eci-eold=                    1                   73  -1.0530778580719651       -1.0530740791502531       -3.7789217119943430E-006 F
     orb,it,eci,eold,eci-eold=                    1                   74  -1.0530906008069001       -1.0530778580719651       -1.2742734935011768E-005 F
     orb,it,eci,eold,eci-eold=                    1                   75  -1.0530957689432912       -1.0530906008069001       -5.1681363910649480E-006 F
     orb,it,eci,eold,eci-eold=                    1                   76  -1.0530970156985751       -1.0530957689432912       -1.2467552839012797E-006 F
     orb,it,eci,eold,eci-eold=                    1                   77  -1.0531041583201908       -1.0530970156985751       -7.1426216157188804E-006 F
     orb,it,eci,eold,eci-eold=                    1                   78  -1.0531073427456210       -1.0531041583201908       -3.1844254302360042E-006 F
     orb,it,eci,eold,eci-eold=                    1                   79  -1.0531089525429775       -1.0531073427456210       -1.6097973565276646E-006 F
     orb,it,eci,eold,eci-eold=                    1                   80  -1.0531158767129021       -1.0531089525429775       -6.9241699245381483E-006 F
     orb,it,eci,eold,eci-eold=                    1                   81  -1.0531191277680905       -1.0531158767129021       -3.2510551883913053E-006 F
     orb,it,eci,eold,eci-eold=                    1                   82  -1.0531201865949824       -1.0531191277680905       -1.0588268919420329E-006 F
     orb,it,eci,eold,eci-eold=                    1                   83  -1.0531247865539743       -1.0531201865949824       -4.5999589919354378E-006 F
     orb,it,eci,eold,eci-eold=                    1                   84  -1.0531269675467985       -1.0531247865539743       -2.1809928241189880E-006 F
     orb,it,eci,eold,eci-eold=                    1                   85  -1.0531282248069724       -1.0531269675467985       -1.2572601739702094E-006 F
     orb,it,eci,eold,eci-eold=                    1                   86  -1.0531330712733162       -1.0531282248069724       -4.8464663437997046E-006 F
     orb,it,eci,eold,eci-eold=                    1                   87  -1.0531353060419280       -1.0531330712733162       -2.2347686117196730E-006 F
     orb,it,eci,eold,eci-eold=                    1                   88  -1.0531360013337228       -1.0531353060419280       -6.9529179480554149E-007 F
     orb,it,eci,eold,eci-eold=                    1                   89  -1.0531391402046981       -1.0531360013337228       -3.1388709753610300E-006 F
     orb,it,eci,eold,eci-eold=                    1                   90  -1.0531406152086065       -1.0531391402046981       -1.4750039083466504E-006 F
     orb,it,eci,eold,eci-eold=                    1                   91  -1.0531413946186889       -1.0531406152086065       -7.7941008247428556E-007 F
     orb,it,eci,eold,eci-eold=                    1                   92  -1.0531444712066349       -1.0531413946186889       -3.0765879459604406E-006 F
     orb,it,eci,eold,eci-eold=                    1                   93  -1.0531456989648582       -1.0531444712066349       -1.2277582233100048E-006 F
     orb,it,eci,eold,eci-eold=                    1                   94  -1.0531460102900001       -1.0531456989648582       -3.1132514188847438E-007 F
     orb,it,eci,eold,eci-eold=                    1                   95  -1.0531479588396719       -1.0531460102900001       -1.9485496718374407E-006 F
     orb,it,eci,eold,eci-eold=                    1                   96  -1.0531491131981410       -1.0531479588396719       -1.1543584690354436E-006 F
     orb,it,eci,eold,eci-eold=                    1                   97  -1.0531497239784420       -1.0531491131981410       -6.1078030100247815E-007 F
     orb,it,eci,eold,eci-eold=                    1                   98  -1.0531516726152268       -1.0531497239784420       -1.9486367848209341E-006 F
     orb,it,eci,eold,eci-eold=                    1                   99  -1.0531523487117507       -1.0531516726152268       -6.7609652387723429E-007 F
     orb,it,eci,eold,eci-eold=                    1                  100  -1.0531525698783022       -1.0531523487117507       -2.2116655151727116E-007 F
     orb,it,eci,eold,eci-eold=                    1                  101  -1.0531538719958622       -1.0531525698783022       -1.3021175599980950E-006 F
     orb,it,eci,eold,eci-eold=                    1                  102  -1.0531545036897820       -1.0531538719958622       -6.3169391983919354E-007 F
     orb,it,eci,eold,eci-eold=                    1                  103  -1.0531547853808751       -1.0531545036897820       -2.8169109311804164E-007 F
     orb,it,eci,eold,eci-eold=                    1                  104  -1.0531559969817792       -1.0531547853808751       -1.2116009040497033E-006 F
     orb,it,eci,eold,eci-eold=                    1                  105  -1.0531566751802746       -1.0531559969817792       -6.7819849536299159E-007 F
     orb,it,eci,eold,eci-eold=                    1                  106  -1.0531569591050931       -1.0531566751802746       -2.8392481854488949E-007 F
     orb,it,eci,eold,eci-eold=                    1                  107  -1.0531579006965270       -1.0531569591050931       -9.4159143393390821E-007 F
     orb,it,eci,eold,eci-eold=                    1                  108  -1.0531582140605145       -1.0531579006965270       -3.1336398742531912E-007 F
     orb,it,eci,eold,eci-eold=                    1                  109  -1.0531583413030581       -1.0531582140605145       -1.2724254361273779E-007 F
     orb,it,eci,eold,eci-eold=                    1                  110  -1.0531590577939511       -1.0531583413030581       -7.1649089306013991E-007 F
     orb,it,eci,eold,eci-eold=                    1                  111  -1.0531593851264012       -1.0531590577939511       -3.2733245003413458E-007 F
     orb,it,eci,eold,eci-eold=                    1                  112  -1.0531594983912989       -1.0531593851264012       -1.1326489768315184E-007 F
     orb,it,eci,eold,eci-eold=                    1                  113  -1.0531600509451498       -1.0531594983912989       -5.5255385089658660E-007 F
     orb,it,eci,eold,eci-eold=                    1                  114  -1.0531603749715570       -1.0531600509451498       -3.2402640726125753E-007 F
     orb,it,eci,eold,eci-eold=                    1                  115  -1.0531605442673937       -1.0531603749715570       -1.6929583668279236E-007 F
     orb,it,eci,eold,eci-eold=                    1                  116  -1.0531610887309413       -1.0531605442673937       -5.4446354758042048E-007 F
     orb,it,eci,eold,eci-eold=                    1                  117  -1.0531612616455208       -1.0531610887309413       -1.7291457954371481E-007 F
     orb,it,eci,eold,eci-eold=                    1                  118  -1.0531612997161304       -1.0531612616455208       -3.8070609553741974E-008 F
     orb,it,eci,eold,eci-eold=                    1                  119  -1.0531616244650035       -1.0531612997161304       -3.2474887312616829E-007 F
     orb,it,eci,eold,eci-eold=                    1                  120  -1.0531618171483059       -1.0531616244650035       -1.9268330242461218E-007 F
     orb,it,eci,eold,eci-eold=                    1                  121  -1.0531619170538618       -1.0531618171483059       -9.9905555828172510E-008 F
     orbital   1 current e=  0.106190E+00 error=0.250E+00 (eci= -0.105316192E+01 error=0.999E-07) iterations 121(   0 preconditioned, Ep,Sp= 20.0  200.0)
     orb,it,eci,eold,eci-eold=                    1                    1  -1.0531632926070094       -1.0531619170538618       -1.3755531476089544E-006 F
     orb,it,eci,eold,eci-eold=                    1                    2  -1.0531635640809036       -1.0531632926070094       -2.7147389425330459E-007 F
     orb,it,eci,eold,eci-eold=                    1                    3  -1.0531636909752871       -1.0531635640809036       -1.2689438344537507E-007 F
     orb,it,eci,eold,eci-eold=                    1                    4  -1.0531637281267452       -1.0531636909752871       -3.7151458132100856E-008 F
     orb,it,eci,eold,eci-eold=                    1                    5  -1.0531637397907185       -1.0531637281267452       -1.1663973342734835E-008 F
     orb,it,eci,eold,eci-eold=                    1                    6  -1.0531639709898197       -1.0531637397907185       -2.3119910119717701E-007 F
     orb,it,eci,eold,eci-eold=                    1                    7  -1.0531639894712792       -1.0531639709898197       -1.8481459473917994E-008 F
     orb,it,eci,eold,eci-eold=                    1                    8  -1.0531639938064115       -1.0531639894712792       -4.3351322531748337E-009 F
     orb,it,eci,eold,eci-eold=                    1                    9  -1.0531641413197537       -1.0531639938064115       -1.4751334220797219E-007 F
     orb,it,eci,eold,eci-eold=                    1                   10  -1.0531641413886248       -1.0531641413197537       -6.8871131020387111E-011 F
     orbital   1 current e=  0.106171E+00 error=0.191E-04 (eci= -0.105316414E+01 error=0.689E-10) iterations  10(   0 preconditioned, Ep,Sp= 20.0  200.0)
     orb,it,eci,eold,eci-eold=                    1                    1  -1.0531642095895677       -1.0531641413886248       -6.8200942893170691E-008 F
     orb,it,eci,eold,eci-eold=                    1                    2  -1.0531642493516880       -1.0531642095895677       -3.9762120263020506E-008 F
     orb,it,eci,eold,eci-eold=                    1                    3  -1.0531643793480305       -1.0531642493516880       -1.2999634257937487E-007 F
     orb,it,eci,eold,eci-eold=                    1                    4  -1.0531644247820089       -1.0531643793480305       -4.5433978357323213E-008 F
     orb,it,eci,eold,eci-eold=                    1                    5  -1.0531644281930632       -1.0531644247820089       -3.4110543278842442E-009 F
     orb,it,eci,eold,eci-eold=                    1                    6  -1.0531644316376707       -1.0531644281930632       -3.4446074881344657E-009 F
     orb,it,eci,eold,eci-eold=                    1                    7  -1.0531644537246962       -1.0531644316376707       -2.2087025541850380E-008 F
     orb,it,eci,eold,eci-eold=                    1                    8  -1.0531644622564122       -1.0531644537246962       -8.5317160003484105E-009 F
     orb,it,eci,eold,eci-eold=                    1                    9  -1.0531644630050072       -1.0531644622564122       -7.4859496379531265E-010 F
     orbital   1 current e=  0.106151E+00 error=0.200E-04 (eci= -0.105316446E+01 error=0.749E-09) iterations   9(   0 preconditioned, Ep,Sp= 20.0  200.0)
     orb,it,eci,eold,eci-eold=                    2                    1  -1.0084230911023258       -1.0078941979053018       -5.2889319702398296E-004 F
     orb,it,eci,eold,eci-eold=                    2                    2  -1.0084401798317311       -1.0084230911023258       -1.7088729405312364E-005 F
     orb,it,eci,eold,eci-eold=                    2                    3  -1.0085035732076695       -1.0084401798317311       -6.3393375938414209E-005 F
     orb,it,eci,eold,eci-eold=                    2                    4  -1.0086384003605033       -1.0085035732076695       -1.3482715283386071E-004 F
     orb,it,eci,eold,eci-eold=                    2                    5  -1.0087230917035328       -1.0086384003605033       -8.4691343029463795E-005 F
     orb,it,eci,eold,eci-eold=                    2                    6  -1.0087673992159814       -1.0087230917035328       -4.4307512448549247E-005 F
     orb,it,eci,eold,eci-eold=                    2                    7  -1.0087778518121429       -1.0087673992159814       -1.0452596161503180E-005 F
     orb,it,eci,eold,eci-eold=                    2                    8  -1.0088168977961018       -1.0087778518121429       -3.9045983958985175E-005 F
     orb,it,eci,eold,eci-eold=                    2                    9  -1.0088208664887399       -1.0088168977961018       -3.9686926380788634E-006 F
     orb,it,eci,eold,eci-eold=                    2                   10  -1.0088373715738361       -1.0088208664887399       -1.6505085096207850E-005 F
     orb,it,eci,eold,eci-eold=                    2                   11  -1.0088741032551867       -1.0088373715738361       -3.6731681350543610E-005 F
     orb,it,eci,eold,eci-eold=                    2                   12  -1.0088849870608430       -1.0088741032551867       -1.0883805656280998E-005 F
     orb,it,eci,eold,eci-eold=                    2                   13  -1.0089013117431833       -1.0088849870608430       -1.6324682340362884E-005 F
     orb,it,eci,eold,eci-eold=                    2                   14  -1.0089272912730582       -1.0089013117431833       -2.5979529874931018E-005 F
     orb,it,eci,eold,eci-eold=                    2                   15  -1.0089302443478161       -1.0089272912730582       -2.9530747578387917E-006 F
     orb,it,eci,eold,eci-eold=                    2                   16  -1.0089427462901477       -1.0089302443478161       -1.2501942331599736E-005 F
     orb,it,eci,eold,eci-eold=                    2                   17  -1.0089654867362174       -1.0089427462901477       -2.2740446069757780E-005 F
     orb,it,eci,eold,eci-eold=                    2                   18  -1.0089662868057909       -1.0089654867362174       -8.0006957348111030E-007 F
     orb,it,eci,eold,eci-eold=                    2                   19  -1.0089737528772500       -1.0089662868057909       -7.4660714590724098E-006 F
     orb,it,eci,eold,eci-eold=                    2                   20  -1.0089935235919436       -1.0089737528772500       -1.9770714693612135E-005 F
     orb,it,eci,eold,eci-eold=                    2                   21  -1.0090052597558625       -1.0089935235919436       -1.1736163918918407E-005 F
     orb,it,eci,eold,eci-eold=                    2                   22  -1.0090204809451309       -1.0090052597558625       -1.5221189268332935E-005 F
     orb,it,eci,eold,eci-eold=                    2                   23  -1.0090205708271611       -1.0090204809451309       -8.9882030263055412E-008 F
     orb,it,eci,eold,eci-eold=                    2                   24  -1.0090225295661848       -1.0090205708271611       -1.9587390236441848E-006 F
     orb,it,eci,eold,eci-eold=                    2                   25  -1.0090321622235709       -1.0090225295661848       -9.6326573861826859E-006 F
     orb,it,eci,eold,eci-eold=                    2                   26  -1.0090387327044350       -1.0090321622235709       -6.5704808640543177E-006 F
     orb,it,eci,eold,eci-eold=                    2                   27  -1.0090449492736147       -1.0090387327044350       -6.2165691796511879E-006 F
     orb,it,eci,eold,eci-eold=                    2                   28  -1.0090484528588286       -1.0090449492736147       -3.5035852139486678E-006 F
     orb,it,eci,eold,eci-eold=                    2                   29  -1.0090554677531007       -1.0090484528588286       -7.0148942721282026E-006 F
     orb,it,eci,eold,eci-eold=                    2                   30  -1.0090589795691749       -1.0090554677531007       -3.5118160741642868E-006 F
     orb,it,eci,eold,eci-eold=                    2                   31  -1.0090617008449914       -1.0090589795691749       -2.7212758164640860E-006 F
     orb,it,eci,eold,eci-eold=                    2                   32  -1.0090630870313402       -1.0090617008449914       -1.3861863488173753E-006 F
     orb,it,eci,eold,eci-eold=                    2                   33  -1.0090660946170882       -1.0090630870313402       -3.0075857480049706E-006 F
     orb,it,eci,eold,eci-eold=                    2                   34  -1.0090678985203301       -1.0090660946170882       -1.8039032418926126E-006 F
     orb,it,eci,eold,eci-eold=                    2                   35  -1.0090699079114018       -1.0090678985203301       -2.0093910717555730E-006 F
     orb,it,eci,eold,eci-eold=                    2                   36  -1.0090709792828680       -1.0090699079114018       -1.0713714662102802E-006 F
     orb,it,eci,eold,eci-eold=                    2                   37  -1.0090724993295148       -1.0090709792828680       -1.5200466467746310E-006 F
     orb,it,eci,eold,eci-eold=                    2                   38  -1.0090732828821569       -1.0090724993295148       -7.8355264210294706E-007 F
     orb,it,eci,eold,eci-eold=                    2                   39  -1.0090744329959924       -1.0090732828821569       -1.1501138355018981E-006 F
     orb,it,eci,eold,eci-eold=                    2                   40  -1.0090750937874065       -1.0090744329959924       -6.6079141403108110E-007 F
     orb,it,eci,eold,eci-eold=                    2                   41  -1.0090758171067380       -1.0090750937874065       -7.2331933154146100E-007 F
     orb,it,eci,eold,eci-eold=                    2                   42  -1.0090761737809304       -1.0090758171067380       -3.5667419240326126E-007 F
     orb,it,eci,eold,eci-eold=                    2                   43  -1.0090768146779681       -1.0090761737809304       -6.4089703766256889E-007 F
     orb,it,eci,eold,eci-eold=                    2                   44  -1.0090771918221013       -1.0090768146779681       -3.7714413325673490E-007 F
     orb,it,eci,eold,eci-eold=                    2                   45  -1.0090775717638694       -1.0090771918221013       -3.7994176804723168E-007 F
     orb,it,eci,eold,eci-eold=                    2                   46  -1.0090777482020123       -1.0090775717638694       -1.7643814298473615E-007 F
     orb,it,eci,eold,eci-eold=                    2                   47  -1.0090780589308508       -1.0090777482020123       -3.1072883843741295E-007 F
     orb,it,eci,eold,eci-eold=                    2                   48  -1.0090780606686316       -1.0090780589308508       -1.7377808081420199E-009 F
     orb,it,eci,eold,eci-eold=                    2                   49  -1.0090780907648020       -1.0090780606686316       -3.0096170444693371E-008 F
     orb,it,eci,eold,eci-eold=                    2                   50  -1.0090783049842789       -1.0090780907648020       -2.1421947682398468E-007 F
     orb,it,eci,eold,eci-eold=                    2                   51  -1.0090783138595283       -1.0090783049842789       -8.8752494242783087E-009 F
     orb,it,eci,eold,eci-eold=                    2                   52  -1.0090783284339662       -1.0090783138595283       -1.4574437878778213E-008 F
     orb,it,eci,eold,eci-eold=                    2                   53  -1.0090785874504906       -1.0090783284339662       -2.5901652445092793E-007 F
     orb,it,eci,eold,eci-eold=                    2                   54  -1.0090786572056210       -1.0090785874504906       -6.9755130338577942E-008 F
     orb,it,eci,eold,eci-eold=                    2                   55  -1.0090786750795846       -1.0090786572056210       -1.7873963642500712E-008 F
     orb,it,eci,eold,eci-eold=                    2                   56  -1.0090788529347234       -1.0090786750795846       -1.7785513883872284E-007 F
     orb,it,eci,eold,eci-eold=                    2                   57  -1.0090789463569898       -1.0090788529347234       -9.3422266367326756E-008 F
     orb,it,eci,eold,eci-eold=                    2                   58  -1.0090790329951973       -1.0090789463569898       -8.6638207497102826E-008 F
     orb,it,eci,eold,eci-eold=                    2                   59  -1.0090790780453287       -1.0090790329951973       -4.5050131403101545E-008 F
     orb,it,eci,eold,eci-eold=                    2                   60  -1.0090791556509577       -1.0090790780453287       -7.7605629034138701E-008 F
     orb,it,eci,eold,eci-eold=                    2                   61  -1.0090792001117019       -1.0090791556509577       -4.4460744197394320E-008 F
     orb,it,eci,eold,eci-eold=                    2                   62  -1.0090792538540747       -1.0090792001117019       -5.3742372774223668E-008 F
     orb,it,eci,eold,eci-eold=                    2                   63  -1.0090792818660659       -1.0090792538540747       -2.8011991171084105E-008 F
     orb,it,eci,eold,eci-eold=                    2                   64  -1.0090793239723310       -1.0090792818660659       -4.2106265141228505E-008 F
     orb,it,eci,eold,eci-eold=                    2                   65  -1.0090793492285637       -1.0090793239723310       -2.5256232660808564E-008 F
     orb,it,eci,eold,eci-eold=                    2                   66  -1.0090793864198027       -1.0090793492285637       -3.7191238977385410E-008 F
     orb,it,eci,eold,eci-eold=                    2                   67  -1.0090794065135711       -1.0090793864198027       -2.0093768426932002E-008 F
     orb,it,eci,eold,eci-eold=                    2                   68  -1.0090794304214259       -1.0090794065135711       -2.3907854806992646E-008 F
     orb,it,eci,eold,eci-eold=                    2                   69  -1.0090794422742033       -1.0090794304214259       -1.1852777426213379E-008 F
     orb,it,eci,eold,eci-eold=                    2                   70  -1.0090794612089293       -1.0090794422742033       -1.8934726009334213E-008 F
     orb,it,eci,eold,eci-eold=                    2                   71  -1.0090794724274987       -1.0090794612089293       -1.1218569406779011E-008 F
     orb,it,eci,eold,eci-eold=                    2                   72  -1.0090794861702901       -1.0090794724274987       -1.3742791349358185E-008 F
     orb,it,eci,eold,eci-eold=                    2                   73  -1.0090794929790547       -1.0090794861702901       -6.8087646631909138E-009 F
     orb,it,eci,eold,eci-eold=                    2                   74  -1.0090795027596622       -1.0090794929790547       -9.7806074350614836E-009 F
     orb,it,eci,eold,eci-eold=                    2                   75  -1.0090795084496627       -1.0090795027596622       -5.6900004707927110E-009 F
     orb,it,eci,eold,eci-eold=                    2                   76  -1.0090795166260231       -1.0090795084496627       -8.1763604775630938E-009 F
     orb,it,eci,eold,eci-eold=                    2                   77  -1.0090795209293577       -1.0090795166260231       -4.3033345775711496E-009 F
     orb,it,eci,eold,eci-eold=                    2                   78  -1.0090795257824983       -1.0090795209293577       -4.8531405560936491E-009 F
     orb,it,eci,eold,eci-eold=                    2                   79  -1.0090795281810312       -1.0090795257824983       -2.3985329278275458E-009 F
     orb,it,eci,eold,eci-eold=                    2                   80  -1.0090795324112172       -1.0090795281810312       -4.2301859792814867E-009 F
     orb,it,eci,eold,eci-eold=                    2                   81  -1.0090795329700659       -1.0090795324112172       -5.5884874505807147E-010 F
     orbital   2 current e=  0.609917E+00 error=0.473E+00 (eci= -0.100907953E+01 error=0.559E-09) iterations  81(   0 preconditioned, Ep,Sp= 20.0  200.0)
     orb,it,eci,eold,eci-eold=                    2                    1  -1.0090795440641922       -1.0090795329700659       -1.1094126284305617E-008 F
     orb,it,eci,eold,eci-eold=                    2                    2  -1.0090795468951570       -1.0090795440641922       -2.8309647959190443E-009 F
     orb,it,eci,eold,eci-eold=                    2                    3  -1.0090795468951570       -1.0090795468951570        0.0000000000000000      F
     orbital   2 current e=  0.609903E+00 error=0.143E-04 (eci= -0.100907955E+01 error=0.000E+00) iterations   3(   0 preconditioned, Ep,Sp= 20.0  200.0)
     orb,it,eci,eold,eci-eold=                    2                    1  -1.0090795476286676       -1.0090795464595324       -1.1691352330700511E-009 F
     orb,it,eci,eold,eci-eold=                    2                    2  -1.0090795476286676       -1.0090795476286676        0.0000000000000000      F
     orbital   2 current e=  0.609896E+00 error=0.631E-05 (eci= -0.100907955E+01 error=0.000E+00) iterations   2(   0 preconditioned, Ep,Sp= 20.0  200.0)
     orb,it,eci,eold,eci-eold=                    3                    1  -1.0081572734164024       -1.0078609655496416       -2.9630786676082543E-004 F
     orb,it,eci,eold,eci-eold=                    3                    2  -1.0081683450651615       -1.0081572734164024       -1.1071648759131136E-005 F
     orb,it,eci,eold,eci-eold=                    3                    3  -1.0082373284009478       -1.0081683450651615       -6.8983335786310107E-005 F
     orb,it,eci,eold,eci-eold=                    3                    4  -1.0082400257671962       -1.0082373284009478       -2.6973662483609218E-006 F
     orb,it,eci,eold,eci-eold=                    3                    5  -1.0082500905381866       -1.0082400257671962       -1.0064770990414473E-005 F
     orb,it,eci,eold,eci-eold=                    3                    6  -1.0083017912017198       -1.0082500905381866       -5.1700663533216229E-005 F
     orb,it,eci,eold,eci-eold=                    3                    7  -1.0083225676687455       -1.0083017912017198       -2.0776467025696022E-005 F
     orb,it,eci,eold,eci-eold=                    3                    8  -1.0083425828594113       -1.0083225676687455       -2.0015190665745308E-005 F
     orb,it,eci,eold,eci-eold=                    3                    9  -1.0083821089127225       -1.0083425828594113       -3.9526053311256248E-005 F
     orb,it,eci,eold,eci-eold=                    3                   10  -1.0083925578477655       -1.0083821089127225       -1.0448935042983720E-005 F
     orb,it,eci,eold,eci-eold=                    3                   11  -1.0084045947649898       -1.0083925578477655       -1.2036917224289567E-005 F
     orb,it,eci,eold,eci-eold=                    3                   12  -1.0084325013038669       -1.0084045947649898       -2.7906538877076059E-005 F
     orb,it,eci,eold,eci-eold=                    3                   13  -1.0084398268348953       -1.0084325013038669       -7.3255310284459085E-006 F
     orb,it,eci,eold,eci-eold=                    3                   14  -1.0084481243006442       -1.0084398268348953       -8.2974657489298664E-006 F
     orb,it,eci,eold,eci-eold=                    3                   15  -1.0084684555438148       -1.0084481243006442       -2.0331243170579327E-005 F
     orb,it,eci,eold,eci-eold=                    3                   16  -1.0084730340816228       -1.0084684555438148       -4.5785378079976624E-006 F
     orb,it,eci,eold,eci-eold=                    3                   17  -1.0084783807697892       -1.0084730340816228       -5.3466881664299137E-006 F
     orb,it,eci,eold,eci-eold=                    3                   18  -1.0084932390214072       -1.0084783807697892       -1.4858251617955176E-005 F
     orb,it,eci,eold,eci-eold=                    3                   19  -1.0084961283369185       -1.0084932390214072       -2.8893155112896807E-006 F
     orb,it,eci,eold,eci-eold=                    3                   20  -1.0084991317393195       -1.0084961283369185       -3.0034024010028304E-006 F
     orb,it,eci,eold,eci-eold=                    3                   21  -1.0085097304149837       -1.0084991317393195       -1.0598675664219570E-005 F
     orb,it,eci,eold,eci-eold=                    3                   22  -1.0085120503998117       -1.0085097304149837       -2.3199848280253121E-006 F
     orb,it,eci,eold,eci-eold=                    3                   23  -1.0085137857924409       -1.0085120503998117       -1.7353926291541200E-006 F
     orb,it,eci,eold,eci-eold=                    3                   24  -1.0085211439286967       -1.0085137857924409       -7.3581362558527985E-006 F
     orb,it,eci,eold,eci-eold=                    3                   25  -1.0085232133035120       -1.0085211439286967       -2.0693748152833535E-006 F
     orb,it,eci,eold,eci-eold=                    3                   26  -1.0085244148866401       -1.0085232133035120       -1.2015831281075862E-006 F
     orb,it,eci,eold,eci-eold=                    3                   27  -1.0085293980682248       -1.0085244148866401       -4.9831815847056760E-006 F
     orb,it,eci,eold,eci-eold=                    3                   28  -1.0085310633650273       -1.0085293980682248       -1.6652968024555292E-006 F
     orb,it,eci,eold,eci-eold=                    3                   29  -1.0085320251546135       -1.0085310633650273       -9.6178958619574928E-007 F
     orb,it,eci,eold,eci-eold=                    3                   30  -1.0085354161639737       -1.0085320251546135       -3.3910093601985380E-006 F
     orb,it,eci,eold,eci-eold=                    3                   31  -1.0085365891845990       -1.0085354161639737       -1.1730206253002251E-006 F
     orb,it,eci,eold,eci-eold=                    3                   32  -1.0085373419943968       -1.0085365891845990       -7.5280979783265423E-007 F
     orb,it,eci,eold,eci-eold=                    3                   33  -1.0085396523548444       -1.0085373419943968       -2.3103604476215622E-006 F
     orb,it,eci,eold,eci-eold=                    3                   34  -1.0085404183990763       -1.0085396523548444       -7.6604423182580206E-007 F
     orb,it,eci,eold,eci-eold=                    3                   35  -1.0085409892907118       -1.0085404183990763       -5.7089163552070943E-007 F
     orb,it,eci,eold,eci-eold=                    3                   36  -1.0085425758191182       -1.0085409892907118       -1.5865284064275897E-006 F
     orb,it,eci,eold,eci-eold=                    3                   37  -1.0085430144644714       -1.0085425758191182       -4.3864535315130126E-007 F
     orb,it,eci,eold,eci-eold=                    3                   38  -1.0085434184913427       -1.0085430144644714       -4.0402687129237336E-007 F
     orb,it,eci,eold,eci-eold=                    3                   39  -1.0085445844545948       -1.0085434184913427       -1.1659632521698882E-006 F
     orb,it,eci,eold,eci-eold=                    3                   40  -1.0085447886149896       -1.0085445844545948       -2.0416039481219173E-007 F
     orb,it,eci,eold,eci-eold=                    3                   41  -1.0085449966913229       -1.0085447886149896       -2.0807633327457609E-007 F
     orb,it,eci,eold,eci-eold=                    3                   42  -1.0085459321162027       -1.0085449966913229       -9.3542487977771316E-007 F
     orb,it,eci,eold,eci-eold=                    3                   43  -1.0085461014856110       -1.0085459321162027       -1.6936940827605440E-007 F
     orb,it,eci,eold,eci-eold=                    3                   44  -1.0085461517844789       -1.0085461014856110       -5.0298867959597260E-008 F
     orb,it,eci,eold,eci-eold=                    3                   45  -1.0085468382925145       -1.0085461517844789       -6.8650803553005346E-007 F
     orb,it,eci,eold,eci-eold=                    3                   46  -1.0085471342064742       -1.0085468382925145       -2.9591395978023627E-007 F
     orb,it,eci,eold,eci-eold=                    3                   47  -1.0085472066809478       -1.0085471342064742       -7.2474473533645778E-008 F
     orb,it,eci,eold,eci-eold=                    3                   48  -1.0085476822505206       -1.0085472066809478       -4.7556957283312329E-007 F
     orb,it,eci,eold,eci-eold=                    3                   49  -1.0085478984868137       -1.0085476822505206       -2.1623629309353021E-007 F
     orb,it,eci,eold,eci-eold=                    3                   50  -1.0085479964598358       -1.0085478984868137       -9.7973022139541399E-008 F
     orb,it,eci,eold,eci-eold=                    3                   51  -1.0085483713521373       -1.0085479964598358       -3.7489230142462304E-007 F
     orb,it,eci,eold,eci-eold=                    3                   52  -1.0085484630451025       -1.0085483713521373       -9.1692965220602218E-008 F
     orb,it,eci,eold,eci-eold=                    3                   53  -1.0085485059204300       -1.0085484630451025       -4.2875327510571992E-008 F
     orb,it,eci,eold,eci-eold=                    3                   54  -1.0085488046724915       -1.0085485059204300       -2.9875206153384681E-007 F
     orb,it,eci,eold,eci-eold=                    3                   55  -1.0085489091269904       -1.0085488046724915       -1.0445449882823254E-007 F
     orb,it,eci,eold,eci-eold=                    3                   56  -1.0085489364917712       -1.0085489091269904       -2.7364780885719142E-008 F
     orb,it,eci,eold,eci-eold=                    3                   57  -1.0085491590532367       -1.0085489364917712       -2.2256146547938727E-007 F
     orb,it,eci,eold,eci-eold=                    3                   58  -1.0085492593870971       -1.0085491590532367       -1.0033386033114766E-007 F
     orb,it,eci,eold,eci-eold=                    3                   59  -1.0085492917745222       -1.0085492593870971       -3.2387425186186647E-008 F
     orb,it,eci,eold,eci-eold=                    3                   60  -1.0085494515564060       -1.0085492917745222       -1.5978188372400837E-007 F
     orb,it,eci,eold,eci-eold=                    3                   61  -1.0085494975561362       -1.0085494515564060       -4.5999730247103798E-008 F
     orb,it,eci,eold,eci-eold=                    3                   62  -1.0085495169594987       -1.0085494975561362       -1.9403362472303343E-008 F
     orb,it,eci,eold,eci-eold=                    3                   63  -1.0085496526157933       -1.0085495169594987       -1.3565629464196149E-007 F
     orb,it,eci,eold,eci-eold=                    3                   64  -1.0085496989051954       -1.0085496526157933       -4.6289402089172427E-008 F
     orb,it,eci,eold,eci-eold=                    3                   65  -1.0085497076538195       -1.0085496989051954       -8.7486240474277110E-009 F
     orb,it,eci,eold,eci-eold=                    3                   66  -1.0085498053781139       -1.0085497076538195       -9.7724294434442527E-008 F
     orb,it,eci,eold,eci-eold=                    3                   67  -1.0085498578735432       -1.0085498053781139       -5.2495429336829602E-008 F
     orb,it,eci,eold,eci-eold=                    3                   68  -1.0085498766584451       -1.0085498578735432       -1.8784901856250258E-008 F
     orb,it,eci,eold,eci-eold=                    3                   69  -1.0085499503198747       -1.0085498766584451       -7.3661429622617902E-008 F
     orb,it,eci,eold,eci-eold=                    3                   70  -1.0085499680960066       -1.0085499503198747       -1.7776131899793768E-008 F
     orb,it,eci,eold,eci-eold=                    3                   71  -1.0085499768193766       -1.0085499680960066       -8.7233700263311675E-009 F
     orb,it,eci,eold,eci-eold=                    3                   72  -1.0085500430379051       -1.0085499768193766       -6.6218528438355406E-008 F
     orb,it,eci,eold,eci-eold=                    3                   73  -1.0085500622982542       -1.0085500430379051       -1.9260349093386253E-008 F
     orb,it,eci,eold,eci-eold=                    3                   74  -1.0085500622982542       -1.0085500622982542        0.0000000000000000      F
     orbital   3 current e=  0.569128E+00 error=0.275E+00 (eci= -0.100855006E+01 error=0.000E+00) iterations  74(   0 preconditioned, Ep,Sp= 20.0  200.0)
     orb,it,eci,eold,eci-eold=                    3                    1  -1.0085502074647903       -1.0085500621488799       -1.4531591041588854E-007 F
     orb,it,eci,eold,eci-eold=                    3                    2  -1.0085502286296086       -1.0085502074647903       -2.1164818342356284E-008 F
     orb,it,eci,eold,eci-eold=                    3                    3  -1.0085502546572553       -1.0085502286296086       -2.6027646704562812E-008 F
     orb,it,eci,eold,eci-eold=                    3                    4  -1.0085503138838270       -1.0085502546572553       -5.9226571647030823E-008 F
     orb,it,eci,eold,eci-eold=                    3                    5  -1.0085503252134360       -1.0085503138838270       -1.1329609028720711E-008 F
     orb,it,eci,eold,eci-eold=                    3                    6  -1.0085503278121526       -1.0085503252134360       -2.5987165752638930E-009 F
     orb,it,eci,eold,eci-eold=                    3                    7  -1.0085503439954249       -1.0085503278121526       -1.6183272277814353E-008 F
     orb,it,eci,eold,eci-eold=                    3                    8  -1.0085503468173460       -1.0085503439954249       -2.8219211412050527E-009 F
     orb,it,eci,eold,eci-eold=                    3                    9  -1.0085503553383186       -1.0085503468173460       -8.5209725941837178E-009 F
     orb,it,eci,eold,eci-eold=                    3                   10  -1.0085503672128320       -1.0085503553383186       -1.1874513372589490E-008 F
     orb,it,eci,eold,eci-eold=                    3                   11  -1.0085503731617955       -1.0085503672128320       -5.9489635440002075E-009 F
     orb,it,eci,eold,eci-eold=                    3                   12  -1.0085503778986442       -1.0085503731617955       -4.7368486910670526E-009 F
     orb,it,eci,eold,eci-eold=                    3                   13  -1.0085503805611640       -1.0085503778986442       -2.6625197602214712E-009 F
     orb,it,eci,eold,eci-eold=                    3                   14  -1.0085503841837076       -1.0085503805611640       -3.6225435984249543E-009 F
     orb,it,eci,eold,eci-eold=                    3                   15  -1.0085503841837076       -1.0085503841837076        0.0000000000000000      F
     orbital   3 current e=  0.568388E+00 error=0.741E-03 (eci= -0.100855038E+01 error=0.000E+00) iterations  15(   0 preconditioned, Ep,Sp= 20.0  200.0)
     orb,it,eci,eold,eci-eold=                    3                    1  -1.0085503861992360       -1.0085503832305676       -2.9686684221985615E-009 F
     orb,it,eci,eold,eci-eold=                    3                    2  -1.0085503879816913       -1.0085503861992360       -1.7824552944745164E-009 F
     orb,it,eci,eold,eci-eold=                    3                    3  -1.0085503904036810       -1.0085503879816913       -2.4219897198918261E-009 F
     orb,it,eci,eold,eci-eold=                    3                    4  -1.0085503904036810       -1.0085503904036810        0.0000000000000000      F
     orbital   3 current e=  0.568397E+00 error=0.914E-05 (eci= -0.100855039E+01 error=0.000E+00) iterations   4(   0 preconditioned, Ep,Sp= 20.0  200.0)
     orb,it,eci,eold,eci-eold=                    4                    1  -1.0081574667794957       -1.0078616342479760       -2.9583253151965749E-004 F
     orb,it,eci,eold,eci-eold=                    4                    2  -1.0081679676389614       -1.0081574667794957       -1.0500859465745194E-005 F
     orb,it,eci,eold,eci-eold=                    4                    3  -1.0082366911119593       -1.0081679676389614       -6.8723472997911372E-005 F
     orb,it,eci,eold,eci-eold=                    4                    4  -1.0082406632695946       -1.0082366911119593       -3.9721576352569343E-006 F
     orb,it,eci,eold,eci-eold=                    4                    5  -1.0082511607439002       -1.0082406632695946       -1.0497474305593002E-005 F
     orb,it,eci,eold,eci-eold=                    4                    6  -1.0083027469523385       -1.0082511607439002       -5.1586208438259007E-005 F
     orb,it,eci,eold,eci-eold=                    4                    7  -1.0083232891522258       -1.0083027469523385       -2.0542199887341184E-005 F
     orb,it,eci,eold,eci-eold=                    4                    8  -1.0083432406544122       -1.0083232891522258       -1.9951502186366099E-005 F
     orb,it,eci,eold,eci-eold=                    4                    9  -1.0083826617451845       -1.0083432406544122       -3.9421090772373546E-005 F
     orb,it,eci,eold,eci-eold=                    4                   10  -1.0083930718933047       -1.0083826617451845       -1.0410148120199025E-005 F
     orb,it,eci,eold,eci-eold=                    4                   11  -1.0084051456931857       -1.0083930718933047       -1.2073799880996106E-005 F
     orb,it,eci,eold,eci-eold=                    4                   12  -1.0084331833771165       -1.0084051456931857       -2.8037683930781654E-005 F
     orb,it,eci,eold,eci-eold=                    4                   13  -1.0084403395797796       -1.0084331833771165       -7.1562026631166731E-006 F
     orb,it,eci,eold,eci-eold=                    4                   14  -1.0084485031164934       -1.0084403395797796       -8.1635367137344872E-006 F
     orb,it,eci,eold,eci-eold=                    4                   15  -1.0084688580146222       -1.0084485031164934       -2.0354898128793764E-005 F
     orb,it,eci,eold,eci-eold=                    4                   16  -1.0084734649852132       -1.0084688580146222       -4.6069705910145586E-006 F
     orb,it,eci,eold,eci-eold=                    4                   17  -1.0084788155355831       -1.0084734649852132       -5.3505503698758616E-006 F
     orb,it,eci,eold,eci-eold=                    4                   18  -1.0084935739200154       -1.0084788155355831       -1.4758384432322913E-005 F
     orb,it,eci,eold,eci-eold=                    4                   19  -1.0084963954053083       -1.0084935739200154       -2.8214852929586698E-006 F
     orb,it,eci,eold,eci-eold=                    4                   20  -1.0084994499854218       -1.0084963954053083       -3.0545801135151152E-006 F
     orb,it,eci,eold,eci-eold=                    4                   21  -1.0085099866243956       -1.0084994499854218       -1.0536638973768220E-005 F
     orb,it,eci,eold,eci-eold=                    4                   22  -1.0085121810325424       -1.0085099866243956       -2.1944081467495380E-006 F
     orb,it,eci,eold,eci-eold=                    4                   23  -1.0085138989388756       -1.0085121810325424       -1.7179063331873579E-006 F
     orb,it,eci,eold,eci-eold=                    4                   24  -1.0085212777925301       -1.0085138989388756       -7.3788536545382755E-006 F
     orb,it,eci,eold,eci-eold=                    4                   25  -1.0085233129715241       -1.0085212777925301       -2.0351789939976328E-006 F
     orb,it,eci,eold,eci-eold=                    4                   26  -1.0085244644354749       -1.0085233129715241       -1.1514639508547475E-006 F
     orb,it,eci,eold,eci-eold=                    4                   27  -1.0085294639562044       -1.0085244644354749       -4.9995207294095678E-006 F
     orb,it,eci,eold,eci-eold=                    4                   28  -1.0085311556478433       -1.0085294639562044       -1.6916916389941861E-006 F
     orb,it,eci,eold,eci-eold=                    4                   29  -1.0085320927062948       -1.0085311556478433       -9.3705845150005018E-007 F
     orb,it,eci,eold,eci-eold=                    4                   30  -1.0085354778109918       -1.0085320927062948       -3.3851046969957110E-006 F
     orb,it,eci,eold,eci-eold=                    4                   31  -1.0085366755463703       -1.0085354778109918       -1.1977353784331513E-006 F
     orb,it,eci,eold,eci-eold=                    4                   32  -1.0085374273845504       -1.0085366755463703       -7.5183818015744919E-007 F
     orb,it,eci,eold,eci-eold=                    4                   33  -1.0085397213317688       -1.0085374273845504       -2.2939472184013709E-006 F
     orb,it,eci,eold,eci-eold=                    4                   34  -1.0085404908255433       -1.0085397213317688       -7.6949377447732559E-007 F
     orb,it,eci,eold,eci-eold=                    4                   35  -1.0085410657836400       -1.0085404908255433       -5.7495809668850484E-007 F
     orb,it,eci,eold,eci-eold=                    4                   36  -1.0085426385887926       -1.0085410657836400       -1.5728051525609743E-006 F
     orb,it,eci,eold,eci-eold=                    4                   37  -1.0085430750683875       -1.0085426385887926       -4.3647959491188715E-007 F
     orb,it,eci,eold,eci-eold=                    4                   38  -1.0085434818831451       -1.0085430750683875       -4.0681475765858011E-007 F
     orb,it,eci,eold,eci-eold=                    4                   39  -1.0085446335950752       -1.0085434818831451       -1.1517119300474832E-006 F
     orb,it,eci,eold,eci-eold=                    4                   40  -1.0085448385763345       -1.0085446335950752       -2.0498125929968580E-007 F
     orb,it,eci,eold,eci-eold=                    4                   41  -1.0085450537454332       -1.0085448385763345       -2.1516909876062584E-007 F
     orb,it,eci,eold,eci-eold=                    4                   42  -1.0085459768246010       -1.0085450537454332       -9.2307916776945831E-007 F
     orb,it,eci,eold,eci-eold=                    4                   43  -1.0085461365365334       -1.0085459768246010       -1.5971193234598502E-007 F
     orb,it,eci,eold,eci-eold=                    4                   44  -1.0085461907509261       -1.0085461365365334       -5.4214392752882645E-008 F
     orb,it,eci,eold,eci-eold=                    4                   45  -1.0085468751385531       -1.0085461907509261       -6.8438762701461542E-007 F
     orb,it,eci,eold,eci-eold=                    4                   46  -1.0085471574519174       -1.0085468751385531       -2.8231336424155984E-007 F
     orb,it,eci,eold,eci-eold=                    4                   47  -1.0085472230520938       -1.0085471574519174       -6.5600176402114130E-008 F
     orb,it,eci,eold,eci-eold=                    4                   48  -1.0085476975000809       -1.0085472230520938       -4.7444798711993030E-007 F
     orb,it,eci,eold,eci-eold=                    4                   49  -1.0085479201567373       -1.0085476975000809       -2.2265665644560784E-007 F
     orb,it,eci,eold,eci-eold=                    4                   50  -1.0085480168483909       -1.0085479201567373       -9.6691653572733571E-008 F
     orb,it,eci,eold,eci-eold=                    4                   51  -1.0085483861744220       -1.0085480168483909       -3.6932603109107731E-007 F
     orb,it,eci,eold,eci-eold=                    4                   52  -1.0085484797233630       -1.0085483861744220       -9.3548941038079647E-008 F
     orb,it,eci,eold,eci-eold=                    4                   53  -1.0085485250981387       -1.0085484797233630       -4.5374775714535076E-008 F
     orb,it,eci,eold,eci-eold=                    4                   54  -1.0085488217229979       -1.0085485250981387       -2.9662485911963188E-007 F
     orb,it,eci,eold,eci-eold=                    4                   55  -1.0085489217327499       -1.0085488217229979       -1.0000975203539042E-007 F
     orb,it,eci,eold,eci-eold=                    4                   56  -1.0085489483086583       -1.0085489217327499       -2.6575908362858058E-008 F
     orb,it,eci,eold,eci-eold=                    4                   57  -1.0085491698628157       -1.0085489483086583       -2.2155415746460960E-007 F
     orb,it,eci,eold,eci-eold=                    4                   58  -1.0085492691637898       -1.0085491698628157       -9.9300974110150264E-008 F
     orb,it,eci,eold,eci-eold=                    4                   59  -1.0085493001415977       -1.0085492691637898       -3.0977807874421615E-008 F
     orb,it,eci,eold,eci-eold=                    4                   60  -1.0085494578258869       -1.0085493001415977       -1.5768428918150335E-007 F
     orb,it,eci,eold,eci-eold=                    4                   61  -1.0085495055265321       -1.0085494578258869       -4.7700645211534720E-008 F
     orb,it,eci,eold,eci-eold=                    4                   62  -1.0085495259518089       -1.0085495055265321       -2.0425276803237580E-008 F
     orb,it,eci,eold,eci-eold=                    4                   63  -1.0085496600919348       -1.0085495259518089       -1.3414012589585411E-007 F
     orb,it,eci,eold,eci-eold=                    4                   64  -1.0085497042965630       -1.0085496600919348       -4.4204628180111172E-008 F
     orb,it,eci,eold,eci-eold=                    4                   65  -1.0085497129259000       -1.0085497042965630       -8.6293370227252808E-009 F
     orb,it,eci,eold,eci-eold=                    4                   66  -1.0085498103563850       -1.0085497129259000       -9.7430485013205725E-008 F
     orb,it,eci,eold,eci-eold=                    4                   67  -1.0085498619283417       -1.0085498103563850       -5.1571956705132038E-008 F
     orb,it,eci,eold,eci-eold=                    4                   68  -1.0085498797930958       -1.0085498619283417       -1.7864754120466841E-008 F
     orb,it,eci,eold,eci-eold=                    4                   69  -1.0085499529425035       -1.0085498797930958       -7.3149407642247866E-008 F
     orb,it,eci,eold,eci-eold=                    4                   70  -1.0085499717148163       -1.0085499529425035       -1.8772312815329428E-008 F
     orb,it,eci,eold,eci-eold=                    4                   71  -1.0085499805196725       -1.0085499717148163       -8.8048561774911605E-009 F
     orb,it,eci,eold,eci-eold=                    4                   72  -1.0085500457712722       -1.0085499805196725       -6.5251599679072569E-008 F
     orb,it,eci,eold,eci-eold=                    4                   73  -1.0085500649705068       -1.0085500457712722       -1.9199234646549712E-008 F
     orb,it,eci,eold,eci-eold=                    4                   74  -1.0085500652311048       -1.0085500649705068       -2.6059798763355957E-010 F
     orbital   4 current e=  0.569120E+00 error=0.275E+00 (eci= -0.100855007E+01 error=0.261E-09) iterations  74(   0 preconditioned, Ep,Sp= 20.0  200.0)
     orb,it,eci,eold,eci-eold=                    4                    1  -1.0085502082781965       -1.0085500652311048       -1.4304709172741070E-007 F
     orb,it,eci,eold,eci-eold=                    4                    2  -1.0085502289997259       -1.0085502082781965       -2.0721529381262371E-008 F
     orb,it,eci,eold,eci-eold=                    4                    3  -1.0085502557612729       -1.0085502289997259       -2.6761546978448791E-008 F
     orb,it,eci,eold,eci-eold=                    4                    4  -1.0085503147402686       -1.0085502557612729       -5.8978995687297697E-008 F
     orb,it,eci,eold,eci-eold=                    4                    5  -1.0085503254719059       -1.0085503147402686       -1.0731637356542478E-008 F
     orb,it,eci,eold,eci-eold=                    4                    6  -1.0085503277887009       -1.0085503254719059       -2.3167949780855679E-009 F
     orb,it,eci,eold,eci-eold=                    4                    7  -1.0085503445513675       -1.0085503277887009       -1.6762666588121533E-008 F
     orb,it,eci,eold,eci-eold=                    4                    8  -1.0085503474633368       -1.0085503445513675       -2.9119693323309548E-009 F
     orb,it,eci,eold,eci-eold=                    4                    9  -1.0085503555249500       -1.0085503474633368       -8.0616131548083558E-009 F
     orb,it,eci,eold,eci-eold=                    4                   10  -1.0085503676035585       -1.0085503555249500       -1.2078608557786197E-008 F
     orb,it,eci,eold,eci-eold=                    4                   11  -1.0085503736855626       -1.0085503676035585       -6.0820040115316942E-009 F
     orb,it,eci,eold,eci-eold=                    4                   12  -1.0085503782490000       -1.0085503736855626       -4.5634374057357263E-009 F
     orb,it,eci,eold,eci-eold=                    4                   13  -1.0085503807941834       -1.0085503782490000       -2.5451833973733073E-009 F
     orb,it,eci,eold,eci-eold=                    4                   14  -1.0085503843345802       -1.0085503807941834       -3.5403968645653094E-009 F
     orb,it,eci,eold,eci-eold=                    4                   15  -1.0085503843345802       -1.0085503843345802        0.0000000000000000      F
     orbital   4 current e=  0.568389E+00 error=0.731E-03 (eci= -0.100855038E+01 error=0.000E+00) iterations  15(   0 preconditioned, Ep,Sp= 20.0  200.0)
     orb,it,eci,eold,eci-eold=                    4                    1  -1.0085503862078355       -1.0085503833868437       -2.8209918845334414E-009 F
     orb,it,eci,eold,eci-eold=                    4                    2  -1.0085503878319111       -1.0085503862078355       -1.6240755407181950E-009 F
     orb,it,eci,eold,eci-eold=                    4                    3  -1.0085503905030371       -1.0085503878319111       -2.6711259870637605E-009 F
     orb,it,eci,eold,eci-eold=                    4                    4  -1.0085503905030371       -1.0085503905030371        0.0000000000000000      F
     orbital   4 current e=  0.568398E+00 error=0.847E-05 (eci= -0.100855039E+01 error=0.000E+00) iterations   4(   0 preconditioned, Ep,Sp= 20.0  200.0)
     orb,it,eci,eold,eci-eold=                    5                    1  -1.0061530828856795       -1.0058214294734868       -3.3165341219265621E-004 F
     orb,it,eci,eold,eci-eold=                    5                    2  -1.0062062639569964       -1.0061530828856795       -5.3181071316910078E-005 F
     orb,it,eci,eold,eci-eold=                    5                    3  -1.0062418064924421       -1.0062062639569964       -3.5542535445687307E-005 F
     orb,it,eci,eold,eci-eold=                    5                    4  -1.0062680193840958       -1.0062418064924421       -2.6212891653720760E-005 F
     orb,it,eci,eold,eci-eold=                    5                    5  -1.0062709749760157       -1.0062680193840958       -2.9555919198731573E-006 F
     orb,it,eci,eold,eci-eold=                    5                    6  -1.0062712026369791       -1.0062709749760157       -2.2766096341442221E-007 F
     orb,it,eci,eold,eci-eold=                    5                    7  -1.0063057628637142       -1.0062712026369791       -3.4560226735091959E-005 F
     orb,it,eci,eold,eci-eold=                    5                    8  -1.0063092989534699       -1.0063057628637142       -3.5360897556735438E-006 F
     orb,it,eci,eold,eci-eold=                    5                    9  -1.0063097295061130       -1.0063092989534699       -4.3055264309366237E-007 F
     orb,it,eci,eold,eci-eold=                    5                   10  -1.0063283019125442       -1.0063097295061130       -1.8572406431216493E-005 F
     orb,it,eci,eold,eci-eold=                    5                   11  -1.0063369184019695       -1.0063283019125442       -8.6164894252949153E-006 F
     orb,it,eci,eold,eci-eold=                    5                   12  -1.0063435223550177       -1.0063369184019695       -6.6039530481898367E-006 F
     orb,it,eci,eold,eci-eold=                    5                   13  -1.0063473737694890       -1.0063435223550177       -3.8514144713452936E-006 F
     orb,it,eci,eold,eci-eold=                    5                   14  -1.0063534888481942       -1.0063473737694890       -6.1150787051822419E-006 F
     orb,it,eci,eold,eci-eold=                    5                   15  -1.0063567129861897       -1.0063534888481942       -3.2241379954722760E-006 F
     orb,it,eci,eold,eci-eold=                    5                   16  -1.0063604524086422       -1.0063567129861897       -3.7394224525755249E-006 F
     orb,it,eci,eold,eci-eold=                    5                   17  -1.0063626705621120       -1.0063604524086422       -2.2181534697907068E-006 F
     orb,it,eci,eold,eci-eold=                    5                   18  -1.0063656977843014       -1.0063626705621120       -3.0272221893667961E-006 F
     orb,it,eci,eold,eci-eold=                    5                   19  -1.0063671061686315       -1.0063656977843014       -1.4083843300483068E-006 F
     orb,it,eci,eold,eci-eold=                    5                   20  -1.0063685795474020       -1.0063671061686315       -1.4733787705445422E-006 F
     orb,it,eci,eold,eci-eold=                    5                   21  -1.0063694740662044       -1.0063685795474020       -8.9451880236346426E-007 F
     orb,it,eci,eold,eci-eold=                    5                   22  -1.0063706480202190       -1.0063694740662044       -1.1739540146660232E-006 F
     orb,it,eci,eold,eci-eold=                    5                   23  -1.0063712153282012       -1.0063706480202190       -5.6730798214665867E-007 F
     orb,it,eci,eold,eci-eold=                    5                   24  -1.0063718484150830       -1.0063712153282012       -6.3308688180718775E-007 F
[...]
    8    5    8    8        0.0000000771
    8    5    9    8        0.0000000017
    8    5   10    8        0.0031029495
    8    5   11    8       -0.0056061171
    8    5    9    9        0.0000000719
    8    5   10    9       -0.0039654812
    8    5   11    9       -0.0030595920
    8    5   10   10        0.0000001989
    8    5   11   10       -0.0000000178
    8    5   11   11        0.0000002700
    9    5    9    5        0.0327552752
    9    5   10    5        0.0000000027
    9    5   11    5       -0.0000000008
    9    5    6    6       -0.0000004982
    9    5    7    6       -0.0104621281
    9    5    8    6       -0.0000003435
    9    5    9    6       -0.0000000648
    9    5   10    6        0.0000023569
    9    5   11    6        0.0000002274
    9    5    7    7        0.0000023612
    9    5    8    7       -0.0000000001
    9    5    9    7       -0.0000000001
    9    5   10    7        0.0002712561
    9    5   11    7        0.0000334738
    9    5    8    8        0.0000000369
    9    5    9    8        0.0000000032
    9    5   10    8        0.0008717862
    9    5   11    8       -0.0025953143
    9    5    9    9        0.0000000407
    9    5   10    9       -0.0023611243
    9    5   11    9       -0.0023224512
    9    5   10   10        0.0000000973
    9    5   11   10        0.0000000179
    9    5   11   11        0.0000001446
   10    5   10    5        0.0092231560
   10    5   11    5       -0.0059261951
   10    5    6    6        0.0077089220
   10    5    7    6        0.0000000083
   10    5    8    6        0.0000002577
   10    5    9    6        0.0000001325
   10    5   10    6       -0.0000824845
   10    5   11    6        0.0001147724
   10    5    7    7        0.0073545995
   10    5    8    7       -0.0000032774
   10    5    9    7       -0.0000021707
   10    5   10    7        0.0000002249
   10    5   11    7       -0.0000008092
   10    5    8    8        0.0082443053
   10    5    9    8       -0.0007911484
   10    5   10    8        0.0000000418
   10    5   11    8       -0.0000000080
   10    5    9    9        0.0053910548
   10    5   10    9        0.0000000146
   10    5   11    9        0.0000000108
   10    5   10   10        0.0101135116
   10    5   11   10       -0.0057941393
   10    5   11   11        0.0091130970
   11    5   11    5        0.0702781826
   11    5    6    6       -0.0805255145
   11    5    7    6       -0.0000000866
   11    5    8    6        0.0000000258
   11    5    9    6        0.0000000131
   11    5   10    6        0.0007627586
   11    5   11    6        0.0000809422
   11    5    7    7       -0.0768401983
   11    5    8    7        0.0000053903
   11    5    9    7       -0.0000013517
   11    5   10    7       -0.0000015599
   11    5   11    7       -0.0000002299
   11    5    8    8       -0.0721652908
   11    5    9    8       -0.0015964324
   11    5   10    8       -0.0000000243
   11    5   11    8        0.0000000712
   11    5    9    9       -0.0703046170
   11    5   10    9        0.0000000444
   11    5   11    9        0.0000000431
   11    5   10   10       -0.0943343781
   11    5   11   10        0.0006307647
   11    5   11   11       -0.1064201000
    6    6    6    6        0.5007367149
    6    6    7    6       -0.0000009693
    6    6    8    6        0.0000000002
    6    6    9    6        0.0000000001
    6    6   10    6       -0.0012103352
    6    6   11    6       -0.0001435669
    6    6    7    7        0.4455272112
    6    6    8    7       -0.0000000143
    6    6    9    7        0.0000000150
    6    6   10    7        0.0000016636
    6    6   11    7        0.0000001644
    6    6    8    8        0.4563283609
    6    6    9    8        0.0000000004
    6    6   10    8       -0.0000001124
    6    6   11    8        0.0000001776
    6    6    9    9        0.4563820097
    6    6   10    9        0.0000001765
    6    6   11    9        0.0000001158
    6    6   10   10        0.4317483986
    6    6   11   10        0.0000018069
    6    6   11   11        0.4317651823
    7    6    7    6        0.0285951676
    7    6    8    6        0.0000002434
    7    6    9    6        0.0000000445
    7    6   10    6       -0.0000017701
    7    6   11    6       -0.0000001704
    7    6    7    7       -0.0000032162
    7    6    8    7        0.0000000001
    7    6    9    7        0.0000000000
    7    6   10    7        0.0000631534
    7    6   11    7        0.0000048637
    7    6    8    8       -0.0000014354
    7    6    9    8        0.0000000000
    7    6   10    8       -0.0060150917
    7    6   11    8        0.0093352782
    7    6    9    9       -0.0000014359
    7    6   10    9        0.0093303606
    7    6   11    9        0.0060221178
    7    6   10   10       -0.0000009871
    7    6   11   10        0.0000000046
    7    6   11   11       -0.0000010308
    8    6    8    6        0.0181793906
    8    6    9    6        0.0000000000
    8    6   10    6       -0.0000000343
    8    6   11    6        0.0000000532
    8    6    7    7        0.0000000001
    8    6    8    7        0.0000001056
    8    6    9    7        0.0000000000
    8    6   10    7       -0.0046059026
    8    6   11    7        0.0071410402
    8    6    8    8        0.0000000002
    8    6    9    8       -0.0000000000
    8    6   10    8       -0.0001570895
    8    6   11    8       -0.0000338741
    8    6    9    9        0.0000000002
    8    6   10    9        0.0000184726
    8    6   11    9       -0.0000009889
    8    6   10   10       -0.0000000739
    8    6   11   10        0.0000000557
    8    6   11   11        0.0000000111
    9    6    9    6        0.0181900112
    9    6   10    6        0.0000000533
    9    6   11    6        0.0000000344
    9    6    7    7        0.0000000001
    9    6    8    7       -0.0000000000
    9    6    9    7        0.0000001053
    9    6   10    7        0.0071446589
    9    6   11    7        0.0046099827
    9    6    8    8        0.0000000001
    9    6    9    8       -0.0000000000
    9    6   10    8        0.0000184228
    9    6   11    8       -0.0000010147
    9    6    9    9        0.0000000001
    9    6   10    9       -0.0001854797
    9    6   11    9       -0.0000050766
    9    6   10   10        0.0000001141
    9    6   11   10        0.0000000444
    9    6   11   11        0.0000000078
   10    6   10    6        0.0157248625
   10    6   11    6        0.0000013133
   10    6    7    7       -0.0011687884
   10    6    8    7        0.0014877399
   10    6    9    7       -0.0023040902
   10    6   10    7        0.0000004821
   10    6   11    7        0.0000000053
   10    6    8    8       -0.0008996401
   10    6    9    8       -0.0000187429
   10    6   10    8        0.0000002580
   10    6   11    8       -0.0000001465
   10    6    9    9       -0.0008716181
   10    6   10    9       -0.0000004015
   10    6   11    9       -0.0000001279
   10    6   10   10       -0.0015856196
   10    6   11   10       -0.0000268618
   10    6   11   11       -0.0012073000
   11    6   11    6        0.0157181220
   11    6    7    7       -0.0001386014
   11    6    8    7       -0.0023083185
   11    6    9    7       -0.0014889257
   11    6   10    7        0.0000000040
   11    6   11    7        0.0000004390
   11    6    8    8       -0.0000912339
   11    6    9    8        0.0000010759
   11    6   10    8       -0.0000002368
   11    6   11    8       -0.0000000389
   11    6    9    9       -0.0001204445
   11    6   10    9       -0.0000001744
   11    6   11    9       -0.0000000244
   11    6   10   10       -0.0001281005
   11    6   11   10       -0.0003982833
   11    6   11   11       -0.0001626767
    7    7    7    7        0.4525749660
    7    7    8    7        0.0000000353
    7    7    9    7        0.0000000531
    7    7   10    7        0.0000022748
    7    7   11    7        0.0000002242
    7    7    8    8        0.4289160544
    7    7    9    8        0.0000000004
    7    7   10    8        0.0000006220
    7    7   11    8       -0.0000009636
    7    7    9    9        0.4289657242
    7    7   10    9       -0.0000009639
    7    7   11    9       -0.0000006207
    7    7   10   10        0.4153679083
    7    7   11   10        0.0000028128
    7    7   11   11        0.4153632818
    8    7    8    7        0.0195388843
    8    7    9    7       -0.0000000000
    8    7   10    7       -0.0000000214
    8    7   11    7        0.0000000332
    8    7    8    8        0.0000000410
    8    7    9    8        0.0000000084
    8    7   10    8        0.0000001687
    8    7   11    8        0.0000000156
    8    7    9    9        0.0000000382
    8    7   10    9        0.0000000044
    8    7   11    9       -0.0000000004
    8    7   10   10       -0.0002370895
    8    7   11   10        0.0002402259
    8    7   11   11        0.0000046994
    9    7    9    7        0.0195421297
    9    7   10    7        0.0000000321
    9    7   11    7        0.0000000208
    9    7    8    8        0.0000000478
    9    7    9    8        0.0000000012
    9    7   10    8        0.0000000044
    9    7   11    8       -0.0000000004
    9    7    9    9        0.0000000624
    9    7   10    9        0.0000001648
    9    7   11    9        0.0000000173
    9    7   10   10        0.0003352518
    9    7   11   10        0.0001915426
    9    7   11   11        0.0000528389
   10    7   10    7        0.0270556344
   10    7   11    7        0.0000010795
   10    7    8    8        0.0000018691
   10    7    9    8        0.0000000035
   10    7   10    8       -0.0001446662
   10    7   11    8        0.0004609587
   10    7    9    9        0.0000018656
   10    7   10    9        0.0001898991
   10    7   11    9        0.0002930390
   10    7   10   10        0.0000038115
   10    7   11   10        0.0000000474
   10    7   11   11        0.0000028608
   11    7   11    7        0.0270361186
   11    7    8    8        0.0000001828
   11    7    9    8       -0.0000000003
   11    7   10    8       -0.0001099082
   11    7   11    8       -0.0000146979
   11    7    9    9        0.0000001852
   11    7   10    9       -0.0000170399
   11    7   11    9        0.0000437310
   11    7   10   10        0.0000002792
   11    7   11   10        0.0000004927
   11    7   11   11        0.0000003713
    8    8    8    8        0.4819405265
    8    8    9    8       -0.0000001196
    8    8   10    8       -0.0000000288
    8    8   11    8        0.0000000474
    8    8    9    9        0.4409639572
    8    8   10    9        0.0000000391
    8    8   11    9        0.0000000268
    8    8   10   10        0.4169785566
    8    8   11   10       -0.0114862127
    8    8   11   11        0.4271856641
    9    8    9    8        0.0213454918
    9    8   10    8        0.0000000038
    9    8   11    8        0.0000000025
    9    8    9    9        0.0000001212
    9    8   10    9       -0.0000000027
    9    8   11    9        0.0000000043
    9    8   10   10       -0.0115100573
    9    8   11   10        0.0053136017
    9    8   11   11        0.0115191262
   10    8   10    8        0.0115028955
   10    8   11    8       -0.0103506930
   10    8    9    9       -0.0000000241
   10    8   10    9       -0.0103627270
   10    8   11    9       -0.0018693101
   10    8   10   10       -0.0000000281
   10    8   11   10        0.0000000115
   10    8   11   11        0.0000000001
   11    8   11    8        0.0208111443
   11    8    9    9        0.0000000400
   11    8   10    9        0.0113102560
   11    8   11    9        0.0103679430
   11    8   10   10        0.0000000310
   11    8   11   10        0.0000000029
   11    8   11   11        0.0000000043
    9    9    9    9        0.4820398438
    9    9   10    9        0.0000000471
    9    9   11    9        0.0000000322
    9    9   10   10        0.4271949374
    9    9   11   10        0.0114867156
    9    9   11   11        0.4170207639
   10    9   10    9        0.0208056905
   10    9   11    9        0.0103497393
   10    9   10   10        0.0000000442
   10    9   11   10        0.0000000127
   10    9   11   11        0.0000000067
   11    9   11    9        0.0114986907
   11    9   10   10        0.0000000242
   11    9   11   10        0.0000000038
   11    9   11   11        0.0000000054
   10   10   10   10        0.4725379448
   10   10   11   10       -0.0000001949
   10   10   11   11        0.4359067513
   11   10   11   10        0.0188956871
   11   10   11   11        0.0000060898
   11   11   11   11        0.4726023788
 end_two_electron_integrals


 output epsi filename:./pspw_hf_H2.emovecs

 Total PSPW energy     :  -0.1004261037E+01


=== Spin Contamination ===

 <Sexact^2> =    0.0000000000000000     
 <S^2>      =    0.0000000000000000     



== Center of Charge ==

spin up     (    0.0000,    0.0000,    0.0000 )
spin down   (    0.0000,    0.0000,    0.0000 )
     total  (    0.0000,    0.0000,    0.0000 )
ionic       (    0.0000,    0.0000,    0.0000 )


== Molecular Dipole wrt Center of Mass ==

mu   =  (   -0.0000,   -0.0000,   -0.0000 ) au
|mu| =     0.0000 au,       0.0000 Debye

 output psi filename:./pspw_hf_H2.movecs

 Writing Crystallographic Information File:./H2.cif
   - cell not shifted (nwpw:cif_shift_cell .false.)


== Timing ==

cputime in seconds
  prologue    :   0.598289E+01
  main loop   :   0.274250E+03
  epilogue    :   0.169605E-01
  total       :   0.280249E+03
  cputime/step:   0.212597E+01       (     129 evalulations,      53 linesearches)


Time spent doing                        total          step       percent
  total time                 :   0.280260E+03  0.217256E+01       100.0 %
  i/o time                   :   0.262226E+00  0.203276E-02         0.1 %
  FFTs                       :   0.196338E+03  0.152200E+01        70.1 %
  dot products               :   0.871780E+01  0.675798E-01         3.1 %
  geodesic                   :   0.478080E-01  0.370605E-03         0.0 %
  ffm_dgemm                  :   0.654962E-02  0.507722E-04         0.0 %
  fmf_dgemm                  :   0.598412E-02  0.463885E-04         0.0 %
  mmm_dgemm                  :   0.218087E-02  0.169060E-04         0.0 %
  m_diagonalize              :   0.107201E-02  0.831015E-05         0.0 %
  local pseudopotentials     :   0.398686E+01  0.309059E-01         1.4 %
  non-local pseudopotentials :   0.817800E+01  0.633954E-01         2.9 %
  structure factors          :   0.435645E+00  0.337709E-02         0.2 %
  phase factors              :   0.593200E-05  0.459845E-07         0.0 %
  masking and packing        :   0.475726E+01  0.368780E-01         1.7 %
  queue fft                  :   0.584760E+01  0.453303E-01         2.1 %
  queue fft (serial)         :   0.216128E+01  0.167541E-01         0.8 %
  queue fft (message passing):   0.365830E+01  0.283589E-01         1.3 %
  HFX potential              :   0.307312E+01  0.238226E-01         1.1 %
  non-local psp FFM          :   0.783575E+01  0.607422E-01         2.8 %
  non-local psp FMF          :   0.733881E-01  0.568900E-03         0.0 %
  non-local psp FFM A        :   0.312208E-01  0.242022E-03         0.0 %
  non-local psp FFM B        :   0.104401E+00  0.809311E-03         0.0 %

== HFX Counters ==
  HFX Evalulations         =   129
  Lin ACE HFX Evalulations =     0


     >>>  JOB COMPLETED     AT Mon Apr 14 15:38:18 2025  <<<

 Task  times  cpu:      260.3s     wall:      280.3s


                                NWChem Input Module
                                -------------------


 Summary of allocated global arrays
-----------------------------------
  No active global arrays


MA_summarize_allocated_blocks: starting scan ...
MA_summarize_allocated_blocks: scan completed: 0 heap blocks, 0 stack blocks
MA usage statistics:

	allocation statistics:
					      heap	     stack
					      ----	     -----
	current number of blocks	         0	         0
	maximum number of blocks	       313	        36
	current total bytes		         0	         0
	maximum total bytes		  16366072	   5334728
	maximum total K-bytes		     16367	      5335
	maximum total M-bytes		        17	         6


                                     CITATION
                                     --------
                Please cite the following reference when publishing
                           results obtained with NWChem:

          E. Apra, E. J. Bylaska, W. A. de Jong, N. Govind, K. Kowalski,
       T. P. Straatsma, M. Valiev, H. J. J. van Dam, Y. Alexeev, J. Anchell,
       V. Anisimov, F. W. Aquino, R. Atta-Fynn, J. Autschbach, N. P. Bauman,
     J. C. Becca, D. E. Bernholdt, K. Bhaskaran-Nair, S. Bogatko, P. Borowski,
         J. Boschen, J. Brabec, A. Bruner, E. Cauet, Y. Chen, G. N. Chuev,
      C. J. Cramer, J. Daily, M. J. O. Deegan, T. H. Dunning Jr., M. Dupuis,
   K. G. Dyall, G. I. Fann, S. A. Fischer, A. Fonari, H. Fruchtl, L. Gagliardi,
      J. Garza, N. Gawande, S. Ghosh, K. Glaesemann, A. W. Gotz, J. Hammond,
       V. Helms, E. D. Hermes, K. Hirao, S. Hirata, M. Jacquelin, L. Jensen,
   B. G. Johnson, H. Jonsson, R. A. Kendall, M. Klemm, R. Kobayashi, V. Konkov,
      S. Krishnamoorthy, M. Krishnan, Z. Lin, R. D. Lins, R. J. Littlefield,
      A. J. Logsdail, K. Lopata, W. Ma, A. V. Marenich, J. Martin del Campo,
   D. Mejia-Rodriguez, J. E. Moore, J. M. Mullin, T. Nakajima, D. R. Nascimento,
    J. A. Nichols, P. J. Nichols, J. Nieplocha, A. Otero-de-la-Roza, B. Palmer,
    A. Panyala, T. Pirojsirikul, B. Peng, R. Peverati, J. Pittner, L. Pollack,
   R. M. Richard, P. Sadayappan, G. C. Schatz, W. A. Shelton, D. W. Silverstein,
   D. M. A. Smith, T. A. Soares, D. Song, M. Swart, H. L. Taylor, G. S. Thomas,
            V. Tipparaju, D. G. Truhlar, K. Tsemekhman, T. Van Voorhis,
      A. Vazquez-Mayagoitia, P. Verma, O. Villa, A. Vishnu, K. D. Vogiatzis,
        D. Wang, J. H. Weare, M. J. Williamson, T. L. Windus, K. Wolinski,
        A. T. Wong, Q. Wu, C. Yang, Q. Yu, M. Zacharias, Z. Zhang, Y. Zhao,
                                and R. J. Harrison
                        "NWChem: Past, present, and future
                         J. Chem. Phys. 152, 184102 (2020)
                               doi:10.1063/5.0004997

                                      AUTHORS
                                      -------
  E. Apra, E. J. Bylaska, N. Govind, K. Kowalski, M. Valiev, D. Mejia-Rodriguez,
       A. Kunitsa, N. P. Bauman, A. Panyala, W. A. de Jong, T. P. Straatsma,
   H. J. J. van Dam, D. Wang, T. L. Windus, J. Hammond, J. Autschbach, A. Woods,
    K. Bhaskaran-Nair, J. Brabec, K. Lopata, S. A. Fischer, S. Krishnamoorthy,
     M. Jacquelin, W. Ma, M. Klemm, O. Villa, Y. Chen, V. Anisimov, F. Aquino,
     S. Hirata, M. T. Hackler, E. Hermes, L. Jensen, J. E. Moore, J. C. Becca,
      V. Konjkov, T. Risthaus, M. Malagoli, A. Marenich, A. Otero-de-la-Roza,
        J. Mullin, P. Nichols, R. Peverati, J. Pittner, Y. Zhao, P.-D. Fan,
        A. Fonari, M. J. Williamson, R. J. Harrison, J. R. Rehr, M. Dupuis,
     D. Silverstein, D. M. A. Smith, J. Nieplocha, V. Tipparaju, M. Krishnan,
     B. E. Van Kuiken, A. Vazquez-Mayagoitia, M. Swart, Q. Wu, T. Van Voorhis,
     A. A. Auer, M. Nooijen, L. D. Crosby, E. Brown, G. Cisneros, G. I. Fann,
   H. Fruchtl, J. Garza, K. Hirao, R. A. Kendall, J. A. Nichols, K. Tsemekhman,
    K. Wolinski, J. Anchell, D. E. Bernholdt, P. Borowski, T. Clark, D. Clerc,
   H. Dachsel, M. J. O. Deegan, K. Dyall, D. Elwood, E. Glendening, M. Gutowski,
   A. C. Hess, J. Jaffe, B. G. Johnson, J. Ju, R. Kobayashi, R. Kutteh, Z. Lin,
   R. Littlefield, X. Long, B. Meng, T. Nakajima, S. Niu, L. Pollack, M. Rosing,
   K. Glaesemann, G. Sandrone, M. Stave, H. Taylor, G. Thomas, J. H. van Lenthe,
                               A. T. Wong, Z. Zhang.

 Total times  cpu:      260.3s     wall:      280.3s
