 argument  1 = H2-2.5.nw



============================== echo of input deck ==============================
title "swnc: e theory=pspw4 xc=hf formula=H2 charge=0 mult=1"
#machinejob:expert

echo

start pspw_hf_H2

memory heap 1200 mb stack 1200 mb global 10 mb

charge 0

geometry
H    0.00000    0.00000   -1.25000
H    0.00000    0.00000    1.25000
end

nwpw
  ### pseudopotential block begin ###
  ### pseudopotential block end   ###
  simulation_cell
     SC 15.0000
     boundary_conditions aperiodic
  end

  cutoff 50.0
  mult 1
  xc hf
  lmbfgs
  tolerances 1.0e-9 1.0e-9

  virtual 10
end
set nwpw:cif_filename H2

#set nwpw:CI_maxit_orb 15
#set nwpw:CI_maxit_linesearch 15
set pspw:HFX_screening_radius 14.0


set nwpw:2qintegrals .true.
set nwpw:3x3_virtual .true.

task pspw energy

================================================================================


                                         
                                         


             Northwest Computational Chemistry Package (NWChem) 7.2.3
             --------------------------------------------------------


                    Environmental Molecular Sciences Laboratory
                       Pacific Northwest National Laboratory
                                Richland, WA 99352

                              Copyright (c) 1994-2022
                       Pacific Northwest National Laboratory
                            Battelle Memorial Institute

             NWChem is an open-source computational chemistry package
                        distributed under the terms of the
                      Educational Community License (ECL) 2.0
             A copy of the license is included with this distribution
                              in the LICENSE.TXT file

                                  ACKNOWLEDGMENT
                                  --------------

            This software and its documentation were developed at the
            EMSL at Pacific Northwest National Laboratory, a multiprogram
            national laboratory, operated for the U.S. Department of Energy
            by Battelle under Contract Number DE-AC05-76RL01830. Support
            for this work was provided by the Department of Energy Office
            of Biological and Environmental Research, Office of Basic
            Energy Sciences, and the Office of Advanced Scientific Computing.


           Job information
           ---------------

    hostname        = mqs-al
    program         = nwchem
    date            = Mon Apr 14 15:44:00 2025

    compiled        = Thu_Oct_31_08:55:15_2024
    source          = /home/conda/feedstock_root/build_artifacts/nwchem_1730356057992/work
    nwchem branch   = 7.2.3
    nwchem revision = c400b04
    ga revision     = 5.8.0
    use scalapack   = T
    input           = H2-2.5.nw
    prefix          = pspw_hf_H2.
    data base       = ./pspw_hf_H2.db
    status          = startup
    nproc           =       24
    time left       =     -1s



           Memory information
           ------------------

    heap     =  157286398 doubles =   1200.0 Mbytes
    stack    =  157286395 doubles =   1200.0 Mbytes
    global   =    1310720 doubles =     10.0 Mbytes (distinct from heap & stack)
    total    =  315883513 doubles =   2410.0 Mbytes
    verify   = yes
    hardfail = no 


           Directory information
           ---------------------

  0 permanent = .
  0 scratch   = .




                                NWChem Input Module
                                -------------------


               swnc: e theory=pspw4 xc=hf formula=H2 charge=0 mult=1
               -----------------------------------------------------

 Scaling coordinates for geometry "geometry" by  1.889725989
 (inverse scale =  0.529177249)

  zeroes
  zeroes
  zeroes
  zeroes
  zeroes
  zeroes
  zeroes
  zeroes
  zeroes
  zeroes
  zeroes
  zeroes
  zeroes
  zeroes
  zeroes
  zeroes
  zeroes
  zeroes
  zeroes
  zeroes
  zeroes
  zeroes
  zeroes
  zeroes
  zeroes
  zeroes
  zeroes
  zeroes
  zeroes
  zeroes
  zeroes
  zeroes
  zeroes
  zeroes
  zeroes
  zeroes
  zeroes
  zeroes
  zeroes
  zeroes
  zeroes
  zeroes
  zeroes
  zeroes
  zeroes
  zeroes
  zeroes
  zeroes
 ORDER OF PRIMARY AXIS IS BEING SET TO 4
 D4H symmetry detected

          ------
          auto-z
          ------
     1 autoz failed with cvr_scaling = 1.2 changing to 1.3
     2 autoz failed with cvr_scaling = 1.3 changing to 1.4
     3 autoz failed with cvr_scaling = 1.4 changing to 1.5
     4 autoz failed with cvr_scaling = 1.5 changing to 1.6
     5 autoz failed with cvr_scaling = 1.6 changing to 1.7

 AUTOZ failed to generate good internal coordinates.
 Cartesian coordinates will be used in optimizations.



                             Geometry "geometry" -> ""
                             -------------------------

 Output coordinates in angstroms (scale by  1.889725989 to convert to a.u.)

  No.       Tag          Charge          X              Y              Z
 ---- ---------------- ---------- -------------- -------------- --------------
    1 H                    1.0000     0.00000000     0.00000000    -1.25000000
    2 H                    1.0000     0.00000000     0.00000000     1.25000000

      Atomic Mass 
      ----------- 

      H                  1.007825


 Effective nuclear repulsion energy (a.u.)       0.2116708996

            Nuclear Dipole moment (a.u.) 
            ----------------------------
        X                 Y               Z
 ---------------- ---------------- ----------------
     0.0000000000     0.0000000000     0.0000000000

      Symmetry information
      --------------------

 Group name             D4h       
 Group number             28
 Group order              16
 No. of unique centers     1

      Symmetry unique atoms

     1


            XYZ format geometry
            -------------------
     2
 geometry
 H                     0.00000000     0.00000000    -1.25000000
 H                     0.00000000     0.00000000     1.25000000

          ****************************************************
          *                                                  *
          *               NWPW PSPW Calculation              *
          *                                                  *
          * [ (Grassmann/Stiefel manifold implementation)  ] *
          *                                                  *
          *      [ NorthWest Chemistry implementation ]      *
          *                                                  *
          *            version #5.10   06/12/02              *
          *                                                  *
          *    This code was developed by Eric J. Bylaska,   *
          *    and was based upon algorithms and code        *
          *    developed by the group of Prof. John H. Weare *
          *                                                  *
          ****************************************************
     >>>  JOB STARTED       AT Mon Apr 14 15:44:00 2025  <<<
          ================ input data ========================

 input psi filename:./pspw_hf_H2.movecs

 number of processors used:        24
 processor grid           :  24 x   1
 parallel mapping         :2d-hilbert
 parallel mapping         :  balanced
 number of threads        :         1
 parallel io              :       off

 options:
      boundary conditions  = aperiodic   (version4)
      electron spin        = restricted
      exchange-correlation = Hartree-Fock
      - HFX relaxed
      - HFX restricted orbitals :    1
      - HFX free-space coulomb solver


 elements involved in the cluster:
      1: H   valence charge:  1.0000  lmax=  1
             comment    : Parameterized (Chem.Phys.Lett., vol 322, page 447) Hamman psp
             pseudpotential type            :   0
             highest angular component      :   1
             local potential used           :   1
             number of non-local projections:   1
             aperiodic cutoff radius        :  1.000
             cutoff =   0.800   0.800


 total charge:   0.000

 atomic composition:
     H   :    2

 number of electrons: spin up=     1 (   1 per task)  down=     1 (   1 per task) (Fourier space)
 number of orbitals : spin up=     1 (   1 per task)  down=     1 (   1 per task) (Fourier space)

 supercell:
      cell_name:  cell_default                                      
      lattice:    a1=<  15.000   0.000   0.000 >
                  a2=<   0.000  15.000   0.000 >
                  a3=<   0.000   0.000  15.000 >
      reciprocal: b1=<   0.419   0.000   0.000 >
                  b2=<   0.000   0.419   0.000 >
                  b3=<   0.000   0.000   0.419 >
      lattice:    a=      15.000 b=     15.000 c=      15.000
                  alpha=  90.000 beta=  90.000 gamma=  90.000
                  omega=      3375.0

      density cutoff=100.000  fft= 70x 70x 70(    80618 waves     3359 per task)
      wavefnc cutoff= 50.000  fft= 70x 70x 70(    28526 waves     1188 per task)

 technical parameters:
      time step=      5.80     fictitious mass=  400000.0
      tolerance=0.100E-08 (energy)   0.100E-08 (density)
      maximum iterations =      1000 (   10 inner    100 outer )





== Energy Calculation ==


          ============ Grassmann lmbfgs iteration ============
     >>>  ITERATION STARTED AT Mon Apr 14 15:44:06 2025  <<<
    iter.           Energy         DeltaE       DeltaRho 
    ------------------------------------------------------
      10   -0.8678258394E+00   -0.16149E-02    0.88138E-02
     -  10 steepest descent iterations performed
      20   -0.8716483911E+00   -0.78182E-04    0.35373E-04
      30   -0.8718162559E+00   -0.39089E-05    0.29466E-05
      40   -0.8718273354E+00   -0.15716E-06    0.17658E-06
      50   -0.8718278348E+00   -0.11264E-07    0.22536E-08
      60   -0.8718278715E+00   -0.91040E-09    0.15477E-09
  *** tolerance ok. iteration terminated
     >>>  ITERATION ENDED   AT Mon Apr 14 15:44:12 2025  <<<


==  Summary Of Results  ==

 number of electrons: spin up=    1.00000  down=    1.00000 (real space)

 total     energy    :  -0.8718278715E+00 (   -0.43591E+00/ion)
 total orbital energy:  -0.7133853798E+00 (   -0.71339E+00/electron)
 hartree   energy    :   0.7402267825E+00 (    0.74023E+00/electron)
 exc-corr  energy    :   0.0000000000E+00 (    0.00000E+00/electron)
 HF exchange energy  :  -0.3701133912E+00 (   -0.37011E+00/electron)
 ion-ion   energy    :   0.2116708996E+00 (    0.10584E+00/ion)

 kinetic (planewave) :   0.6112860691E+00 (    0.61129E+00/electron)
 V_local (planewave) :  -0.1917596319E+01 (   -0.19176E+01/electron)
 V_nl    (planewave) :  -0.1473019119E+00 (   -0.14730E+00/electron)
 V_Coul  (planewave) :   0.1480453565E+01 (    0.14805E+01/electron)
 V_xc.   (planewave) :   0.0000000000E+00 (    0.00000E+00/electron)
 K.S. HFX energy     :  -0.7402267825E+00 (   -0.74023E+00/electron)
 Virial Coefficient  :  -0.9560902759E+00

 orbital energies:
    -0.3566927E+00 (  -9.706eV)


== Virtual Orbital Calculation ==


 input epsi filename:./pspw_hf_H2.emovecs

 COVOs Mimimization
 ------------------
CI gradient algorithm =         3
maxit_sweeps          =         3
maxit_orb             =       120
maxit_linesearch      =        15
maxerror              = 0.100E-08

     orb,it,eci,eold,eci-eold=                    1                    1 -0.95120748168424829      -0.94264574674845358       -8.5617349357947070E-003 F
     orb,it,eci,eold,eci-eold=                    1                    2 -0.95220650392033723      -0.95120748168424829       -9.9902223608894225E-004 F
     orb,it,eci,eold,eci-eold=                    1                    3 -0.95589811295852034      -0.95220650392033723       -3.6916090381831079E-003 F
     orb,it,eci,eold,eci-eold=                    1                    4 -0.95753007812025137      -0.95589811295852034       -1.6319651617310305E-003 F
     orb,it,eci,eold,eci-eold=                    1                    5 -0.96274913912117288      -0.95753007812025137       -5.2190610009215099E-003 F
     orb,it,eci,eold,eci-eold=                    1                    6 -0.96475617805293257      -0.96274913912117288       -2.0070389317596860E-003 F
     orb,it,eci,eold,eci-eold=                    1                    7 -0.96518704354105078      -0.96475617805293257       -4.3086548811821501E-004 F
     orb,it,eci,eold,eci-eold=                    1                    8 -0.96617187119934955      -0.96518704354105078       -9.8482765829877028E-004 F
     orb,it,eci,eold,eci-eold=                    1                    9 -0.96636686485263423      -0.96617187119934955       -1.9499365328468077E-004 F
     orb,it,eci,eold,eci-eold=                    1                   10 -0.96700502623102591      -0.96636686485263423       -6.3816137839167730E-004 F
     orb,it,eci,eold,eci-eold=                    1                   11 -0.96860571241739746      -0.96700502623102591       -1.6006861863715471E-003 F
     orb,it,eci,eold,eci-eold=                    1                   12 -0.97091008379367527      -0.96860571241739746       -2.3043713762778140E-003 F
     orb,it,eci,eold,eci-eold=                    1                   13 -0.97152822433857788      -0.97091008379367527       -6.1814054490261228E-004 F
     orb,it,eci,eold,eci-eold=                    1                   14 -0.97174976317783601      -0.97152822433857788       -2.2153883925812856E-004 F
     orb,it,eci,eold,eci-eold=                    1                   15 -0.97298984522017828      -0.97174976317783601       -1.2400820423422720E-003 F
     orb,it,eci,eold,eci-eold=                    1                   16 -0.97483422109733509      -0.97298984522017828       -1.8443758771568008E-003 F
     orb,it,eci,eold,eci-eold=                    1                   17 -0.97584863198384042      -0.97483422109733509       -1.0144108865053347E-003 F
     orb,it,eci,eold,eci-eold=                    1                   18 -0.97796136909881648      -0.97584863198384042       -2.1127371149760599E-003 F
     orb,it,eci,eold,eci-eold=                    1                   19 -0.97846855576527036      -0.97796136909881648       -5.0718666645388488E-004 F
     orb,it,eci,eold,eci-eold=                    1                   20 -0.97869943657247649      -0.97846855576527036       -2.3088080720612414E-004 F
     orb,it,eci,eold,eci-eold=                    1                   21 -0.97980173781339208      -0.97869943657247649       -1.1023012409155930E-003 F
     orb,it,eci,eold,eci-eold=                    1                   22 -0.97991567273530733      -0.97980173781339208       -1.1393492191524857E-004 F
     orb,it,eci,eold,eci-eold=                    1                   23 -0.98007039082094782      -0.97991567273530733       -1.5471808564049283E-004 F
     orb,it,eci,eold,eci-eold=                    1                   24 -0.98138355911438147      -0.98007039082094782       -1.3131682934336419E-003 F
     orb,it,eci,eold,eci-eold=                    1                   25 -0.98203471936372200      -0.98138355911438147       -6.5116024934053218E-004 F
     orb,it,eci,eold,eci-eold=                    1                   26 -0.98215305869470582      -0.98203471936372200       -1.1833933098381877E-004 F
     orb,it,eci,eold,eci-eold=                    1                   27 -0.98286246877795924      -0.98215305869470582       -7.0941008325342558E-004 F
     orb,it,eci,eold,eci-eold=                    1                   28 -0.98312866631828721      -0.98286246877795924       -2.6619754032797260E-004 F
     orb,it,eci,eold,eci-eold=                    1                   29 -0.98334103152479846      -0.98312866631828721       -2.1236520651124469E-004 F
     orb,it,eci,eold,eci-eold=                    1                   30 -0.98418944314166268      -0.98334103152479846       -8.4841161686421973E-004 F
     orb,it,eci,eold,eci-eold=                    1                   31 -0.98426508158656523      -0.98418944314166268       -7.5638444902548230E-005 F
     orb,it,eci,eold,eci-eold=                    1                   32 -0.98430787749812243      -0.98426508158656523       -4.2795911557202970E-005 F
     orb,it,eci,eold,eci-eold=                    1                   33 -0.98504833964432736      -0.98430787749812243       -7.4046214620493434E-004 F
     orb,it,eci,eold,eci-eold=                    1                   34 -0.98520517506587102      -0.98504833964432736       -1.5683542154365515E-004 F
     orb,it,eci,eold,eci-eold=                    1                   35 -0.98522356773686559      -0.98520517506587102       -1.8392670994571425E-005 F
     orb,it,eci,eold,eci-eold=                    1                   36 -0.98567032024724877      -0.98522356773686559       -4.4675251038317487E-004 F
     orb,it,eci,eold,eci-eold=                    1                   37 -0.98576983509427452      -0.98567032024724877       -9.9514847025750086E-005 F
     orb,it,eci,eold,eci-eold=                    1                   38 -0.98580720083340390      -0.98576983509427452       -3.7365739129380238E-005 F
     orb,it,eci,eold,eci-eold=                    1                   39 -0.98633505536870436      -0.98580720083340390       -5.2785453530046489E-004 F
     orb,it,eci,eold,eci-eold=                    1                   40 -0.98645066468879072      -0.98633505536870436       -1.1560932008636282E-004 F
     orb,it,eci,eold,eci-eold=                    1                   41 -0.98649046513992877      -0.98645066468879072       -3.9800451138050086E-005 F
     orb,it,eci,eold,eci-eold=                    1                   42 -0.98689557709704101      -0.98649046513992877       -4.0511195711223635E-004 F
     orb,it,eci,eold,eci-eold=                    1                   43 -0.98710087038838557      -0.98689557709704101       -2.0529329134455487E-004 F
     orb,it,eci,eold,eci-eold=                    1                   44 -0.98727788865841271      -0.98710087038838557       -1.7701827002714055E-004 F
     orb,it,eci,eold,eci-eold=                    1                   45 -0.98737889861729522      -0.98727788865841271       -1.0100995888251418E-004 F
     orb,it,eci,eold,eci-eold=                    1                   46 -0.98757798683714604      -0.98737889861729522       -1.9908821985081815E-004 F
     orb,it,eci,eold,eci-eold=                    1                   47 -0.98769377428817573      -0.98757798683714604       -1.1578745102969190E-004 F
     orb,it,eci,eold,eci-eold=                    1                   48 -0.98782404802284463      -0.98769377428817573       -1.3027373466889536E-004 F
     orb,it,eci,eold,eci-eold=                    1                   49 -0.98788696086448957      -0.98782404802284463       -6.2912841644946482E-005 F
     orb,it,eci,eold,eci-eold=                    1                   50 -0.98798089003254908      -0.98788696086448957       -9.3929168059503354E-005 F
     orb,it,eci,eold,eci-eold=                    1                   51 -0.98803962089300812      -0.98798089003254908       -5.8730860459044187E-005 F
     orb,it,eci,eold,eci-eold=                    1                   52 -0.98813180052158134      -0.98803962089300812       -9.2179628573219041E-005 F
     orb,it,eci,eold,eci-eold=                    1                   53 -0.98818090229617872      -0.98813180052158134       -4.9101774597382075E-005 F
     orb,it,eci,eold,eci-eold=                    1                   54 -0.98823609468768070      -0.98818090229617872       -5.5192391501979188E-005 F
     orb,it,eci,eold,eci-eold=                    1                   55 -0.98826428586278658      -0.98823609468768070       -2.8191175105884980E-005 F
     orb,it,eci,eold,eci-eold=                    1                   56 -0.98831331467136962      -0.98826428586278658       -4.9028808583040373E-005 F
     orb,it,eci,eold,eci-eold=                    1                   57 -0.98831483021653743      -0.98831331467136962       -1.5155451678072751E-006 F
     orb,it,eci,eold,eci-eold=                    1                   58 -0.98831840319987396      -0.98831483021653743       -3.5729833365305552E-006 F
     orb,it,eci,eold,eci-eold=                    1                   59 -0.98835019263323098      -0.98831840319987396       -3.1789433357021224E-005 F
     orb,it,eci,eold,eci-eold=                    1                   60 -0.98835960093615216      -0.98835019263323098       -9.4083029211766700E-006 F
     orb,it,eci,eold,eci-eold=                    1                   61 -0.98836382156690494      -0.98835960093615216       -4.2206307527825615E-006 F
     orb,it,eci,eold,eci-eold=                    1                   62 -0.98839809720534877      -0.98836382156690494       -3.4275638443825862E-005 F
     orb,it,eci,eold,eci-eold=                    1                   63 -0.98841627194872339      -0.98839809720534877       -1.8174743374621549E-005 F
     orb,it,eci,eold,eci-eold=                    1                   64 -0.98841950278403823      -0.98841627194872339       -3.2308353148380320E-006 F
     orb,it,eci,eold,eci-eold=                    1                   65 -0.98843950290565896      -0.98841950278403823       -2.0000121620733502E-005 F
     orb,it,eci,eold,eci-eold=                    1                   66 -0.98844661779748622      -0.98843950290565896       -7.1148918272534445E-006 F
     orb,it,eci,eold,eci-eold=                    1                   67 -0.98844992570597945      -0.98844661779748622       -3.3079084932330360E-006 F
     orb,it,eci,eold,eci-eold=                    1                   68 -0.98846838930975578      -0.98844992570597945       -1.8463603776330828E-005 F
     orb,it,eci,eold,eci-eold=                    1                   69 -0.98847467060306538      -0.98846838930975578       -6.2812933095957035E-006 F
     orb,it,eci,eold,eci-eold=                    1                   70 -0.98847608081265981      -0.98847467060306538       -1.4102095944323878E-006 F
     orb,it,eci,eold,eci-eold=                    1                   71 -0.98848910176201021      -0.98847608081265981       -1.3020949350406319E-005 F
     orb,it,eci,eold,eci-eold=                    1                   72 -0.98849569576454765      -0.98848910176201021       -6.5940025374411348E-006 F
     orb,it,eci,eold,eci-eold=                    1                   73 -0.98849825717762252      -0.98849569576454765       -2.5614130748641273E-006 F
     orb,it,eci,eold,eci-eold=                    1                   74 -0.98850914265091583      -0.98849825717762252       -1.0885473293309467E-005 F
     orb,it,eci,eold,eci-eold=                    1                   75 -0.98851360591969128      -0.98850914265091583       -4.4632687754564415E-006 F
     orb,it,eci,eold,eci-eold=                    1                   76 -0.98851569842962983      -0.98851360591969128       -2.0925099385449286E-006 F
     orb,it,eci,eold,eci-eold=                    1                   77 -0.98852478755342987      -0.98851569842962983       -9.0891238000434527E-006 F
     orb,it,eci,eold,eci-eold=                    1                   78 -0.98852759147963098      -0.98852478755342987       -2.8039262011114729E-006 F
     orb,it,eci,eold,eci-eold=                    1                   79 -0.98852865178363025      -0.98852759147963098       -1.0603039992673757E-006 F
     orb,it,eci,eold,eci-eold=                    1                   80 -0.98853648273065675      -0.98852865178363025       -7.8309470264992243E-006 F
     orb,it,eci,eold,eci-eold=                    1                   81 -0.98854040673416654      -0.98853648273065675       -3.9240035097920511E-006 F
     orb,it,eci,eold,eci-eold=                    1                   82 -0.98854156532878801      -0.98854040673416654       -1.1585946214642817E-006 F
     orb,it,eci,eold,eci-eold=                    1                   83 -0.98854717148955806      -0.98854156532878801       -5.6061607700552685E-006 F
     orb,it,eci,eold,eci-eold=                    1                   84 -0.98854869647319821      -0.98854717148955806       -1.5249836401443062E-006 F
     orb,it,eci,eold,eci-eold=                    1                   85 -0.98854929522625468      -0.98854869647319821       -5.9875305646883703E-007 F
     orb,it,eci,eold,eci-eold=                    1                   86 -0.98855470036043114      -0.98854929522625468       -5.4051341764616012E-006 F
     orb,it,eci,eold,eci-eold=                    1                   87 -0.98855744619497488      -0.98855470036043114       -2.7458345437381126E-006 F
     orb,it,eci,eold,eci-eold=                    1                   88 -0.98855802114729374      -0.98855744619497488       -5.7495231886584008E-007 F
     orb,it,eci,eold,eci-eold=                    1                   89 -0.98856164580511696      -0.98855802114729374       -3.6246578232201898E-006 F
     orb,it,eci,eold,eci-eold=                    1                   90 -0.98856290736423835      -0.98856164580511696       -1.2615591213904764E-006 F
     orb,it,eci,eold,eci-eold=                    1                   91 -0.98856337006457373      -0.98856290736423835       -4.6270033537965105E-007 F
     orb,it,eci,eold,eci-eold=                    1                   92 -0.98856678665877917      -0.98856337006457373       -3.4165942054409371E-006 F
     orb,it,eci,eold,eci-eold=                    1                   93 -0.98856850424483145      -0.98856678665877917       -1.7175860522744557E-006 F
     orb,it,eci,eold,eci-eold=                    1                   94 -0.98856902017358039      -0.98856850424483145       -5.1592874894534901E-007 F
     orb,it,eci,eold,eci-eold=                    1                   95 -0.98857172503814750      -0.98856902017358039       -2.7048645671046145E-006 F
     orb,it,eci,eold,eci-eold=                    1                   96 -0.98857257025016265      -0.98857172503814750       -8.4521201515475042E-007 F
     orb,it,eci,eold,eci-eold=                    1                   97 -0.98857272204821123      -0.98857257025016265       -1.5179804857545776E-007 F
     orb,it,eci,eold,eci-eold=                    1                   98 -0.98857467927330234      -0.98857272204821123       -1.9572250911092937E-006 F
     orb,it,eci,eold,eci-eold=                    1                   99 -0.98857569145841628      -0.98857467927330234       -1.0121851139466287E-006 F
     orb,it,eci,eold,eci-eold=                    1                  100 -0.98857602787105525      -0.98857569145841628       -3.3641263896821982E-007 F
     orb,it,eci,eold,eci-eold=                    1                  101 -0.98857762542698890      -0.98857602787105525       -1.5975559336522949E-006 F
     orb,it,eci,eold,eci-eold=                    1                  102 -0.98857828935108405      -0.98857762542698890       -6.6392409514559603E-007 F
     orb,it,eci,eold,eci-eold=                    1                  103 -0.98857859095940903      -0.98857828935108405       -3.0160832498182799E-007 F
     orb,it,eci,eold,eci-eold=                    1                  104 -0.98858005524646098      -0.98857859095940903       -1.4642870519443463E-006 F
     orb,it,eci,eold,eci-eold=                    1                  105 -0.98858063430253629      -0.98858005524646098       -5.7905607531161252E-007 F
     orb,it,eci,eold,eci-eold=                    1                  106 -0.98858081173599055      -0.98858063430253629       -1.7743345426257662E-007 F
     orb,it,eci,eold,eci-eold=                    1                  107 -0.98858189524191842      -0.98858081173599055       -1.0835059278679893E-006 F
     orb,it,eci,eold,eci-eold=                    1                  108 -0.98858231316426604      -0.98858189524191842       -4.1792234761750535E-007 F
     orb,it,eci,eold,eci-eold=                    1                  109 -0.98858245922478971      -0.98858231316426604       -1.4606052367582834E-007 F
     orb,it,eci,eold,eci-eold=                    1                  110 -0.98858339043129251      -0.98858245922478971       -9.3120650279665540E-007 F
     orb,it,eci,eold,eci-eold=                    1                  111 -0.98858381403609630      -0.98858339043129251       -4.2360480378977883E-007 F
     orb,it,eci,eold,eci-eold=                    1                  112 -0.98858394117914783      -0.98858381403609630       -1.2714305153149752E-007 F
     orb,it,eci,eold,eci-eold=                    1                  113 -0.98858459851815272      -0.98858394117914783       -6.5733900489473029E-007 F
     orb,it,eci,eold,eci-eold=                    1                  114 -0.98858474380469719      -0.98858459851815272       -1.4528654446177569E-007 F
     orb,it,eci,eold,eci-eold=                    1                  115 -0.98858477991768945      -0.98858474380469719       -3.6112992263248600E-008 F
     orb,it,eci,eold,eci-eold=                    1                  116 -0.98858533022791562      -0.98858477991768945       -5.5031022616613967E-007 F
     orb,it,eci,eold,eci-eold=                    1                  117 -0.98858565489533334      -0.98858533022791562       -3.2466741772818608E-007 F
     orb,it,eci,eold,eci-eold=                    1                  118 -0.98858576734251580      -0.98858565489533334       -1.1244718245428942E-007 F
     orb,it,eci,eold,eci-eold=                    1                  119 -0.98858625013267243      -0.98858576734251580       -4.8279015663066360E-007 F
     orb,it,eci,eold,eci-eold=                    1                  120 -0.98858642646755168      -0.98858625013267243       -1.7633487925383662E-007 F
     orb,it,eci,eold,eci-eold=                    1                  121 -0.98858648607138777      -0.98858642646755168       -5.9603836088939488E-008 F
     orbital   1 current e= -0.767341E-01 error=0.115E+00 (eci= -0.988586486E+00 error=0.596E-07) iterations 121(   0 preconditioned, Ep,Sp= 20.0  200.0)
     orb,it,eci,eold,eci-eold=                    1                    1 -0.98858779224757487      -0.98858648607138777       -1.3061761870991617E-006 F
     orb,it,eci,eold,eci-eold=                    1                    2 -0.98858814855120858      -0.98858779224757487       -3.5630363370842133E-007 F
     orb,it,eci,eold,eci-eold=                    1                    3 -0.98858818020834338      -0.98858814855120858       -3.1657134802465237E-008 F
     orb,it,eci,eold,eci-eold=                    1                    4 -0.98858865339387458      -0.98858818020834338       -4.7318553120234697E-007 F
     orb,it,eci,eold,eci-eold=                    1                    5 -0.98858886214617137      -0.98858865339387458       -2.0875229678196661E-007 F
     orb,it,eci,eold,eci-eold=                    1                    6 -0.98858891473159116      -0.98858886214617137       -5.2585419796358224E-008 F
     orb,it,eci,eold,eci-eold=                    1                    7 -0.98858903926375641      -0.98858891473159116       -1.2453216524654920E-007 F
     orb,it,eci,eold,eci-eold=                    1                    8 -0.98858904351302490      -0.98858903926375641       -4.2492684926287438E-009 F
     orb,it,eci,eold,eci-eold=                    1                    9 -0.98858913249960367      -0.98858904351302490       -8.8986578772320968E-008 F
     orb,it,eci,eold,eci-eold=                    1                   10 -0.98858923241090879      -0.98858913249960367       -9.9911305118105531E-008 F
     orb,it,eci,eold,eci-eold=                    1                   11 -0.98858928376922983      -0.98858923241090879       -5.1358321040417820E-008 F
     orb,it,eci,eold,eci-eold=                    1                   12 -0.98858935510467416      -0.98858928376922983       -7.1335444329356790E-008 F
     orb,it,eci,eold,eci-eold=                    1                   13 -0.98858935804707759      -0.98858935510467416       -2.9424034320157944E-009 F
     orb,it,eci,eold,eci-eold=                    1                   14 -0.98858938101194249      -0.98858935804707759       -2.2964864898611381E-008 F
     orb,it,eci,eold,eci-eold=                    1                   15 -0.98858941767997488      -0.98858938101194249       -3.6668032388220695E-008 F
     orb,it,eci,eold,eci-eold=                    1                   16 -0.98858943963801549      -0.98858941767997488       -2.1958040608005547E-008 F
     orb,it,eci,eold,eci-eold=                    1                   17 -0.98858948040901340      -0.98858943963801549       -4.0770997911110385E-008 F
     orb,it,eci,eold,eci-eold=                    1                   18 -0.98858950241704868      -0.98858948040901340       -2.2008035283072047E-008 F
     orb,it,eci,eold,eci-eold=                    1                   19 -0.98858952133535893      -0.98858950241704868       -1.8918310251692105E-008 F
     orb,it,eci,eold,eci-eold=                    1                   20 -0.98858952965477753      -0.98858952133535893       -8.3194185984680757E-009 F
     orb,it,eci,eold,eci-eold=                    1                   21 -0.98858954156120449      -0.98858952965477753       -1.1906426955476945E-008 F
     orb,it,eci,eold,eci-eold=                    1                   22 -0.98858954869320959      -0.98858954156120449       -7.1320050976098059E-009 F
     orb,it,eci,eold,eci-eold=                    1                   23 -0.98858955537506965      -0.98858954869320959       -6.6818600652496229E-009 F
     orb,it,eci,eold,eci-eold=                    1                   24 -0.98858955840844842      -0.98858955537506965       -3.0333787703895609E-009 F
     orb,it,eci,eold,eci-eold=                    1                   25 -0.98858956572307077      -0.98858955840844842       -7.3146223522613241E-009 F
     orb,it,eci,eold,eci-eold=                    1                   26 -0.98858956595730074      -0.98858956572307077       -2.3422996875410718E-010 F
     orbital   1 current e= -0.767836E-01 error=0.495E-04 (eci= -0.988589566E+00 error=0.234E-09) iterations  26(   0 preconditioned, Ep,Sp= 20.0  200.0)
     orb,it,eci,eold,eci-eold=                    1                    1 -0.98858957330632447      -0.98858956595730074       -7.3490237229023592E-009 F
     orb,it,eci,eold,eci-eold=                    1                    2 -0.98858957330632447      -0.98858957330632447        0.0000000000000000      F
     orbital   1 current e= -0.767835E-01 error=0.149E-06 (eci= -0.988589573E+00 error=0.000E+00) iterations   2(   0 preconditioned, Ep,Sp= 20.0  200.0)
     orb,it,eci,eold,eci-eold=                    2                    1 -0.87467283415016195      -0.87435339148957669       -3.1944266058525628E-004 F
     orb,it,eci,eold,eci-eold=                    2                    2 -0.87473583283898138      -0.87467283415016195       -6.2998688819426718E-005 F
     orb,it,eci,eold,eci-eold=                    2                    3 -0.87477524004719687      -0.87473583283898138       -3.9407208215491707E-005 F
     orb,it,eci,eold,eci-eold=                    2                    4 -0.87479125842363858      -0.87477524004719687       -1.6018376441717663E-005 F
     orb,it,eci,eold,eci-eold=                    2                    5 -0.87483170925544596      -0.87479125842363858       -4.0450831807370413E-005 F
     orb,it,eci,eold,eci-eold=                    2                    6 -0.87485801562043031      -0.87483170925544596       -2.6306364984352015E-005 F
     orb,it,eci,eold,eci-eold=                    2                    7 -0.87490552289090506      -0.87485801562043031       -4.7507270474755892E-005 F
     orb,it,eci,eold,eci-eold=                    2                    8 -0.87491797636867064      -0.87490552289090506       -1.2453477765572707E-005 F
     orb,it,eci,eold,eci-eold=                    2                    9 -0.87493453300590029      -0.87491797636867064       -1.6556637229658833E-005 F
     orb,it,eci,eold,eci-eold=                    2                   10 -0.87497969087256111      -0.87493453300590029       -4.5157866660816559E-005 F
     orb,it,eci,eold,eci-eold=                    2                   11 -0.87500505431141495      -0.87497969087256111       -2.5363438853842624E-005 F
     orb,it,eci,eold,eci-eold=                    2                   12 -0.87502875361535837      -0.87500505431141495       -2.3699303943414129E-005 F
     orb,it,eci,eold,eci-eold=                    2                   13 -0.87506971411706647      -0.87502875361535837       -4.0960501708098285E-005 F
     orb,it,eci,eold,eci-eold=                    2                   14 -0.87507153152899220      -0.87506971411706647       -1.8174119257308163E-006 F
     orb,it,eci,eold,eci-eold=                    2                   15 -0.87508549867885732      -0.87507153152899220       -1.3967149865123929E-005 F
     orb,it,eci,eold,eci-eold=                    2                   16 -0.87513024226757885      -0.87508549867885732       -4.4743588721529726E-005 F
     orb,it,eci,eold,eci-eold=                    2                   17 -0.87514586145498652      -0.87513024226757885       -1.5619187407667212E-005 F
     orb,it,eci,eold,eci-eold=                    2                   18 -0.87516348690206658      -0.87514586145498652       -1.7625447080060752E-005 F
     orb,it,eci,eold,eci-eold=                    2                   19 -0.87521673479614304      -0.87516348690206658       -5.3247894076458024E-005 F
     orb,it,eci,eold,eci-eold=                    2                   20 -0.87523162638156848      -0.87521673479614304       -1.4891585425447218E-005 F
     orb,it,eci,eold,eci-eold=                    2                   21 -0.87525117890344506      -0.87523162638156848       -1.9552521876575746E-005 F
     orb,it,eci,eold,eci-eold=                    2                   22 -0.87531369443458007      -0.87525117890344506       -6.2515531135010072E-005 F
     orb,it,eci,eold,eci-eold=                    2                   23 -0.87532190788965902      -0.87531369443458007       -8.2134550789536576E-006 F
     orb,it,eci,eold,eci-eold=                    2                   24 -0.87533991966700309      -0.87532190788965902       -1.8011777344062452E-005 F
     orb,it,eci,eold,eci-eold=                    2                   25 -0.87540075561871666      -0.87533991966700309       -6.0835951713578140E-005 F
     orb,it,eci,eold,eci-eold=                    2                   26 -0.87540660564335171      -0.87540075561871666       -5.8500246350456919E-006 F
     orb,it,eci,eold,eci-eold=                    2                   27 -0.87542962783584655      -0.87540660564335171       -2.3022192494837057E-005 F
     orb,it,eci,eold,eci-eold=                    2                   28 -0.87547785434873027      -0.87542962783584655       -4.8226512883720041E-005 F
     orb,it,eci,eold,eci-eold=                    2                   29 -0.87548253528900932      -0.87547785434873027       -4.6809402790559673E-006 F
     orb,it,eci,eold,eci-eold=                    2                   30 -0.87548981782708180      -0.87548253528900932       -7.2825380724728106E-006 F
     orb,it,eci,eold,eci-eold=                    2                   31 -0.87553191900411620      -0.87548981782708180       -4.2101177034403747E-005 F
     orb,it,eci,eold,eci-eold=                    2                   32 -0.87553916542288535      -0.87553191900411620       -7.2464187691467785E-006 F
     orb,it,eci,eold,eci-eold=                    2                   33 -0.87553924593962240      -0.87553916542288535       -8.0516737055447152E-008 F
     orb,it,eci,eold,eci-eold=                    2                   34 -0.87557848118592474      -0.87553924593962240       -3.9235246302338211E-005 F
     orb,it,eci,eold,eci-eold=                    2                   35 -0.87558034725713907      -0.87557848118592474       -1.8660712143292457E-006 F
     orb,it,eci,eold,eci-eold=                    2                   36 -0.87558270658215198      -0.87558034725713907       -2.3593250129128052E-006 F
     orb,it,eci,eold,eci-eold=                    2                   37 -0.87560913267895779      -0.87558270658215198       -2.6426096805809429E-005 F
     orb,it,eci,eold,eci-eold=                    2                   38 -0.87562121450720842      -0.87560913267895779       -1.2081828250631865E-005 F
     orb,it,eci,eold,eci-eold=                    2                   39 -0.87562597050506175      -0.87562121450720842       -4.7559978533229241E-006 F
     orb,it,eci,eold,eci-eold=                    2                   40 -0.87562825839432068      -0.87562597050506175       -2.2878892589339728E-006 F
     orb,it,eci,eold,eci-eold=                    2                   41 -0.87563605455095095      -0.87562825839432068       -7.7961566302686691E-006 F
     orb,it,eci,eold,eci-eold=                    2                   42 -0.87563617185344289      -0.87563605455095095       -1.1730249194208398E-007 F
     orb,it,eci,eold,eci-eold=                    2                   43 -0.87563685311899486      -0.87563617185344289       -6.8126555197167704E-007 F
     orb,it,eci,eold,eci-eold=                    2                   44 -0.87564168131006537      -0.87563685311899486       -4.8281910705050279E-006 F
     orb,it,eci,eold,eci-eold=                    2                   45 -0.87564233279927017      -0.87564168131006537       -6.5148920480595507E-007 F
     orb,it,eci,eold,eci-eold=                    2                   46 -0.87564271497098389      -0.87564233279927017       -3.8217171371979219E-007 F
     orb,it,eci,eold,eci-eold=                    2                   47 -0.87564539428471111      -0.87564271497098389       -2.6793137272163037E-006 F
     orb,it,eci,eold,eci-eold=                    2                   48 -0.87564594279853170      -0.87564539428471111       -5.4851382058629383E-007 F
     orb,it,eci,eold,eci-eold=                    2                   49 -0.87564634515073769      -0.87564594279853170       -4.0235220599704746E-007 F
     orb,it,eci,eold,eci-eold=                    2                   50 -0.87564806228459302      -0.87564634515073769       -1.7171338553279014E-006 F
     orb,it,eci,eold,eci-eold=                    2                   51 -0.87564818747453188      -0.87564806228459302       -1.2518993885990426E-007 F
     orb,it,eci,eold,eci-eold=                    2                   52 -0.87564830687779227      -0.87564818747453188       -1.1940326039017179E-007 F
     orb,it,eci,eold,eci-eold=                    2                   53 -0.87564959901333994      -0.87564830687779227       -1.2921355476702701E-006 F
     orb,it,eci,eold,eci-eold=                    2                   54 -0.87564991274739279      -0.87564959901333994       -3.1373405284806921E-007 F
     orb,it,eci,eold,eci-eold=                    2                   55 -0.87564993118871359      -0.87564991274739279       -1.8441320803752603E-008 F
     orb,it,eci,eold,eci-eold=                    2                   56 -0.87565068361216047      -0.87564993118871359       -7.5242344688142282E-007 F
     orb,it,eci,eold,eci-eold=                    2                   57 -0.87565103461537808      -0.87565068361216047       -3.5100321760239694E-007 F
     orb,it,eci,eold,eci-eold=                    2                   58 -0.87565121398781076      -0.87565103461537808       -1.7937243268484337E-007 F
     orb,it,eci,eold,eci-eold=                    2                   59 -0.87565194504566235      -0.87565121398781076       -7.3105785158844583E-007 F
     orb,it,eci,eold,eci-eold=                    2                   60 -0.87565199964804818      -0.87565194504566235       -5.4602385834989775E-008 F
     orb,it,eci,eold,eci-eold=                    2                   61 -0.87565203215802401      -0.87565199964804818       -3.2509975822492265E-008 F
     orb,it,eci,eold,eci-eold=                    2                   62 -0.87565266307482714      -0.87565203215802401       -6.3091680313487331E-007 F
     orb,it,eci,eold,eci-eold=                    2                   63 -0.87565293798176635      -0.87565266307482714       -2.7490693921272680E-007 F
     orb,it,eci,eold,eci-eold=                    2                   64 -0.87565327991106812      -0.87565293798176635       -3.4192930176146774E-007 F
     orb,it,eci,eold,eci-eold=                    2                   65 -0.87565350304036116      -0.87565327991106812       -2.2312929304213469E-007 F
     orb,it,eci,eold,eci-eold=                    2                   66 -0.87565393371083022      -0.87565350304036116       -4.3067046906486439E-007 F
     orb,it,eci,eold,eci-eold=                    2                   67 -0.87565415909384559      -0.87565393371083022       -2.2538301536201288E-007 F
     orb,it,eci,eold,eci-eold=                    2                   68 -0.87565430506376618      -0.87565415909384559       -1.4596992059523473E-007 F
     orb,it,eci,eold,eci-eold=                    2                   69 -0.87565438441634469      -0.87565430506376618       -7.9352578508107285E-008 F
     orb,it,eci,eold,eci-eold=                    2                   70 -0.87565466586865492      -0.87565438441634469       -2.8145231023568584E-007 F
     orb,it,eci,eold,eci-eold=                    2                   71 -0.87565467619239801      -0.87565466586865492       -1.0323743082629733E-008 F
     orb,it,eci,eold,eci-eold=                    2                   72 -0.87565468141636771      -0.87565467619239801       -5.2239697012623765E-009 F
     orb,it,eci,eold,eci-eold=                    2                   73 -0.87565493055554167      -0.87565468141636771       -2.4913917395785745E-007 F
     orb,it,eci,eold,eci-eold=                    2                   74 -0.87565506124304648      -0.87565493055554167       -1.3068750481792790E-007 F
     orb,it,eci,eold,eci-eold=                    2                   75 -0.87565518887050242      -0.87565506124304648       -1.2762745593697389E-007 F
     orb,it,eci,eold,eci-eold=                    2                   76 -0.87565526187642229      -0.87565518887050242       -7.3005919865032354E-008 F
     orb,it,eci,eold,eci-eold=                    2                   77 -0.87565540851027268      -0.87565526187642229       -1.4663385039526133E-007 F
     orb,it,eci,eold,eci-eold=                    2                   78 -0.87565542409615504      -0.87565540851027268       -1.5585882362501025E-008 F
     orb,it,eci,eold,eci-eold=                    2                   79 -0.87565545640440912      -0.87565542409615504       -3.2308254072077602E-008 F
     orb,it,eci,eold,eci-eold=                    2                   80 -0.87565561766632460      -0.87565545640440912       -1.6126191548782032E-007 F
     orb,it,eci,eold,eci-eold=                    2                   81 -0.87565564129372486      -0.87565561766632460       -2.3627400258519060E-008 F
     orb,it,eci,eold,eci-eold=                    2                   82 -0.87565564971837406      -0.87565564129372486       -8.4246492004780293E-009 F
     orb,it,eci,eold,eci-eold=                    2                   83 -0.87565579560531825      -0.87565564971837406       -1.4588694419170878E-007 F
     orb,it,eci,eold,eci-eold=                    2                   84 -0.87565588309830078      -0.87565579560531825       -8.7492982525638752E-008 F
     orb,it,eci,eold,eci-eold=                    2                   85 -0.87565592432470107      -0.87565588309830078       -4.1226400293581378E-008 F
     orb,it,eci,eold,eci-eold=                    2                   86 -0.87565593450850143      -0.87565592432470107       -1.0183800358554151E-008 F
     orb,it,eci,eold,eci-eold=                    2                   87 -0.87565600279877620      -0.87565593450850143       -6.8290274768401105E-008 F
     orb,it,eci,eold,eci-eold=                    2                   88 -0.87565602779306961      -0.87565600279877620       -2.4994293412738955E-008 F
     orb,it,eci,eold,eci-eold=                    2                   89 -0.87565603287935145      -0.87565602779306961       -5.0862818401498089E-009 F
     orb,it,eci,eold,eci-eold=                    2                   90 -0.87565608490551983      -0.87565603287935145       -5.2026168373409121E-008 F
     orb,it,eci,eold,eci-eold=                    2                   91 -0.87565610357608792      -0.87565608490551983       -1.8670568091572193E-008 F
     orb,it,eci,eold,eci-eold=                    2                   92 -0.87565610738912247      -0.87565610357608792       -3.8130345547671141E-009 F
     orb,it,eci,eold,eci-eold=                    2                   93 -0.87565614776314771      -0.87565610738912247       -4.0374025234157784E-008 F
     orb,it,eci,eold,eci-eold=                    2                   94 -0.87565616440171057      -0.87565614776314771       -1.6638562860826767E-008 F
     orb,it,eci,eold,eci-eold=                    2                   95 -0.87565616930073320      -0.87565616440171057       -4.8990226320100305E-009 F
     orb,it,eci,eold,eci-eold=                    2                   96 -0.87565620086502594      -0.87565616930073320       -3.1564292735097865E-008 F
     orb,it,eci,eold,eci-eold=                    2                   97 -0.87565620927254739      -0.87565620086502594       -8.4075214568102297E-009 F
     orb,it,eci,eold,eci-eold=                    2                   98 -0.87565621060478949      -0.87565620927254739       -1.3322420944206215E-009 F
     orb,it,eci,eold,eci-eold=                    2                   99 -0.87565623013203608      -0.87565621060478949       -1.9527246597483838E-008 F
     orb,it,eci,eold,eci-eold=                    2                  100 -0.87565623495642786      -0.87565623013203608       -4.8243917749601906E-009 F
     orb,it,eci,eold,eci-eold=                    2                  101 -0.87565623645820068      -0.87565623495642786       -1.5017728172139755E-009 F
     orb,it,eci,eold,eci-eold=                    2                  102 -0.87565625208645725      -0.87565623645820068       -1.5628256577748800E-008 F
     orb,it,eci,eold,eci-eold=                    2                  103 -0.87565625424212024      -0.87565625208645725       -2.1556629814512007E-009 F
     orb,it,eci,eold,eci-eold=                    2                  104 -0.87565625424212024      -0.87565625424212024        0.0000000000000000      F
     orbital   2 current e=  0.492948E+00 error=0.108E+00 (eci= -0.875656254E+00 error=0.000E+00) iterations 104(   0 preconditioned, Ep,Sp= 20.0  200.0)
     orb,it,eci,eold,eci-eold=                    2                    1 -0.87565627953941605      -0.87565625345349019       -2.6085925863839066E-008 F
     orb,it,eci,eold,eci-eold=                    2                    2 -0.87565629240691023      -0.87565627953941605       -1.2867494181278971E-008 F
     orb,it,eci,eold,eci-eold=                    2                    3 -0.87565629441480863      -0.87565629240691023       -2.0078984031002278E-009 F
     orb,it,eci,eold,eci-eold=                    2                    4 -0.87565629490117003      -0.87565629441480863       -4.8636139560187530E-010 F
     orbital   2 current e=  0.492971E+00 error=0.228E-04 (eci= -0.875656295E+00 error=0.486E-09) iterations   4(   0 preconditioned, Ep,Sp= 20.0  200.0)
     orb,it,eci,eold,eci-eold=                    2                    1 -0.87565630486218315      -0.87565629490117003       -9.9610131254479484E-009 F
     orb,it,eci,eold,eci-eold=                    2                    2 -0.87565630661469918      -0.87565630486218315       -1.7525160211917523E-009 F
     orb,it,eci,eold,eci-eold=                    2                    3 -0.87565630694986096      -0.87565630661469918       -3.3516178721271217E-010 F
     orbital   2 current e=  0.492983E+00 error=0.118E-04 (eci= -0.875656307E+00 error=0.335E-09) iterations   3(   0 preconditioned, Ep,Sp= 20.0  200.0)
     orb,it,eci,eold,eci-eold=                    3                    1 -0.87411665760590562      -0.87401056265619592       -1.0609494970970079E-004 F
     orb,it,eci,eold,eci-eold=                    3                    2 -0.87411820896467607      -0.87411665760590562       -1.5513587704463205E-006 F
     orb,it,eci,eold,eci-eold=                    3                    3 -0.87414971789509766      -0.87411820896467607       -3.1508930421586534E-005 F
     orb,it,eci,eold,eci-eold=                    3                    4 -0.87415766079494051      -0.87414971789509766       -7.9428998428499042E-006 F
     orb,it,eci,eold,eci-eold=                    3                    5 -0.87416850019769154      -0.87415766079494051       -1.0839402751039451E-005 F
     orb,it,eci,eold,eci-eold=                    3                    6 -0.87419263719507234      -0.87416850019769154       -2.4136997380796998E-005 F
     orb,it,eci,eold,eci-eold=                    3                    7 -0.87419986077541112      -0.87419263719507234       -7.2235803387776798E-006 F
     orb,it,eci,eold,eci-eold=                    3                    8 -0.87421099533520130      -0.87419986077541112       -1.1134559790182408E-005 F
     orb,it,eci,eold,eci-eold=                    3                    9 -0.87423634551702500      -0.87421099533520130       -2.5350181823702300E-005 F
     orb,it,eci,eold,eci-eold=                    3                   10 -0.87424770237317750      -0.87423634551702500       -1.1356856152500150E-005 F
     orb,it,eci,eold,eci-eold=                    3                   11 -0.87425875851184609      -0.87424770237317750       -1.1056138668585902E-005 F
     orb,it,eci,eold,eci-eold=                    3                   12 -0.87427959294442836      -0.87425875851184609       -2.0834432582272910E-005 F
     orb,it,eci,eold,eci-eold=                    3                   13 -0.87428335248666533      -0.87427959294442836       -3.7595422369696152E-006 F
     orb,it,eci,eold,eci-eold=                    3                   14 -0.87428873244669292      -0.87428335248666533       -5.3799600275850068E-006 F
     orb,it,eci,eold,eci-eold=                    3                   15 -0.87430305120689300      -0.87428873244669292       -1.4318760200082714E-005 F
     orb,it,eci,eold,eci-eold=                    3                   16 -0.87430561902315096      -0.87430305120689300       -2.5678162579589880E-006 F
     orb,it,eci,eold,eci-eold=                    3                   17 -0.87430896166261873      -0.87430561902315096       -3.3426394677738003E-006 F
     orb,it,eci,eold,eci-eold=                    3                   18 -0.87431962519528983      -0.87430896166261873       -1.0663532671095766E-005 F
     orb,it,eci,eold,eci-eold=                    3                   19 -0.87432171293297134      -0.87431962519528983       -2.0877376815109372E-006 F
     orb,it,eci,eold,eci-eold=                    3                   20 -0.87432380313712765      -0.87432171293297134       -2.0902041563131135E-006 F
     orb,it,eci,eold,eci-eold=                    3                   21 -0.87433154343517805      -0.87432380313712765       -7.7402980503959995E-006 F
     orb,it,eci,eold,eci-eold=                    3                   22 -0.87433333955894255      -0.87433154343517805       -1.7961237644970041E-006 F
     orb,it,eci,eold,eci-eold=                    3                   23 -0.87433482437389753      -0.87433333955894255       -1.4848149549884226E-006 F
     orb,it,eci,eold,eci-eold=                    3                   24 -0.87434088062143145      -0.87433482437389753       -6.0562475339143163E-006 F
     orb,it,eci,eold,eci-eold=                    3                   25 -0.87434252529709511      -0.87434088062143145       -1.6446756636590010E-006 F
     orb,it,eci,eold,eci-eold=                    3                   26 -0.87434352230688139      -0.87434252529709511       -9.9700978628547432E-007 F
     orb,it,eci,eold,eci-eold=                    3                   27 -0.87434821345549985      -0.87434352230688139       -4.6911486184519902E-006 F
     orb,it,eci,eold,eci-eold=                    3                   28 -0.87434989604485414      -0.87434821345549985       -1.6825893542904424E-006 F
     orb,it,eci,eold,eci-eold=                    3                   29 -0.87435074163462256      -0.87434989604485414       -8.4558976842785682E-007 F
     orb,it,eci,eold,eci-eold=                    3                   30 -0.87435417711263619      -0.87435074163462256       -3.4354780136247598E-006 F
     orb,it,eci,eold,eci-eold=                    3                   31 -0.87435549640935506      -0.87435417711263619       -1.3192967188713212E-006 F
     orb,it,eci,eold,eci-eold=                    3                   32 -0.87435628958697598      -0.87435549640935506       -7.9317762091690724E-007 F
     orb,it,eci,eold,eci-eold=                    3                   33 -0.87435883426013994      -0.87435628958697598       -2.5446731639622300E-006 F
     orb,it,eci,eold,eci-eold=                    3                   34 -0.87435953403212985      -0.87435883426013994       -6.9977198990933687E-007 F
     orb,it,eci,eold,eci-eold=                    3                   35 -0.87436008503112927      -0.87435953403212985       -5.5099899942678832E-007 F
     orb,it,eci,eold,eci-eold=                    3                   36 -0.87436211141131503      -0.87436008503112927       -2.0263801857600683E-006 F
     orb,it,eci,eold,eci-eold=                    3                   37 -0.87436246511038251      -0.87436211141131503       -3.5369906747906299E-007 F
     orb,it,eci,eold,eci-eold=                    3                   38 -0.87436267424327441      -0.87436246511038251       -2.0913289189294915E-007 F
     orb,it,eci,eold,eci-eold=                    3                   39 -0.87436427064732347      -0.87436267424327441       -1.5964040490645814E-006 F
     orb,it,eci,eold,eci-eold=                    3                   40 -0.87436469586578380      -0.87436427064732347       -4.2521846033150013E-007 F
     orb,it,eci,eold,eci-eold=                    3                   41 -0.87436475835270899      -0.87436469586578380       -6.2486925189730869E-008 F
     orb,it,eci,eold,eci-eold=                    3                   42 -0.87436590487316868      -0.87436475835270899       -1.1465204596827760E-006 F
     orb,it,eci,eold,eci-eold=                    3                   43 -0.87436647403680401      -0.87436590487316868       -5.6916363533332515E-007 F
     orb,it,eci,eold,eci-eold=                    3                   44 -0.87436664931076913      -0.87436647403680401       -1.7527396511951565E-007 F
     orb,it,eci,eold,eci-eold=                    3                   45 -0.87436749856899199      -0.87436664931076913       -8.4925822285697450E-007 F
     orb,it,eci,eold,eci-eold=                    3                   46 -0.87436782349690834      -0.87436749856899199       -3.2492791635085894E-007 F
     orb,it,eci,eold,eci-eold=                    3                   47 -0.87436799580176716      -0.87436782349690834       -1.7230485882535618E-007 F
     orb,it,eci,eold,eci-eold=                    3                   48 -0.87436873591430775      -0.87436799580176716       -7.4011254058703457E-007 F
     orb,it,eci,eold,eci-eold=                    3                   49 -0.87436890176295923      -0.87436873591430775       -1.6584865147883932E-007 F
     orb,it,eci,eold,eci-eold=                    3                   50 -0.87436895352164101      -0.87436890176295923       -5.1758681784974669E-008 F
     orb,it,eci,eold,eci-eold=                    3                   51 -0.87436955817016071      -0.87436895352164101       -6.0464851969754818E-007 F
     orb,it,eci,eold,eci-eold=                    3                   52 -0.87436982490848070      -0.87436955817016071       -2.6673831998724751E-007 F
     orb,it,eci,eold,eci-eold=                    3                   53 -0.87436987582750847      -0.87436982490848070       -5.0919027771989533E-008 F
     orb,it,eci,eold,eci-eold=                    3                   54 -0.87437030170788388      -0.87436987582750847       -4.2588037540980395E-007 F
     orb,it,eci,eold,eci-eold=                    3                   55 -0.87437053002667453      -0.87437030170788388       -2.2831879065154936E-007 F
     orb,it,eci,eold,eci-eold=                    3                   56 -0.87437062561046153      -0.87437053002667453       -9.5583786996478182E-008 F
     orb,it,eci,eold,eci-eold=                    3                   57 -0.87437095454267433      -0.87437062561046153       -3.2893221280083651E-007 F
     orb,it,eci,eold,eci-eold=                    3                   58 -0.87437104861137660      -0.87437095454267433       -9.4068702272132043E-008 F
     orb,it,eci,eold,eci-eold=                    3                   59 -0.87437111365964104      -0.87437104861137660       -6.5048264441536219E-008 F
     orb,it,eci,eold,eci-eold=                    3                   60 -0.87437141167562171      -0.87437111365964104       -2.9801598067091817E-007 F
     orb,it,eci,eold,eci-eold=                    3                   61 -0.87437144618790652      -0.87437141167562171       -3.4512284807775018E-008 F
     orb,it,eci,eold,eci-eold=                    3                   62 -0.87437146737908544      -0.87437144618790652       -2.1191178922741472E-008 F
     orb,it,eci,eold,eci-eold=                    3                   63 -0.87437176828805563      -0.87437146737908544       -3.0090897018553164E-007 F
     orb,it,eci,eold,eci-eold=                    3                   64 -0.87437194358745429      -0.87437176828805563       -1.7529939866367528E-007 F
     orb,it,eci,eold,eci-eold=                    3                   65 -0.87437205661927919      -0.87437194358745429       -1.1303182489985630E-007 F
     orb,it,eci,eold,eci-eold=                    3                   66 -0.87437209949453654      -0.87437205661927919       -4.2875257344476836E-008 F
     orb,it,eci,eold,eci-eold=                    3                   67 -0.87437224048494622      -0.87437209949453654       -1.4099040968051924E-007 F
     orb,it,eci,eold,eci-eold=                    3                   68 -0.87437228572873527      -0.87437224048494622       -4.5243789048576843E-008 F
     orb,it,eci,eold,eci-eold=                    3                   69 -0.87437230144452993      -0.87437228572873527       -1.5715794665638327E-008 F
     orb,it,eci,eold,eci-eold=                    3                   70 -0.87437240625939927      -0.87437230144452993       -1.0481486933944240E-007 F
     orb,it,eci,eold,eci-eold=                    3                   71 -0.87437245701981114      -0.87437240625939927       -5.0760411873795874E-008 F
     orb,it,eci,eold,eci-eold=                    3                   72 -0.87437247549830632      -0.87437245701981114       -1.8478495178442245E-008 F
     orb,it,eci,eold,eci-eold=                    3                   73 -0.87437255310960071      -0.87437247549830632       -7.7611294391211061E-008 F
     orb,it,eci,eold,eci-eold=                    3                   74 -0.87437257602351381      -0.87437255310960071       -2.2913913100275352E-008 F
     orb,it,eci,eold,eci-eold=                    3                   75 -0.87437258815452301      -0.87437257602351381       -1.2131009197169362E-008 F
     orb,it,eci,eold,eci-eold=                    3                   76 -0.87437265986603885      -0.87437258815452301       -7.1711515836625495E-008 F
     orb,it,eci,eold,eci-eold=                    3                   77 -0.87437267748965863      -0.87437265986603885       -1.7623619785744893E-008 F
     orb,it,eci,eold,eci-eold=                    3                   78 -0.87437267748965863      -0.87437267748965863        0.0000000000000000      F
     orbital   3 current e=  0.430100E+00 error=0.655E-01 (eci= -0.874372677E+00 error=0.000E+00) iterations  78(   0 preconditioned, Ep,Sp= 20.0  200.0)
     orb,it,eci,eold,eci-eold=                    3                    1 -0.87437286202749331      -0.87437267693584309       -1.8509165022884133E-007 F
     orb,it,eci,eold,eci-eold=                    3                    2 -0.87437291151050156      -0.87437286202749331       -4.9483008246475890E-008 F
     orb,it,eci,eold,eci-eold=                    3                    3 -0.87437295276183014      -0.87437291151050156       -4.1251328575242496E-008 F
     orb,it,eci,eold,eci-eold=                    3                    4 -0.87437295276183014      -0.87437295276183014        0.0000000000000000      F
     orbital   3 current e=  0.430145E+00 error=0.450E-04 (eci= -0.874372953E+00 error=0.000E+00) iterations   4(   0 preconditioned, Ep,Sp= 20.0  200.0)
     orb,it,eci,eold,eci-eold=                    3                    1 -0.87437300198437184      -0.87437295194091647       -5.0043455379622515E-008 F
     orb,it,eci,eold,eci-eold=                    3                    2 -0.87437303594156202      -0.87437300198437184       -3.3957190170852414E-008 F
     orb,it,eci,eold,eci-eold=                    3                    3 -0.87437306248738655      -0.87437303594156202       -2.6545824538537488E-008 F
     orb,it,eci,eold,eci-eold=                    3                    4 -0.87437307627196170      -0.87437306248738655       -1.3784575148001466E-008 F
     orb,it,eci,eold,eci-eold=                    3                    5 -0.87437309144024256      -0.87437307627196170       -1.5168280853572469E-008 F
     orb,it,eci,eold,eci-eold=                    3                    6 -0.87437310038197347      -0.87437309144024256       -8.9417309112604926E-009 F
     orb,it,eci,eold,eci-eold=                    3                    7 -0.87437310833371240      -0.87437310038197347       -7.9517389339756051E-009 F
     orb,it,eci,eold,eci-eold=                    3                    8 -0.87437311257235872      -0.87437310833371240       -4.2386463228183402E-009 F
     orb,it,eci,eold,eci-eold=                    3                    9 -0.87437311355747904      -0.87437311257235872       -9.8512031865283234E-010 F
     orbital   3 current e=  0.430167E+00 error=0.219E-04 (eci= -0.874373114E+00 error=0.985E-09) iterations   9(   0 preconditioned, Ep,Sp= 20.0  200.0)
     orb,it,eci,eold,eci-eold=                    4                    1 -0.87411665847477793      -0.87401056265335875       -1.0609582141918317E-004 F
     orb,it,eci,eold,eci-eold=                    4                    2 -0.87411820475726787      -0.87411665847477793       -1.5462824899392658E-006 F
     orb,it,eci,eold,eci-eold=                    4                    3 -0.87414971767446503      -0.87411820475726787       -3.1512917197162871E-005 F
     orb,it,eci,eold,eci-eold=                    4                    4 -0.87415765840213866      -0.87414971767446503       -7.9407276736276344E-006 F
     orb,it,eci,eold,eci-eold=                    4                    5 -0.87416849372936345      -0.87415765840213866       -1.0835327224789637E-005 F
     orb,it,eci,eold,eci-eold=                    4                    6 -0.87419262530153974      -0.87416849372936345       -2.4131572176289140E-005 F
     orb,it,eci,eold,eci-eold=                    4                    7 -0.87419984793611161      -0.87419262530153974       -7.2226345718684470E-006 F
     orb,it,eci,eold,eci-eold=                    4                    8 -0.87421098586463586      -0.87419984793611161       -1.1137928524251883E-005 F
     orb,it,eci,eold,eci-eold=                    4                    9 -0.87423633153056635      -0.87421098586463586       -2.5345665930487371E-005 F
     orb,it,eci,eold,eci-eold=                    4                   10 -0.87424768662966512      -0.87423633153056635       -1.1355099098775412E-005 F
     orb,it,eci,eold,eci-eold=                    4                   11 -0.87425874575405393      -0.87424768662966512       -1.1059124388812513E-005 F
     orb,it,eci,eold,eci-eold=                    4                   12 -0.87427957602305828      -0.87425874575405393       -2.0830269004346036E-005 F
     orb,it,eci,eold,eci-eold=                    4                   13 -0.87428333540107372      -0.87427957602305828       -3.7593780154443479E-006 F
     orb,it,eci,eold,eci-eold=                    4                   14 -0.87428871971732613      -0.87428333540107372       -5.3843162524103150E-006 F
     orb,it,eci,eold,eci-eold=                    4                   15 -0.87430303646788732      -0.87428871971732613       -1.4316750561182978E-005 F
     orb,it,eci,eold,eci-eold=                    4                   16 -0.87430559973417155      -0.87430303646788732       -2.5632662842278719E-006 F
     orb,it,eci,eold,eci-eold=                    4                   17 -0.87430894382748525      -0.87430559973417155       -3.3440933137063311E-006 F
     orb,it,eci,eold,eci-eold=                    4                   18 -0.87431961015998605      -0.87430894382748525       -1.0666332500797182E-005 F
     orb,it,eci,eold,eci-eold=                    4                   19 -0.87432169387403369      -0.87431961015998605       -2.0837140476404059E-006 F
     orb,it,eci,eold,eci-eold=                    4                   20 -0.87432378189926474      -0.87432169387403369       -2.0880252310506719E-006 F
     orb,it,eci,eold,eci-eold=                    4                   21 -0.87433152703506989      -0.87432378189926474       -7.7451358051483510E-006 F
     orb,it,eci,eold,eci-eold=                    4                   22 -0.87433332259647356      -0.87433152703506989       -1.7955614036724299E-006 F
     orb,it,eci,eold,eci-eold=                    4                   23 -0.87433480360126126      -0.87433332259647356       -1.4810047876956389E-006 F
     orb,it,eci,eold,eci-eold=                    4                   24 -0.87434086480103546      -0.87433480360126126       -6.0611997741988333E-006 F
     orb,it,eci,eold,eci-eold=                    4                   25 -0.87434251165530819      -0.87434086480103546       -1.6468542727299251E-006 F
     orb,it,eci,eold,eci-eold=                    4                   26 -0.87434350527925853      -0.87434251165530819       -9.9362395034052753E-007 F
     orb,it,eci,eold,eci-eold=                    4                   27 -0.87434820030717419      -0.87434350527925853       -4.6950279156687813E-006 F
     orb,it,eci,eold,eci-eold=                    4                   28 -0.87434988655525836      -0.87434820030717419       -1.6862480841650651E-006 F
     orb,it,eci,eold,eci-eold=                    4                   29 -0.87435073079540238      -0.87434988655525836       -8.4424014401562886E-007 F
     orb,it,eci,eold,eci-eold=                    4                   30 -0.87435416802886234      -0.87435073079540238       -3.4372334599686027E-006 F
     orb,it,eci,eold,eci-eold=                    4                   31 -0.87435549018290659      -0.87435416802886234       -1.3221540442476254E-006 F
     orb,it,eci,eold,eci-eold=                    4                   32 -0.87435628417150602      -0.87435549018290659       -7.9398859942347855E-007 F
     orb,it,eci,eold,eci-eold=                    4                   33 -0.87435882901155360      -0.87435628417150602       -2.5448400475802657E-006 F
     orb,it,eci,eold,eci-eold=                    4                   34 -0.87435952932083782      -0.87435882901155360       -7.0030928422948335E-007 F
     orb,it,eci,eold,eci-eold=                    4                   35 -0.87436008178751901      -0.87435952932083782       -5.5246668118069664E-007 F
     orb,it,eci,eold,eci-eold=                    4                   36 -0.87436210848057494      -0.87436008178751901       -2.0266930559342811E-006 F
     orb,it,eci,eold,eci-eold=                    4                   37 -0.87436246128914363      -0.87436210848057494       -3.5280856869324140E-007 F
     orb,it,eci,eold,eci-eold=                    4                   38 -0.87436267106106502      -0.87436246128914363       -2.0977192138893486E-007 F
     orb,it,eci,eold,eci-eold=                    4                   39 -0.87436426828997749      -0.87436267106106502       -1.5972289124643879E-006 F
     orb,it,eci,eold,eci-eold=                    4                   40 -0.87436469301604980      -0.87436426828997749       -4.2472607231225368E-007 F
     orb,it,eci,eold,eci-eold=                    4                   41 -0.87436475534104441      -0.87436469301604980       -6.2324994609674889E-008 F
     orb,it,eci,eold,eci-eold=                    4                   42 -0.87436590215189580      -0.87436475534104441       -1.1468108513934538E-006 F
     orb,it,eci,eold,eci-eold=                    4                   43 -0.87436647199448281      -0.87436590215189580       -5.6984258700598645E-007 F
     orb,it,eci,eold,eci-eold=                    4                   44 -0.87436664752632676      -0.87436647199448281       -1.7553184394891730E-007 F
     orb,it,eci,eold,eci-eold=                    4                   45 -0.87436749670580804      -0.87436664752632676       -8.4917948128815368E-007 F
     orb,it,eci,eold,eci-eold=                    4                   46 -0.87436782184126216      -0.87436749670580804       -3.2513545411561040E-007 F
     orb,it,eci,eold,eci-eold=                    4                   47 -0.87436799455338354      -0.87436782184126216       -1.7271212138236791E-007 F
     orb,it,eci,eold,eci-eold=                    4                   48 -0.87436873465011833      -0.87436799455338354       -7.4009673478592219E-007 F
     orb,it,eci,eold,eci-eold=                    4                   49 -0.87436890048131910      -0.87436873465011833       -1.6583120077129365E-007 F
     orb,it,eci,eold,eci-eold=                    4                   50 -0.87436895254973901      -0.87436890048131910       -5.2068419909012675E-008 F
     orb,it,eci,eold,eci-eold=                    4                   51 -0.87436955722488618      -0.87436895254973901       -6.0467514717554849E-007 F
     orb,it,eci,eold,eci-eold=                    4                   52 -0.87436982372717786      -0.87436955722488618       -2.6650229167923811E-007 F
     orb,it,eci,eold,eci-eold=                    4                   53 -0.87436987474955419      -0.87436982372717786       -5.1022376323928142E-008 F
     orb,it,eci,eold,eci-eold=                    4                   54 -0.87437030068296573      -0.87436987474955419       -4.2593341154084641E-007 F
     orb,it,eci,eold,eci-eold=                    4                   55 -0.87437052891212974      -0.87437030068296573       -2.2822916401210591E-007 F
     orb,it,eci,eold,eci-eold=                    4                   56 -0.87437062449077474      -0.87437052891212974       -9.5578644998539630E-008 F
     orb,it,eci,eold,eci-eold=                    4                   57 -0.87437095348009575      -0.87437062449077474       -3.2898932100788869E-007 F
     orb,it,eci,eold,eci-eold=                    4                   58 -0.87437104762602136      -0.87437095348009575       -9.4145925610966685E-008 F
     orb,it,eci,eold,eci-eold=                    4                   59 -0.87437111269870282      -0.87437104762602136       -6.5072681465494497E-008 F
     orb,it,eci,eold,eci-eold=                    4                   60 -0.87437141078945713      -0.87437111269870282       -2.9809075430264897E-007 F
     orb,it,eci,eold,eci-eold=                    4                   61 -0.87437144553692359      -0.87437141078945713       -3.4747466459705834E-008 F
     orb,it,eci,eold,eci-eold=                    4                   62 -0.87437146682314226      -0.87437144553692359       -2.1286218676586088E-008 F
     orb,it,eci,eold,eci-eold=                    4                   63 -0.87437176785794890      -0.87437146682314226       -3.0103480663790094E-007 F
     orb,it,eci,eold,eci-eold=                    4                   64 -0.87437194305376997      -0.87437176785794890       -1.7519582107272669E-007 F
     orb,it,eci,eold,eci-eold=                    4                   65 -0.87437205616775027      -0.87437194305376997       -1.1311398029345554E-007 F
     orb,it,eci,eold,eci-eold=                    4                   66 -0.87437209915703107      -0.87437205616775027       -4.2989280801819518E-008 F
     orb,it,eci,eold,eci-eold=                    4                   67 -0.87437224022716775      -0.87437209915703107       -1.4107013668329671E-007 F
     orb,it,eci,eold,eci-eold=                    4                   68 -0.87437228543591716      -0.87437224022716775       -4.5208749410718951E-008 F
     orb,it,eci,eold,eci-eold=                    4                   69 -0.87437230116966713      -0.87437228543591716       -1.5733749969548683E-008 F
     orb,it,eci,eold,eci-eold=                    4                   70 -0.87437240602122324      -0.87437230116966713       -1.0485155610417962E-007 F
     orb,it,eci,eold,eci-eold=                    4                   71 -0.87437245685463816      -0.87437240602122324       -5.0833414921847009E-008 F
     orb,it,eci,eold,eci-eold=                    4                   72 -0.87437247541193530      -0.87437245685463816       -1.8557297143395601E-008 F
     orb,it,eci,eold,eci-eold=                    4                   73 -0.87437255309677653      -0.87437247541193530       -7.7684841226499657E-008 F
     orb,it,eci,eold,eci-eold=                    4                   74 -0.87437257591932438      -0.87437255309677653       -2.2822547851575337E-008 F
     orb,it,eci,eold,eci-eold=                    4                   75 -0.87437258802570028      -0.87437257591932438       -1.2106375901765887E-008 F
     orb,it,eci,eold,eci-eold=                    4                   76 -0.87437265987716661      -0.87437258802570028       -7.1851466332262248E-008 F
     orb,it,eci,eold,eci-eold=                    4                   77 -0.87437267762756443      -0.87437265987716661       -1.7750397818261376E-008 F
     orb,it,eci,eold,eci-eold=                    4                   78 -0.87437267762756443      -0.87437267762756443        0.0000000000000000      F
     orbital   4 current e=  0.430100E+00 error=0.655E-01 (eci= -0.874372678E+00 error=0.000E+00) iterations  78(   0 preconditioned, Ep,Sp= 20.0  200.0)
     orb,it,eci,eold,eci-eold=                    4                    1 -0.87437286242228063      -0.87437267707092137       -1.8535135926089907E-007 F
     orb,it,eci,eold,eci-eold=                    4                    2 -0.87437291188675204      -0.87437286242228063       -4.9464471407745236E-008 F
     orb,it,eci,eold,eci-eold=                    4                    3 -0.87437295309837504      -0.87437291188675204       -4.1211623003079012E-008 F
     orb,it,eci,eold,eci-eold=                    4                    4 -0.87437295309837504      -0.87437295309837504        0.0000000000000000      F
     orbital   4 current e=  0.430145E+00 error=0.451E-04 (eci= -0.874372953E+00 error=0.000E+00) iterations   4(   0 preconditioned, Ep,Sp= 20.0  200.0)
     orb,it,eci,eold,eci-eold=                    4                    1 -0.87437300238521998      -0.87437295233321954       -5.0052000433176147E-008 F
     orb,it,eci,eold,eci-eold=                    4                    2 -0.87437303640003017      -0.87437300238521998       -3.4014810190718947E-008 F
     orb,it,eci,eold,eci-eold=                    4                    3 -0.87437306311399765      -0.87437303640003017       -2.6713967482550061E-008 F
     orb,it,eci,eold,eci-eold=                    4                    4 -0.87437307703509248      -0.87437306311399765       -1.3921094832447523E-008 F
[...]
    8    5    8    8       -0.0000009730
    8    5    9    8       -0.0000002408
    8    5   10    8        0.0000003395
    8    5   11    8        0.0261060836
    8    5    9    9       -0.0000007259
    8    5   10    9       -0.0000001676
    8    5   11    9        0.0314905182
    8    5   10   10        0.0000000832
    8    5   11   10       -0.0000405896
    8    5   11   11        0.0000027788
    9    5    9    5        0.0982474674
    9    5   10    5        0.0000100354
    9    5   11    5        0.0000032091
    9    5    6    6        0.0000102692
    9    5    7    6       -0.0000148932
    9    5    8    6       -0.0760439996
    9    5    9    6        0.0450860448
    9    5   10    6        0.0000018186
    9    5   11    6       -0.0000001220
    9    5    7    7        0.0000792218
    9    5    8    7       -0.0000000304
    9    5    9    7       -0.0000000725
    9    5   10    7        0.0000016324
    9    5   11    7        0.0001850630
    9    5    8    8       -0.0000014496
    9    5    9    8       -0.0000001229
    9    5   10    8        0.0000006133
    9    5   11    8        0.0379869814
    9    5    9    9       -0.0000018312
    9    5   10    9       -0.0000004456
    9    5   11    9        0.0657432787
    9    5   10   10        0.0000001526
    9    5   11   10       -0.0000780704
    9    5   11   11        0.0000052142
   10    5   10    5        0.0169952987
   10    5   11    5       -0.0000000786
   10    5    6    6        0.0000001069
   10    5    7    6       -0.0000000013
   10    5    8    6       -0.0000076458
   10    5    9    6        0.0000042037
   10    5   10    6       -0.0000000002
   10    5   11    6       -0.0000001502
   10    5    7    7        0.0000000642
   10    5    8    7        0.0000009242
   10    5    9    7        0.0000017893
   10    5   10    7       -0.0000000589
   10    5   11    7       -0.0004348513
   10    5    8    8        0.0000000779
   10    5    9    8        0.0000000061
   10    5   10    8        0.0000000874
   10    5   11    8       -0.0000072369
   10    5    9    9        0.0000000554
   10    5   10    9        0.0000001670
   10    5   11    9       -0.0000138520
   10    5   10   10        0.0000001379
   10    5   11   10       -0.0012731196
   10    5   11   11        0.0000001019
   11    5   11    5        0.0493673338
   11    5    6    6        0.0066955827
   11    5    7    6        0.0000000005
   11    5    8    6       -0.0000026436
   11    5    9    6        0.0000013360
   11    5   10    6       -0.0000007055
   11    5   11    6       -0.0040567270
   11    5    7    7        0.0355913316
   11    5    8    7        0.0000003646
   11    5    9    7        0.0000022275
   11    5   10    7        0.0064965507
   11    5   11    7        0.0000000458
   11    5    8    8        0.0325374841
   11    5    9    8        0.0034240645
   11    5   10    8       -0.0000061457
   11    5   11    8        0.0000007926
   11    5    9    9        0.0363667468
   11    5   10    9       -0.0000114715
   11    5   11    9        0.0000012263
   11    5   10   10        0.0324555191
   11    5   11   10        0.0000000274
   11    5   11   11        0.0243045017
    6    6    6    6        0.3414927570
    6    6    7    6       -0.0000000071
    6    6    8    6       -0.0000123412
    6    6    9    6        0.0000063812
    6    6   10    6        0.0000013985
    6    6   11    6       -0.0004202359
    6    6    7    7        0.3067640896
    6    6    8    7        0.0000021253
    6    6    9    7       -0.0000008928
    6    6   10    7       -0.0169262417
    6    6   11    7       -0.0000000783
    6    6    8    8        0.3415364603
    6    6    9    8       -0.0106385834
    6    6   10    8       -0.0000003335
    6    6   11    8        0.0000035535
    6    6    9    9        0.3267968761
    6    6   10    9        0.0000001279
    6    6   11    9        0.0000053040
    6    6   10   10        0.3444975106
    6    6   11   10        0.0000000521
    6    6   11   11        0.3272557199
    7    6    7    6        0.0100895608
    7    6    8    6        0.0000099311
    7    6    9    6       -0.0000051741
    7    6   10    6       -0.0006400285
    7    6   11    6       -0.0000000099
    7    6    7    7       -0.0000000135
    7    6    8    7       -0.0000105203
    7    6    9    7        0.0000054448
    7    6   10    7       -0.0000001957
    7    6   11    7       -0.0006533002
    7    6    8    8        0.0000000022
    7    6    9    8        0.0000000058
    7    6   10    8       -0.0000035891
    7    6   11    8       -0.0000179681
    7    6    9    9       -0.0000000113
    7    6   10    9        0.0000018591
    7    6   11    9        0.0000003800
    7    6   10   10       -0.0000002301
    7    6   11   10        0.0000039777
    7    6   11   11       -0.0000000065
    8    6    8    6        0.0982550855
    8    6    9    6       -0.0450807135
    8    6   10    6       -0.0000008466
    8    6   11    6        0.0000004807
    8    6    7    7       -0.0000792265
    8    6    8    7        0.0000000295
    8    6    9    7        0.0000000623
    8    6   10    7       -0.0000016249
    8    6   11    7       -0.0001932564
    8    6    8    8        0.0000018789
    8    6    9    8       -0.0000001233
    8    6   10    8       -0.0000007294
    8    6   11    8       -0.0391072979
    8    6    9    9        0.0000014055
    8    6   10    9        0.0000004318
    8    6   11    9       -0.0535812588
    8    6   10   10       -0.0000001496
    8    6   11   10        0.0000763552
    8    6   11   11       -0.0000047158
    9    6    9    6        0.0347275029
    9    6   10    6        0.0000004012
    9    6   11    6        0.0000001207
    9    6    7    7        0.0000409849
    9    6    8    7       -0.0000000067
    9    6    9    7       -0.0000000367
    9    6   10    7        0.0000008431
    9    6   11    7        0.0000991532
    9    6    8    8       -0.0000007487
    9    6    9    8        0.0000002394
    9    6   10    8        0.0000003542
    9    6   11    8        0.0137805702
    9    6    9    9       -0.0000009483
    9    6   10    9       -0.0000002859
    9    6   11    9        0.0302428559
    9    6   10   10        0.0000000729
    9    6   11   10       -0.0000396179
    9    6   11   11        0.0000023597
   10    6   10    6        0.0169952987
   10    6   11    6        0.0000000746
   10    6    7    7        0.0000005695
   10    6    8    7       -0.0000017839
   10    6    9    7        0.0000009240
   10    6   10    7       -0.0000006087
   10    6   11    7        0.0000417063
   10    6    8    8        0.0000007451
   10    6    9    8        0.0000000112
   10    6   10    8       -0.0000001471
   10    6   11    8        0.0000131914
   10    6    9    9        0.0000007574
   10    6   10    9        0.0000000744
   10    6   11    9       -0.0000067873
   10    6   10   10        0.0000014645
   10    6   11   10        0.0001225388
   10    6   11   11        0.0000010545
   11    6   11    6        0.0080002325
   11    6    7    7       -0.0034206073
   11    6    8    7       -0.0000086754
   11    6    9    7        0.0000038105
   11    6   10    7       -0.0006246017
   11    6   11    7       -0.0000000047
   11    6    8    8       -0.0066448830
   11    6    9    8       -0.0019303090
   11    6   10    8        0.0000095376
   11    6   11    8       -0.0000001755
   11    6    9    9        0.0000164118
   11    6   10    9       -0.0000049916
   11    6   11    9       -0.0000000750
   11    6   10   10       -0.0031191454
   11    6   11   10        0.0000000597
   11    6   11   11       -0.0023009547
    7    7    7    7        0.3487762711
    7    7    8    7        0.0000001464
    7    7    9    7        0.0000003389
    7    7   10    7       -0.0147114424
    7    7   11    7        0.0000001714
    7    7    8    8        0.3330563098
    7    7    9    8        0.0000000014
    7    7   10    8        0.0000000445
    7    7   11    8        0.0000356614
    7    7    9    9        0.3330121900
    7    7   10    9        0.0000000834
    7    7   11    9        0.0000551766
    7    7   10   10        0.3584070703
    7    7   11   10       -0.0000000205
    7    7   11   11        0.3335506787
    8    7    8    7        0.0150845488
    8    7    9    7       -0.0000000001
    8    7   10    7       -0.0000000250
    8    7   11    7        0.0000031193
    8    7    8    8        0.0000001735
    8    7    9    8        0.0000000231
    8    7   10    8       -0.0005492557
    8    7   11    8       -0.0000000194
    8    7    9    9        0.0000001656
    8    7   10    9       -0.0000000017
    8    7   11    9       -0.0000000222
    8    7   10   10        0.0000001673
    8    7   11   10       -0.0000009443
    8    7   11   11        0.0000389147
    9    7    9    7        0.0150843844
    9    7   10    7       -0.0000000632
    9    7   11    7        0.0000048255
    9    7    8    8        0.0000003677
    9    7    9    8        0.0000000185
    9    7   10    8        0.0000000014
    9    7   11    8       -0.0000000319
    9    7    9    9        0.0000004226
    9    7   10    9       -0.0005489477
    9    7   11    9       -0.0000000564
    9    7   10   10        0.0000003943
    9    7   11   10       -0.0000014648
    9    7   11   11        0.0000604188
   10    7   10    7        0.0190554121
   10    7   11    7        0.0000000179
   10    7    8    8       -0.0131451471
   10    7    9    8       -0.0000000000
   10    7   10    8       -0.0000000273
   10    7   11    8        0.0000004873
   10    7    9    9       -0.0131524869
   10    7   10    9       -0.0000000695
   10    7   11    9        0.0000007512
   10    7   10   10       -0.0147638893
   10    7   11   10       -0.0000000060
   10    7   11   11       -0.0129089715
   11    7   11    7        0.0086749777
   11    7    8    8       -0.0000000887
   11    7    9    8       -0.0000000039
   11    7   10    8       -0.0000012607
   11    7   11    8        0.0001260490
   11    7    9    9       -0.0000000939
   11    7   10    9       -0.0000019561
   11    7   11    9        0.0001951193
   11    7   10   10       -0.0000000926
   11    7   11   10        0.0017746954
   11    7   11   11       -0.0000000752
    8    8    8    8        0.3758062417
    8    8    9    8        0.0000004842
    8    8   10    8        0.0000001115
    8    8   11    8       -0.0000027886
    8    8    9    9        0.3445013626
    8    8   10    9        0.0000002029
    8    8   11    9       -0.0000036763
    8    8   10   10        0.3687220463
    8    8   11   10        0.0000002031
    8    8   11   11        0.3513284180
    9    8    9    8        0.0163207845
    9    8   10    8        0.0000000296
    9    8   11    8       -0.0000003526
    9    8    9    9       -0.0000004802
    9    8   10    9        0.0000000221
    9    8   11    9       -0.0000002181
    9    8   10   10        0.0000000018
    9    8   11   10        0.0000000805
    9    8   11   11        0.0113938812
   10    8   10    8        0.0208668162
   10    8   11    8        0.0000004403
   10    8    9    9        0.0000001017
   10    8   10    9        0.0000000001
   10    8   11    9        0.0000005878
   10    8   10   10        0.0000001181
   10    8   11   10       -0.0000002783
   10    8   11   11       -0.0000195870
   11    8   11    8        0.0302529998
   11    8    9    9       -0.0000023347
   11    8   10    9       -0.0000001867
   11    8   11    9        0.0349987292
   11    8   10   10       -0.0000018929
   11    8   11   10       -0.0000453391
   11    8   11   11        0.0000006766
    9    9    9    9        0.3757043042
    9    9   10    9        0.0000002675
    9    9   11    9       -0.0000042917
    9    9   10   10        0.3686703162
    9    9   11   10       -0.0000001458
    9    9   11   11        0.3613632164
   10    9   10    9        0.0208783184
   10    9   11    9       -0.0000004524
   10    9   10   10        0.0000002651
   10    9   11   10       -0.0000004307
   10    9   11   11       -0.0000302186
   11    9   11    9        0.0617216027
   11    9   10   10       -0.0000029507
   11    9   11   10       -0.0000701447
   11    9   11   11        0.0000010389
   10   10   10   10        0.4258986985
   10   10   11   10        0.0000000445
   10   10   11   11        0.3817680725
   11   10   11   10        0.0180185994
   11   10   11   11        0.0000000398
   11   11   11   11        0.3873250763
 end_two_electron_integrals


 output epsi filename:./pspw_hf_H2.emovecs

 Total PSPW energy     :  -0.8718278715E+00


=== Spin Contamination ===

 <Sexact^2> =    0.0000000000000000     
 <S^2>      =    0.0000000000000000     



== Center of Charge ==

spin up     (    0.0000,    0.0000,    0.0001 )
spin down   (    0.0000,    0.0000,    0.0001 )
     total  (    0.0000,    0.0000,    0.0001 )
ionic       (    0.0000,    0.0000,    0.0000 )


== Molecular Dipole wrt Center of Mass ==

mu   =  (   -0.0000,   -0.0000,   -0.0002 ) au
|mu| =     0.0002 au,       0.0006 Debye

 output psi filename:./pspw_hf_H2.movecs

 Writing Crystallographic Information File:./H2.cif
   - cell not shifted (nwpw:cif_shift_cell .false.)


== Timing ==

cputime in seconds
  prologue    :   0.604870E+01
  main loop   :   0.296614E+03
  epilogue    :   0.173047E-01
  total       :   0.302680E+03
  cputime/step:   0.210365E+01       (     141 evalulations,      59 linesearches)


Time spent doing                        total          step       percent
  total time                 :   0.302704E+03  0.214683E+01       100.0 %
  i/o time                   :   0.272303E+00  0.193122E-02         0.1 %
  FFTs                       :   0.211326E+03  0.149877E+01        69.8 %
  dot products               :   0.889244E+01  0.630670E-01         2.9 %
  geodesic                   :   0.537518E-01  0.381218E-03         0.0 %
  ffm_dgemm                  :   0.731008E-02  0.518445E-04         0.0 %
  fmf_dgemm                  :   0.709555E-02  0.503230E-04         0.0 %
  mmm_dgemm                  :   0.247870E-02  0.175794E-04         0.0 %
  m_diagonalize              :   0.123141E-02  0.873338E-05         0.0 %
  local pseudopotentials     :   0.449704E+01  0.318939E-01         1.5 %
  non-local pseudopotentials :   0.825045E+01  0.585139E-01         2.7 %
  structure factors          :   0.463072E+00  0.328420E-02         0.2 %
  phase factors              :   0.789100E-05  0.559645E-07         0.0 %
  masking and packing        :   0.519058E+01  0.368126E-01         1.7 %
  queue fft                  :   0.627152E+01  0.444789E-01         2.1 %
  queue fft (serial)         :   0.239732E+01  0.170022E-01         0.8 %
  queue fft (message passing):   0.384161E+01  0.272454E-01         1.3 %
  HFX potential              :   0.328599E+01  0.233049E-01         1.1 %
  non-local psp FFM          :   0.787481E+01  0.558497E-01         2.6 %
  non-local psp FMF          :   0.811716E-01  0.575685E-03         0.0 %
  non-local psp FFM A        :   0.340690E-01  0.241624E-03         0.0 %
  non-local psp FFM B        :   0.112897E+00  0.800688E-03         0.0 %

== HFX Counters ==
  HFX Evalulations         =   141
  Lin ACE HFX Evalulations =     0


     >>>  JOB COMPLETED     AT Mon Apr 14 15:49:03 2025  <<<

 Task  times  cpu:      281.0s     wall:      302.7s


                                NWChem Input Module
                                -------------------


 Summary of allocated global arrays
-----------------------------------
  No active global arrays


MA_summarize_allocated_blocks: starting scan ...
MA_summarize_allocated_blocks: scan completed: 0 heap blocks, 0 stack blocks
MA usage statistics:

	allocation statistics:
					      heap	     stack
					      ----	     -----
	current number of blocks	         0	         0
	maximum number of blocks	       313	        36
	current total bytes		         0	         0
	maximum total bytes		  16366088	   5334712
	maximum total K-bytes		     16367	      5335
	maximum total M-bytes		        17	         6


                                     CITATION
                                     --------
                Please cite the following reference when publishing
                           results obtained with NWChem:

          E. Apra, E. J. Bylaska, W. A. de Jong, N. Govind, K. Kowalski,
       T. P. Straatsma, M. Valiev, H. J. J. van Dam, Y. Alexeev, J. Anchell,
       V. Anisimov, F. W. Aquino, R. Atta-Fynn, J. Autschbach, N. P. Bauman,
     J. C. Becca, D. E. Bernholdt, K. Bhaskaran-Nair, S. Bogatko, P. Borowski,
         J. Boschen, J. Brabec, A. Bruner, E. Cauet, Y. Chen, G. N. Chuev,
      C. J. Cramer, J. Daily, M. J. O. Deegan, T. H. Dunning Jr., M. Dupuis,
   K. G. Dyall, G. I. Fann, S. A. Fischer, A. Fonari, H. Fruchtl, L. Gagliardi,
      J. Garza, N. Gawande, S. Ghosh, K. Glaesemann, A. W. Gotz, J. Hammond,
       V. Helms, E. D. Hermes, K. Hirao, S. Hirata, M. Jacquelin, L. Jensen,
   B. G. Johnson, H. Jonsson, R. A. Kendall, M. Klemm, R. Kobayashi, V. Konkov,
      S. Krishnamoorthy, M. Krishnan, Z. Lin, R. D. Lins, R. J. Littlefield,
      A. J. Logsdail, K. Lopata, W. Ma, A. V. Marenich, J. Martin del Campo,
   D. Mejia-Rodriguez, J. E. Moore, J. M. Mullin, T. Nakajima, D. R. Nascimento,
    J. A. Nichols, P. J. Nichols, J. Nieplocha, A. Otero-de-la-Roza, B. Palmer,
    A. Panyala, T. Pirojsirikul, B. Peng, R. Peverati, J. Pittner, L. Pollack,
   R. M. Richard, P. Sadayappan, G. C. Schatz, W. A. Shelton, D. W. Silverstein,
   D. M. A. Smith, T. A. Soares, D. Song, M. Swart, H. L. Taylor, G. S. Thomas,
            V. Tipparaju, D. G. Truhlar, K. Tsemekhman, T. Van Voorhis,
      A. Vazquez-Mayagoitia, P. Verma, O. Villa, A. Vishnu, K. D. Vogiatzis,
        D. Wang, J. H. Weare, M. J. Williamson, T. L. Windus, K. Wolinski,
        A. T. Wong, Q. Wu, C. Yang, Q. Yu, M. Zacharias, Z. Zhang, Y. Zhao,
                                and R. J. Harrison
                        "NWChem: Past, present, and future
                         J. Chem. Phys. 152, 184102 (2020)
                               doi:10.1063/5.0004997

                                      AUTHORS
                                      -------
  E. Apra, E. J. Bylaska, N. Govind, K. Kowalski, M. Valiev, D. Mejia-Rodriguez,
       A. Kunitsa, N. P. Bauman, A. Panyala, W. A. de Jong, T. P. Straatsma,
   H. J. J. van Dam, D. Wang, T. L. Windus, J. Hammond, J. Autschbach, A. Woods,
    K. Bhaskaran-Nair, J. Brabec, K. Lopata, S. A. Fischer, S. Krishnamoorthy,
     M. Jacquelin, W. Ma, M. Klemm, O. Villa, Y. Chen, V. Anisimov, F. Aquino,
     S. Hirata, M. T. Hackler, E. Hermes, L. Jensen, J. E. Moore, J. C. Becca,
      V. Konjkov, T. Risthaus, M. Malagoli, A. Marenich, A. Otero-de-la-Roza,
        J. Mullin, P. Nichols, R. Peverati, J. Pittner, Y. Zhao, P.-D. Fan,
        A. Fonari, M. J. Williamson, R. J. Harrison, J. R. Rehr, M. Dupuis,
     D. Silverstein, D. M. A. Smith, J. Nieplocha, V. Tipparaju, M. Krishnan,
     B. E. Van Kuiken, A. Vazquez-Mayagoitia, M. Swart, Q. Wu, T. Van Voorhis,
     A. A. Auer, M. Nooijen, L. D. Crosby, E. Brown, G. Cisneros, G. I. Fann,
   H. Fruchtl, J. Garza, K. Hirao, R. A. Kendall, J. A. Nichols, K. Tsemekhman,
    K. Wolinski, J. Anchell, D. E. Bernholdt, P. Borowski, T. Clark, D. Clerc,
   H. Dachsel, M. J. O. Deegan, K. Dyall, D. Elwood, E. Glendening, M. Gutowski,
   A. C. Hess, J. Jaffe, B. G. Johnson, J. Ju, R. Kobayashi, R. Kutteh, Z. Lin,
   R. Littlefield, X. Long, B. Meng, T. Nakajima, S. Niu, L. Pollack, M. Rosing,
   K. Glaesemann, G. Sandrone, M. Stave, H. Taylor, G. Thomas, J. H. van Lenthe,
                               A. T. Wong, Z. Zhang.

 Total times  cpu:      281.0s     wall:      302.8s
