 argument  1 = H2-2.0.nw



============================== echo of input deck ==============================
title "swnc: e theory=pspw4 xc=hf formula=H2 charge=0 mult=1"
#machinejob:expert

echo

start pspw_hf_H2

memory heap 1200 mb stack 1200 mb global 10 mb

charge 0

geometry
H    0.00000    0.00000   -1.00000
H    0.00000    0.00000    1.00000
end

nwpw
  ### pseudopotential block begin ###
  ### pseudopotential block end   ###
  simulation_cell
     SC 15.0000
     boundary_conditions aperiodic
  end

  cutoff 50.0
  mult 1
  xc hf
  lmbfgs
  tolerances 1.0e-9 1.0e-9

  virtual 10
end
set nwpw:cif_filename H2

#set nwpw:CI_maxit_orb 15
#set nwpw:CI_maxit_linesearch 15
set pspw:HFX_screening_radius 14.0


set nwpw:2qintegrals .true.
set nwpw:3x3_virtual .true.

task pspw energy

================================================================================


                                         
                                         


             Northwest Computational Chemistry Package (NWChem) 7.2.3
             --------------------------------------------------------


                    Environmental Molecular Sciences Laboratory
                       Pacific Northwest National Laboratory
                                Richland, WA 99352

                              Copyright (c) 1994-2022
                       Pacific Northwest National Laboratory
                            Battelle Memorial Institute

             NWChem is an open-source computational chemistry package
                        distributed under the terms of the
                      Educational Community License (ECL) 2.0
             A copy of the license is included with this distribution
                              in the LICENSE.TXT file

                                  ACKNOWLEDGMENT
                                  --------------

            This software and its documentation were developed at the
            EMSL at Pacific Northwest National Laboratory, a multiprogram
            national laboratory, operated for the U.S. Department of Energy
            by Battelle under Contract Number DE-AC05-76RL01830. Support
            for this work was provided by the Department of Energy Office
            of Biological and Environmental Research, Office of Basic
            Energy Sciences, and the Office of Advanced Scientific Computing.


           Job information
           ---------------

    hostname        = mqs-al
    program         = nwchem
    date            = Mon Apr 14 15:38:42 2025

    compiled        = Thu_Oct_31_08:55:15_2024
    source          = /home/conda/feedstock_root/build_artifacts/nwchem_1730356057992/work
    nwchem branch   = 7.2.3
    nwchem revision = c400b04
    ga revision     = 5.8.0
    use scalapack   = T
    input           = H2-2.0.nw
    prefix          = pspw_hf_H2.
    data base       = ./pspw_hf_H2.db
    status          = startup
    nproc           =       24
    time left       =     -1s



           Memory information
           ------------------

    heap     =  157286396 doubles =   1200.0 Mbytes
    stack    =  157286401 doubles =   1200.0 Mbytes
    global   =    1310720 doubles =     10.0 Mbytes (distinct from heap & stack)
    total    =  315883517 doubles =   2410.0 Mbytes
    verify   = yes
    hardfail = no 


           Directory information
           ---------------------

  0 permanent = .
  0 scratch   = .




                                NWChem Input Module
                                -------------------


               swnc: e theory=pspw4 xc=hf formula=H2 charge=0 mult=1
               -----------------------------------------------------

 Scaling coordinates for geometry "geometry" by  1.889725989
 (inverse scale =  0.529177249)

  zeroes
  zeroes
  zeroes
  zeroes
  zeroes
  zeroes
  zeroes
  zeroes
  zeroes
  zeroes
  zeroes
  zeroes
  zeroes
  zeroes
  zeroes
  zeroes
  zeroes
  zeroes
  zeroes
  zeroes
  zeroes
  zeroes
  zeroes
  zeroes
  zeroes
  zeroes
  zeroes
  zeroes
  zeroes
  zeroes
  zeroes
  zeroes
  zeroes
  zeroes
  zeroes
  zeroes
  zeroes
  zeroes
  zeroes
  zeroes
  zeroes
  zeroes
  zeroes
  zeroes
  zeroes
  zeroes
  zeroes
  zeroes
 ORDER OF PRIMARY AXIS IS BEING SET TO 4
 D4H symmetry detected

          ------
          auto-z
          ------
     1 autoz failed with cvr_scaling = 1.2 changing to 1.3
     2 autoz failed with cvr_scaling = 1.3 changing to 1.4
     3 autoz failed with cvr_scaling = 1.4 changing to 1.5
     4 autoz failed with cvr_scaling = 1.5 changing to 1.6
     5 autoz failed with cvr_scaling = 1.6 changing to 1.7

 AUTOZ failed to generate good internal coordinates.
 Cartesian coordinates will be used in optimizations.



                             Geometry "geometry" -> ""
                             -------------------------

 Output coordinates in angstroms (scale by  1.889725989 to convert to a.u.)

  No.       Tag          Charge          X              Y              Z
 ---- ---------------- ---------- -------------- -------------- --------------
    1 H                    1.0000     0.00000000     0.00000000    -1.00000000
    2 H                    1.0000     0.00000000     0.00000000     1.00000000

      Atomic Mass 
      ----------- 

      H                  1.007825


 Effective nuclear repulsion energy (a.u.)       0.2645886245

            Nuclear Dipole moment (a.u.) 
            ----------------------------
        X                 Y               Z
 ---------------- ---------------- ----------------
     0.0000000000     0.0000000000     0.0000000000

      Symmetry information
      --------------------

 Group name             D4h       
 Group number             28
 Group order              16
 No. of unique centers     1

      Symmetry unique atoms

     1


            XYZ format geometry
            -------------------
     2
 geometry
 H                     0.00000000     0.00000000    -1.00000000
 H                     0.00000000     0.00000000     1.00000000

          ****************************************************
          *                                                  *
          *               NWPW PSPW Calculation              *
          *                                                  *
          * [ (Grassmann/Stiefel manifold implementation)  ] *
          *                                                  *
          *      [ NorthWest Chemistry implementation ]      *
          *                                                  *
          *            version #5.10   06/12/02              *
          *                                                  *
          *    This code was developed by Eric J. Bylaska,   *
          *    and was based upon algorithms and code        *
          *    developed by the group of Prof. John H. Weare *
          *                                                  *
          ****************************************************
     >>>  JOB STARTED       AT Mon Apr 14 15:38:42 2025  <<<
          ================ input data ========================

 input psi filename:./pspw_hf_H2.movecs

 number of processors used:        24
 processor grid           :  24 x   1
 parallel mapping         :2d-hilbert
 parallel mapping         :  balanced
 number of threads        :         1
 parallel io              :       off

 options:
      boundary conditions  = aperiodic   (version4)
      electron spin        = restricted
      exchange-correlation = Hartree-Fock
      - HFX relaxed
      - HFX restricted orbitals :    1
      - HFX free-space coulomb solver


 elements involved in the cluster:
      1: H   valence charge:  1.0000  lmax=  1
             comment    : Parameterized (Chem.Phys.Lett., vol 322, page 447) Hamman psp
             pseudpotential type            :   0
             highest angular component      :   1
             local potential used           :   1
             number of non-local projections:   1
             aperiodic cutoff radius        :  1.000
             cutoff =   0.800   0.800


 total charge:   0.000

 atomic composition:
     H   :    2

 number of electrons: spin up=     1 (   1 per task)  down=     1 (   1 per task) (Fourier space)
 number of orbitals : spin up=     1 (   1 per task)  down=     1 (   1 per task) (Fourier space)

 supercell:
      cell_name:  cell_default                                      
      lattice:    a1=<  15.000   0.000   0.000 >
                  a2=<   0.000  15.000   0.000 >
                  a3=<   0.000   0.000  15.000 >
      reciprocal: b1=<   0.419   0.000   0.000 >
                  b2=<   0.000   0.419   0.000 >
                  b3=<   0.000   0.000   0.419 >
      lattice:    a=      15.000 b=     15.000 c=      15.000
                  alpha=  90.000 beta=  90.000 gamma=  90.000
                  omega=      3375.0

      density cutoff=100.000  fft= 70x 70x 70(    80618 waves     3359 per task)
      wavefnc cutoff= 50.000  fft= 70x 70x 70(    28526 waves     1188 per task)

 technical parameters:
      time step=      5.80     fictitious mass=  400000.0
      tolerance=0.100E-08 (energy)   0.100E-08 (density)
      maximum iterations =      1000 (   10 inner    100 outer )





== Energy Calculation ==


          ============ Grassmann lmbfgs iteration ============
     >>>  ITERATION STARTED AT Mon Apr 14 15:38:48 2025  <<<
    iter.           Energy         DeltaE       DeltaRho 
    ------------------------------------------------------
      10   -0.9222995116E+00   -0.14169E-02    0.12124E-01
     -  10 steepest descent iterations performed
      20   -0.9258003896E+00   -0.60044E-04    0.41744E-04
      30   -0.9259292879E+00   -0.32586E-05    0.22546E-05
      40   -0.9259371830E+00   -0.11391E-06    0.10909E-06
      50   -0.9259375661E+00   -0.59916E-08    0.61514E-09
      60   -0.9259375833E+00   -0.73452E-09    0.51692E-10
  *** tolerance ok. iteration terminated
     >>>  ITERATION ENDED   AT Mon Apr 14 15:38:53 2025  <<<


==  Summary Of Results  ==

 number of electrons: spin up=    1.00000  down=    1.00000 (real space)

 total     energy    :  -0.9259375833E+00 (   -0.46297E+00/ion)
 total orbital energy:  -0.7793360348E+00 (   -0.77934E+00/electron)
 hartree   energy    :   0.8223803459E+00 (    0.82238E+00/electron)
 exc-corr  energy    :   0.0000000000E+00 (    0.00000E+00/electron)
 HF exchange energy  :  -0.4111901730E+00 (   -0.41119E+00/electron)
 ion-ion   energy    :   0.2645886245E+00 (    0.13229E+00/ion)

 kinetic (planewave) :   0.6284987493E+00 (    0.62850E+00/electron)
 V_local (planewave) :  -0.2076685384E+01 (   -0.20767E+01/electron)
 V_nl    (planewave) :  -0.1535297457E+00 (   -0.15353E+00/electron)
 V_Coul  (planewave) :   0.1644760692E+01 (    0.16448E+01/electron)
 V_xc.   (planewave) :   0.0000000000E+00 (    0.00000E+00/electron)
 K.S. HFX energy     :  -0.8223803459E+00 (   -0.82238E+00/electron)
 Virial Coefficient  :  -0.9315124952E+00

 orbital energies:
    -0.3896680E+00 ( -10.603eV)


== Virtual Orbital Calculation ==


 input epsi filename:./pspw_hf_H2.emovecs

 COVOs Mimimization
 ------------------
CI gradient algorithm =         3
maxit_sweeps          =         3
maxit_orb             =       120
maxit_linesearch      =        15
maxerror              = 0.100E-08

     orb,it,eci,eold,eci-eold=                    1                    1 -0.98525621191979540      -0.97479772389012687       -1.0458488029668533E-002 F
     orb,it,eci,eold,eci-eold=                    1                    2 -0.98970571120256190      -0.98525621191979540       -4.4494992827665003E-003 F
     orb,it,eci,eold,eci-eold=                    1                    3 -0.99337829082103823      -0.98970571120256190       -3.6725796184763349E-003 F
     orb,it,eci,eold,eci-eold=                    1                    4 -0.99541302117974539      -0.99337829082103823       -2.0347303587071597E-003 F
     orb,it,eci,eold,eci-eold=                    1                    5 -0.99787320642519417      -0.99541302117974539       -2.4601852454487760E-003 F
     orb,it,eci,eold,eci-eold=                    1                    6 -0.99915653335199128      -0.99787320642519417       -1.2833269267971126E-003 F
     orb,it,eci,eold,eci-eold=                    1                    7 -0.99982613281540667      -0.99915653335199128       -6.6959946341538235E-004 F
     orb,it,eci,eold,eci-eold=                    1                    8 -0.99985903887676986      -0.99982613281540667       -3.2906061363191519E-005 F
     orb,it,eci,eold,eci-eold=                    1                    9  -1.0007840197963087      -0.99985903887676986       -9.2498091953885364E-004 F
     orb,it,eci,eold,eci-eold=                    1                   10  -1.0017345518497909       -1.0007840197963087       -9.5053205348216707E-004 F
     orb,it,eci,eold,eci-eold=                    1                   11  -1.0023042773380602       -1.0017345518497909       -5.6972548826927927E-004 F
     orb,it,eci,eold,eci-eold=                    1                   12  -1.0029614966495197       -1.0023042773380602       -6.5721931145956702E-004 F
     orb,it,eci,eold,eci-eold=                    1                   13  -1.0032505269381577       -1.0029614966495197       -2.8903028863802582E-004 F
     orb,it,eci,eold,eci-eold=                    1                   14  -1.0039162952589937       -1.0032505269381577       -6.6576832083597992E-004 F
     orb,it,eci,eold,eci-eold=                    1                   15  -1.0041865775070200       -1.0039162952589937       -2.7028224802627676E-004 F
     orb,it,eci,eold,eci-eold=                    1                   16  -1.0043503434862535       -1.0041865775070200       -1.6376597923351000E-004 F
     orb,it,eci,eold,eci-eold=                    1                   17  -1.0047385218615243       -1.0043503434862535       -3.8817837527083121E-004 F
     orb,it,eci,eold,eci-eold=                    1                   18  -1.0050182311968352       -1.0047385218615243       -2.7970933531085151E-004 F
     orb,it,eci,eold,eci-eold=                    1                   19  -1.0054832087465231       -1.0050182311968352       -4.6497754968788385E-004 F
     orb,it,eci,eold,eci-eold=                    1                   20  -1.0055835894166134       -1.0054832087465231       -1.0038067009032758E-004 F
     orb,it,eci,eold,eci-eold=                    1                   21  -1.0056544477393357       -1.0055835894166134       -7.0858322722244793E-005 F
     orb,it,eci,eold,eci-eold=                    1                   22  -1.0058880791302192       -1.0056544477393357       -2.3363139088350415E-004 F
     orb,it,eci,eold,eci-eold=                    1                   23  -1.0058882195456720       -1.0058880791302192       -1.4041545282061918E-007 F
     orb,it,eci,eold,eci-eold=                    1                   24  -1.0059147913579822       -1.0058882195456720       -2.6571812310249854E-005 F
     orb,it,eci,eold,eci-eold=                    1                   25  -1.0061882527658548       -1.0059147913579822       -2.7346140787254392E-004 F
     orb,it,eci,eold,eci-eold=                    1                   26  -1.0063786101339991       -1.0061882527658548       -1.9035736814432269E-004 F
     orb,it,eci,eold,eci-eold=                    1                   27  -1.0064298166882926       -1.0063786101339991       -5.1206554293470319E-005 F
     orb,it,eci,eold,eci-eold=                    1                   28  -1.0065585026200079       -1.0064298166882926       -1.2868593171533327E-004 F
     orb,it,eci,eold,eci-eold=                    1                   29  -1.0065913928812023       -1.0065585026200079       -3.2890261194351567E-005 F
     orb,it,eci,eold,eci-eold=                    1                   30  -1.0066451828432428       -1.0065913928812023       -5.3789962040529105E-005 F
     orb,it,eci,eold,eci-eold=                    1                   31  -1.0068287320809592       -1.0066451828432428       -1.8354923771646270E-004 F
     orb,it,eci,eold,eci-eold=                    1                   32  -1.0068824342044114       -1.0068287320809592       -5.3702123452126216E-005 F
     orb,it,eci,eold,eci-eold=                    1                   33  -1.0068963912424556       -1.0068824342044114       -1.3957038044187797E-005 F
     orb,it,eci,eold,eci-eold=                    1                   34  -1.0069927624167951       -1.0068963912424556       -9.6371174339582311E-005 F
     orb,it,eci,eold,eci-eold=                    1                   35  -1.0070398639423610       -1.0069927624167951       -4.7101525565862445E-005 F
     orb,it,eci,eold,eci-eold=                    1                   36  -1.0070766082950500       -1.0070398639423610       -3.6744352688966586E-005 F
     orb,it,eci,eold,eci-eold=                    1                   37  -1.0071977164364929       -1.0070766082950500       -1.2110814144294935E-004 F
     orb,it,eci,eold,eci-eold=                    1                   38  -1.0072124694592166       -1.0071977164364929       -1.4753022723690279E-005 F
     orb,it,eci,eold,eci-eold=                    1                   39  -1.0072215722169175       -1.0072124694592166       -9.1027577009406002E-006 F
     orb,it,eci,eold,eci-eold=                    1                   40  -1.0073361220768955       -1.0072215722169175       -1.1454985997794154E-004 F
     orb,it,eci,eold,eci-eold=                    1                   41  -1.0074012078746160       -1.0073361220768955       -6.5085797720465521E-005 F
     orb,it,eci,eold,eci-eold=                    1                   42  -1.0074643220863364       -1.0074012078746160       -6.3114211720449731E-005 F
     orb,it,eci,eold,eci-eold=                    1                   43  -1.0075011115095953       -1.0074643220863364       -3.6789423258909437E-005 F
     orb,it,eci,eold,eci-eold=                    1                   44  -1.0075685118197621       -1.0075011115095953       -6.7400310166831900E-005 F
     orb,it,eci,eold,eci-eold=                    1                   45  -1.0076044418232599       -1.0075685118197621       -3.5930003497774976E-005 F
     orb,it,eci,eold,eci-eold=                    1                   46  -1.0076507421959338       -1.0076044418232599       -4.6300372673835355E-005 F
     orb,it,eci,eold,eci-eold=                    1                   47  -1.0076759278044105       -1.0076507421959338       -2.5185608476752108E-005 F
     orb,it,eci,eold,eci-eold=                    1                   48  -1.0077096574668609       -1.0076759278044105       -3.3729662450410203E-005 F
     orb,it,eci,eold,eci-eold=                    1                   49  -1.0077107950555981       -1.0077096574668609       -1.1375887372100379E-006 F
     orb,it,eci,eold,eci-eold=                    1                   50  -1.0077198002151313       -1.0077107950555981       -9.0051595331708256E-006 F
     orb,it,eci,eold,eci-eold=                    1                   51  -1.0077563256337647       -1.0077198002151313       -3.6525418633415185E-005 F
     orb,it,eci,eold,eci-eold=                    1                   52  -1.0077583887002945       -1.0077563256337647       -2.0630665298337902E-006 F
     orb,it,eci,eold,eci-eold=                    1                   53  -1.0077595650168947       -1.0077583887002945       -1.1763166001266256E-006 F
     orb,it,eci,eold,eci-eold=                    1                   54  -1.0077909983440625       -1.0077595650168947       -3.1433327167817993E-005 F
     orb,it,eci,eold,eci-eold=                    1                   55  -1.0077982182052374       -1.0077909983440625       -7.2198611749119124E-006 F
     orb,it,eci,eold,eci-eold=                    1                   56  -1.0078001645633747       -1.0077982182052374       -1.9463581373280192E-006 F
     orb,it,eci,eold,eci-eold=                    1                   57  -1.0078299078308268       -1.0078001645633747       -2.9743267452086997E-005 F
     orb,it,eci,eold,eci-eold=                    1                   58  -1.0078327419146995       -1.0078299078308268       -2.8340838726936823E-006 F
     orb,it,eci,eold,eci-eold=                    1                   59  -1.0078329458495434       -1.0078327419146995       -2.0393484390091032E-007 F
     orb,it,eci,eold,eci-eold=                    1                   60  -1.0078519420151537       -1.0078329458495434       -1.8996165610296600E-005 F
     orb,it,eci,eold,eci-eold=                    1                   61  -1.0078597463937906       -1.0078519420151537       -7.8043786368997559E-006 F
     orb,it,eci,eold,eci-eold=                    1                   62  -1.0078614882418697       -1.0078597463937906       -1.7418480791064894E-006 F
     orb,it,eci,eold,eci-eold=                    1                   63  -1.0078754438598789       -1.0078614882418697       -1.3955618009209303E-005 F
     orb,it,eci,eold,eci-eold=                    1                   64  -1.0078829699022362       -1.0078754438598789       -7.5260423573197954E-006 F
     orb,it,eci,eold,eci-eold=                    1                   65  -1.0078850348161068       -1.0078829699022362       -2.0649138705586267E-006 F
     orb,it,eci,eold,eci-eold=                    1                   66  -1.0078955854757212       -1.0078850348161068       -1.0550659614416702E-005 F
     orb,it,eci,eold,eci-eold=                    1                   67  -1.0079014013983048       -1.0078955854757212       -5.8159225835296979E-006 F
     orb,it,eci,eold,eci-eold=                    1                   68  -1.0079044196364948       -1.0079014013983048       -3.0182381900445421E-006 F
     orb,it,eci,eold,eci-eold=                    1                   69  -1.0079160101085340       -1.0079044196364948       -1.1590472039246791E-005 F
     orb,it,eci,eold,eci-eold=                    1                   70  -1.0079220602944579       -1.0079160101085340       -6.0501859238115685E-006 F
     orb,it,eci,eold,eci-eold=                    1                   71  -1.0079242752393101       -1.0079220602944579       -2.2149448521968651E-006 F
     orb,it,eci,eold,eci-eold=                    1                   72  -1.0079320566432346       -1.0079242752393101       -7.7814039245449607E-006 F
     orb,it,eci,eold,eci-eold=                    1                   73  -1.0079345557160646       -1.0079320566432346       -2.4990728300089415E-006 F
     orb,it,eci,eold,eci-eold=                    1                   74  -1.0079360024250006       -1.0079345557160646       -1.4467089359815333E-006 F
     orb,it,eci,eold,eci-eold=                    1                   75  -1.0079429020902875       -1.0079360024250006       -6.8996652868857922E-006 F
     orb,it,eci,eold,eci-eold=                    1                   76  -1.0079453125990088       -1.0079429020902875       -2.4105087212955567E-006 F
     orb,it,eci,eold,eci-eold=                    1                   77  -1.0079461731652746       -1.0079453125990088       -8.6056626580344187E-007 F
     orb,it,eci,eold,eci-eold=                    1                   78  -1.0079516982176351       -1.0079461731652746       -5.5250523605110402E-006 F
     orb,it,eci,eold,eci-eold=                    1                   79  -1.0079534740036677       -1.0079516982176351       -1.7757860326650388E-006 F
     orb,it,eci,eold,eci-eold=                    1                   80  -1.0079538036289588       -1.0079534740036677       -3.2962529106228544E-007 F
     orb,it,eci,eold,eci-eold=                    1                   81  -1.0079584240067916       -1.0079538036289588       -4.6203778327758016E-006 F
     orb,it,eci,eold,eci-eold=                    1                   82  -1.0079616659434205       -1.0079584240067916       -3.2419366289282436E-006 F
     orb,it,eci,eold,eci-eold=                    1                   83  -1.0079627788153760       -1.0079616659434205       -1.1128719554776012E-006 F
     orb,it,eci,eold,eci-eold=                    1                   84  -1.0079667440474971       -1.0079627788153760       -3.9652321210947861E-006 F
     orb,it,eci,eold,eci-eold=                    1                   85  -1.0079683112252005       -1.0079667440474971       -1.5671777033876566E-006 F
     orb,it,eci,eold,eci-eold=                    1                   86  -1.0079689083179419       -1.0079683112252005       -5.9709274147223823E-007 F
     orb,it,eci,eold,eci-eold=                    1                   87  -1.0079721020145174       -1.0079689083179419       -3.1936965754209012E-006 F
     orb,it,eci,eold,eci-eold=                    1                   88  -1.0079740565195785       -1.0079721020145174       -1.9545050611302628E-006 F
     orb,it,eci,eold,eci-eold=                    1                   89  -1.0079750556942471       -1.0079740565195785       -9.9917466855892201E-007 F
     orb,it,eci,eold,eci-eold=                    1                   90  -1.0079781110239316       -1.0079750556942471       -3.0553296845869937E-006 F
     orb,it,eci,eold,eci-eold=                    1                   91  -1.0079788241674428       -1.0079781110239316       -7.1314351113294094E-007 F
     orb,it,eci,eold,eci-eold=                    1                   92  -1.0079790322995423       -1.0079788241674428       -2.0813209955505840E-007 F
     orb,it,eci,eold,eci-eold=                    1                   93  -1.0079811476976213       -1.0079790322995423       -2.1153980789279103E-006 F
     orb,it,eci,eold,eci-eold=                    1                   94  -1.0079822151480458       -1.0079811476976213       -1.0674504244967409E-006 F
     orb,it,eci,eold,eci-eold=                    1                   95  -1.0079826299397987       -1.0079822151480458       -4.1479175294512061E-007 F
     orb,it,eci,eold,eci-eold=                    1                   96  -1.0079845824554925       -1.0079826299397987       -1.9525156937927335E-006 F
     orb,it,eci,eold,eci-eold=                    1                   97  -1.0079852833315650       -1.0079845824554925       -7.0087607251245743E-007 F
     orb,it,eci,eold,eci-eold=                    1                   98  -1.0079854437340732       -1.0079852833315650       -1.6040250816473645E-007 F
     orb,it,eci,eold,eci-eold=                    1                   99  -1.0079868974648754       -1.0079854437340732       -1.4537308021811413E-006 F
     orb,it,eci,eold,eci-eold=                    1                  100  -1.0079878437268415       -1.0079868974648754       -9.4626196611713453E-007 F
     orb,it,eci,eold,eci-eold=                    1                  101  -1.0079882692159654       -1.0079878437268415       -4.2548912393414184E-007 F
     orb,it,eci,eold,eci-eold=                    1                  102  -1.0079897267154283       -1.0079882692159654       -1.4574994628979709E-006 F
     orb,it,eci,eold,eci-eold=                    1                  103  -1.0079903202577323       -1.0079897267154283       -5.9354230397268282E-007 F
     orb,it,eci,eold,eci-eold=                    1                  104  -1.0079905556772153       -1.0079903202577323       -2.3541948301897264E-007 F
     orb,it,eci,eold,eci-eold=                    1                  105  -1.0079916701612550       -1.0079905556772153       -1.1144840397214750E-006 F
     orb,it,eci,eold,eci-eold=                    1                  106  -1.0079920379935869       -1.0079916701612550       -3.6783233192672071E-007 F
     orb,it,eci,eold,eci-eold=                    1                  107  -1.0079921461734416       -1.0079920379935869       -1.0817985462985291E-007 F
     orb,it,eci,eold,eci-eold=                    1                  108  -1.0079930070064136       -1.0079921461734416       -8.6083297201611231E-007 F
     orb,it,eci,eold,eci-eold=                    1                  109  -1.0079934340427368       -1.0079930070064136       -4.2703632319174289E-007 F
     orb,it,eci,eold,eci-eold=                    1                  110  -1.0079935862888609       -1.0079934340427368       -1.5224612415210004E-007 F
     orb,it,eci,eold,eci-eold=                    1                  111  -1.0079943376049914       -1.0079935862888609       -7.5131613042067613E-007 F
     orb,it,eci,eold,eci-eold=                    1                  112  -1.0079946781332783       -1.0079943376049914       -3.4052828690178671E-007 F
     orb,it,eci,eold,eci-eold=                    1                  113  -1.0079948033910713       -1.0079946781332783       -1.2525779302663409E-007 F
     orb,it,eci,eold,eci-eold=                    1                  114  -1.0079954567732572       -1.0079948033910713       -6.5338218591115549E-007 F
     orb,it,eci,eold,eci-eold=                    1                  115  -1.0079958182557365       -1.0079954567732572       -3.6148247928302624E-007 F
     orb,it,eci,eold,eci-eold=                    1                  116  -1.0079959648813404       -1.0079958182557365       -1.4662560388067902E-007 F
     orb,it,eci,eold,eci-eold=                    1                  117  -1.0079965154596424       -1.0079959648813404       -5.5057830206095559E-007 F
     orb,it,eci,eold,eci-eold=                    1                  118  -1.0079967105326635       -1.0079965154596424       -1.9507302106980262E-007 F
     orb,it,eci,eold,eci-eold=                    1                  119  -1.0079967842841744       -1.0079967105326635       -7.3751510898389938E-008 F
     orb,it,eci,eold,eci-eold=                    1                  120  -1.0079972130676476       -1.0079967842841744       -4.2878347317198973E-007 F
     orb,it,eci,eold,eci-eold=                    1                  121  -1.0079973997871676       -1.0079972130676476       -1.8671952006776849E-007 F
     orbital   1 current e= -0.129475E-01 error=0.158E+00 (eci= -0.100799740E+01 error=0.187E-06) iterations 121(   0 preconditioned, Ep,Sp= 20.0  200.0)
     orb,it,eci,eold,eci-eold=                    1                    1  -1.0079976803454418       -1.0079973997871676       -2.8055827416828549E-007 F
     orb,it,eci,eold,eci-eold=                    1                    2  -1.0079977303917664       -1.0079976803454418       -5.0046324640007356E-008 F
     orb,it,eci,eold,eci-eold=                    1                    3  -1.0079992894777707       -1.0079977303917664       -1.5590860042991039E-006 F
     orb,it,eci,eold,eci-eold=                    1                    4  -1.0079999489297669       -1.0079992894777707       -6.5945199612116312E-007 F
     orb,it,eci,eold,eci-eold=                    1                    5  -1.0080000765179733       -1.0079999489297669       -1.2758820644442892E-007 F
     orb,it,eci,eold,eci-eold=                    1                    6  -1.0080001092931938       -1.0080000765179733       -3.2775220537573091E-008 F
     orb,it,eci,eold,eci-eold=                    1                    7  -1.0080004975709591       -1.0080001092931938       -3.8827776527305957E-007 F
     orb,it,eci,eold,eci-eold=                    1                    8  -1.0080007050136794       -1.0080004975709591       -2.0744272033468292E-007 F
     orb,it,eci,eold,eci-eold=                    1                    9  -1.0080007262084516       -1.0080007050136794       -2.1194772159560671E-008 F
     orb,it,eci,eold,eci-eold=                    1                   10  -1.0080007281560259       -1.0080007262084516       -1.9475743240349175E-009 F
     orb,it,eci,eold,eci-eold=                    1                   11  -1.0080008300857397       -1.0080007281560259       -1.0192971378053528E-007 F
     orb,it,eci,eold,eci-eold=                    1                   12  -1.0080008484221257       -1.0080008300857397       -1.8336385965156410E-008 F
     orb,it,eci,eold,eci-eold=                    1                   13  -1.0080008487556411       -1.0080008484221257       -3.3351543748949553E-010 F
     orbital   1 current e= -0.129492E-01 error=0.166E-05 (eci= -0.100800085E+01 error=0.334E-09) iterations  13(   0 preconditioned, Ep,Sp= 20.0  200.0)
     orb,it,eci,eold,eci-eold=                    1                    1  -1.0080009181524876       -1.0080008487556411       -6.9396846491542874E-008 F
     orb,it,eci,eold,eci-eold=                    1                    2  -1.0080009397687804       -1.0080009181524876       -2.1616292755766153E-008 F
     orb,it,eci,eold,eci-eold=                    1                    3  -1.0080009640584082       -1.0080009397687804       -2.4289627864604313E-008 F
     orb,it,eci,eold,eci-eold=                    1                    4  -1.0080009800200989       -1.0080009640584082       -1.5961690635890591E-008 F
     orb,it,eci,eold,eci-eold=                    1                    5  -1.0080009868466293       -1.0080009800200989       -6.8265304520309655E-009 F
     orb,it,eci,eold,eci-eold=                    1                    6  -1.0080009906745464       -1.0080009868466293       -3.8279170944122143E-009 F
     orb,it,eci,eold,eci-eold=                    1                    7  -1.0080010034851217       -1.0080009906745464       -1.2810575267252489E-008 F
     orb,it,eci,eold,eci-eold=                    1                    8  -1.0080010096016876       -1.0080010034851217       -6.1165659204220901E-009 F
     orb,it,eci,eold,eci-eold=                    1                    9  -1.0080010102469235       -1.0080010096016876       -6.4523586473796968E-010 F
     orbital   1 current e= -0.129542E-01 error=0.501E-05 (eci= -0.100800101E+01 error=0.645E-09) iterations   9(   0 preconditioned, Ep,Sp= 20.0  200.0)
     orb,it,eci,eold,eci-eold=                    2                    1 -0.92915728104725215      -0.92886925111993190       -2.8802992732024357E-004 F
     orb,it,eci,eold,eci-eold=                    2                    2 -0.92921204990369222      -0.92915728104725215       -5.4768856440068348E-005 F
     orb,it,eci,eold,eci-eold=                    2                    3 -0.92924944728141479      -0.92921204990369222       -3.7397377722570013E-005 F
     orb,it,eci,eold,eci-eold=                    2                    4 -0.92925389811251680      -0.92924944728141479       -4.4508311020097224E-006 F
     orb,it,eci,eold,eci-eold=                    2                    5 -0.92933571888522426      -0.92925389811251680       -8.1820772707463796E-005 F
     orb,it,eci,eold,eci-eold=                    2                    6 -0.92939024337808740      -0.92933571888522426       -5.4524492863139429E-005 F
     orb,it,eci,eold,eci-eold=                    2                    7 -0.92941414264382249      -0.92939024337808740       -2.3899265735094488E-005 F
     orb,it,eci,eold,eci-eold=                    2                    8 -0.92942251140149379      -0.92941414264382249       -8.3687576712954126E-006 F
     orb,it,eci,eold,eci-eold=                    2                    9 -0.92946754243159568      -0.92942251140149379       -4.5031030101894132E-005 F
     orb,it,eci,eold,eci-eold=                    2                   10 -0.92947782071857987      -0.92946754243159568       -1.0278286984188867E-005 F
     orb,it,eci,eold,eci-eold=                    2                   11 -0.92948156996428077      -0.92947782071857987       -3.7492457009014046E-006 F
     orb,it,eci,eold,eci-eold=                    2                   12 -0.92951625723026166      -0.92948156996428077       -3.4687265980881676E-005 F
     orb,it,eci,eold,eci-eold=                    2                   13 -0.92953414092813758      -0.92951625723026166       -1.7883697875920035E-005 F
     orb,it,eci,eold,eci-eold=                    2                   14 -0.92955341316421136      -0.92953414092813758       -1.9272236073786253E-005 F
     orb,it,eci,eold,eci-eold=                    2                   15 -0.92956468049978003      -0.92955341316421136       -1.1267335568665438E-005 F
     orb,it,eci,eold,eci-eold=                    2                   16 -0.92958348937449942      -0.92956468049978003       -1.8808874719389301E-005 F
     orb,it,eci,eold,eci-eold=                    2                   17 -0.92959443410880527      -0.92958348937449942       -1.0944734305851078E-005 F
     orb,it,eci,eold,eci-eold=                    2                   18 -0.92960743654358069      -0.92959443410880527       -1.3002434775422067E-005 F
     orb,it,eci,eold,eci-eold=                    2                   19 -0.92961462439440345      -0.92960743654358069       -7.1878508227651849E-006 F
     orb,it,eci,eold,eci-eold=                    2                   20 -0.92962616422924538      -0.92961462439440345       -1.1539834841922669E-005 F
     orb,it,eci,eold,eci-eold=                    2                   21 -0.92963284772029575      -0.92962616422924538       -6.6834910503743572E-006 F
     orb,it,eci,eold,eci-eold=                    2                   22 -0.92964075888429232      -0.92963284772029575       -7.9111639965656622E-006 F
     orb,it,eci,eold,eci-eold=                    2                   23 -0.92964477976147331      -0.92964075888429232       -4.0208771809879806E-006 F
     orb,it,eci,eold,eci-eold=                    2                   24 -0.92965112138710992      -0.92964477976147331       -6.3416256366188861E-006 F
     orb,it,eci,eold,eci-eold=                    2                   25 -0.92965482351605866      -0.92965112138710992       -3.7021289487348952E-006 F
     orb,it,eci,eold,eci-eold=                    2                   26 -0.92965917323151825      -0.92965482351605866       -4.3497154595950605E-006 F
     orb,it,eci,eold,eci-eold=                    2                   27 -0.92966151364321525      -0.92965917323151825       -2.3404116969993893E-006 F
     orb,it,eci,eold,eci-eold=                    2                   28 -0.92966506084497680      -0.92966151364321525       -3.5472017615445495E-006 F
     orb,it,eci,eold,eci-eold=                    2                   29 -0.92966704494181862      -0.92966506084497680       -1.9840968418227689E-006 F
     orb,it,eci,eold,eci-eold=                    2                   30 -0.92966940345864213      -0.92966704494181862       -2.3585168235085163E-006 F
     orb,it,eci,eold,eci-eold=                    2                   31 -0.92967064774304520      -0.92966940345864213       -1.2442844030680078E-006 F
     orb,it,eci,eold,eci-eold=                    2                   32 -0.92967258386901541      -0.92967064774304520       -1.9361259702144196E-006 F
     orb,it,eci,eold,eci-eold=                    2                   33 -0.92967369542588452      -0.92967258386901541       -1.1115568691044686E-006 F
     orb,it,eci,eold,eci-eold=                    2                   34 -0.92967504726127803      -0.92967369542588452       -1.3518353935149108E-006 F
     orb,it,eci,eold,eci-eold=                    2                   35 -0.92967576636428217      -0.92967504726127803       -7.1910300414312900E-007 F
     orb,it,eci,eold,eci-eold=                    2                   36 -0.92967687349815076      -0.92967576636428217       -1.1071338685830767E-006 F
     orb,it,eci,eold,eci-eold=                    2                   37 -0.92967750041780850      -0.92967687349815076       -6.2691965774241964E-007 F
     orb,it,eci,eold,eci-eold=                    2                   38 -0.92967826101300044      -0.92967750041780850       -7.6059519193982794E-007 F
     orb,it,eci,eold,eci-eold=                    2                   39 -0.92967867338042720      -0.92967826101300044       -4.1236742676087346E-007 F
     orb,it,eci,eold,eci-eold=                    2                   40 -0.92967931264444981      -0.92967867338042720       -6.3926402260605641E-007 F
     orb,it,eci,eold,eci-eold=                    2                   41 -0.92967967461258361      -0.92967931264444981       -3.6196813379962833E-007 F
     orb,it,eci,eold,eci-eold=                    2                   42 -0.92968013432684271      -0.92967967461258361       -4.5971425910451558E-007 F
     orb,it,eci,eold,eci-eold=                    2                   43 -0.92968038205597836      -0.92968013432684271       -2.4772913564952148E-007 F
     orb,it,eci,eold,eci-eold=                    2                   44 -0.92968075782595982      -0.92968038205597836       -3.7576998146438001E-007 F
     orb,it,eci,eold,eci-eold=                    2                   45 -0.92968096625938912      -0.92968075782595982       -2.0843342929399711E-007 F
     orb,it,eci,eold,eci-eold=                    2                   46 -0.92968121358645162      -0.92968096625938912       -2.4732706249697145E-007 F
     orb,it,eci,eold,eci-eold=                    2                   47 -0.92968134100307898      -0.92968121358645162       -1.2741662736015513E-007 F
     orb,it,eci,eold,eci-eold=                    2                   48 -0.92968153974379464      -0.92968134100307898       -1.9874071566228224E-007 F
     orb,it,eci,eold,eci-eold=                    2                   49 -0.92968165680902404      -0.92968153974379464       -1.1706522939913810E-007 F
     orb,it,eci,eold,eci-eold=                    2                   50 -0.92968181131437655      -0.92968165680902404       -1.5450535251204656E-007 F
     orb,it,eci,eold,eci-eold=                    2                   51 -0.92968181518445081      -0.92968181131437655       -3.8700742610586758E-009 F
     orb,it,eci,eold,eci-eold=                    2                   52 -0.92968185737815057      -0.92968181518445081       -4.2193699756332137E-008 F
     orb,it,eci,eold,eci-eold=                    2                   53 -0.92968199590110634      -0.92968185737815057       -1.3852295577265750E-007 F
     orb,it,eci,eold,eci-eold=                    2                   54 -0.92968200035668058      -0.92968199590110634       -4.4555742428897815E-009 F
     orb,it,eci,eold,eci-eold=                    2                   55 -0.92968200410193047      -0.92968200035668058       -3.7452498879986251E-009 F
     orb,it,eci,eold,eci-eold=                    2                   56 -0.92968211890623897      -0.92968200410193047       -1.1480430850419054E-007 F
     orb,it,eci,eold,eci-eold=                    2                   57 -0.92968218412896020      -0.92968211890623897       -6.5222721223889835E-008 F
     orb,it,eci,eold,eci-eold=                    2                   58 -0.92968219891551396      -0.92968218412896020       -1.4786553759194021E-008 F
     orb,it,eci,eold,eci-eold=                    2                   59 -0.92968227797596281      -0.92968219891551396       -7.9060448854306742E-008 F
     orb,it,eci,eold,eci-eold=                    2                   60 -0.92968230943119612      -0.92968227797596281       -3.1455233306942887E-008 F
     orb,it,eci,eold,eci-eold=                    2                   61 -0.92968232426902697      -0.92968230943119612       -1.4837830852876266E-008 F
     orb,it,eci,eold,eci-eold=                    2                   62 -0.92968238625814770      -0.92968232426902697       -6.1989120725414182E-008 F
     orb,it,eci,eold,eci-eold=                    2                   63 -0.92968240542207292      -0.92968238625814770       -1.9163925224496836E-008 F
     orb,it,eci,eold,eci-eold=                    2                   64 -0.92968241853749434      -0.92968240542207292       -1.3115421415577089E-008 F
     orb,it,eci,eold,eci-eold=                    2                   65 -0.92968248379482787      -0.92968241853749434       -6.5257333536905548E-008 F
     orb,it,eci,eold,eci-eold=                    2                   66 -0.92968251427235704      -0.92968248379482787       -3.0477529167072248E-008 F
     orb,it,eci,eold,eci-eold=                    2                   67 -0.92968252674833740      -0.92968251427235704       -1.2475980359916150E-008 F
     orb,it,eci,eold,eci-eold=                    2                   68 -0.92968257953018529      -0.92968252674833740       -5.2781847892369171E-008 F
     orb,it,eci,eold,eci-eold=                    2                   69 -0.92968259365481731      -0.92968257953018529       -1.4124632019552052E-008 F
     orb,it,eci,eold,eci-eold=                    2                   70 -0.92968259897436223      -0.92968259365481731       -5.3195449156717700E-009 F
     orb,it,eci,eold,eci-eold=                    2                   71 -0.92968264204499340      -0.92968259897436223       -4.3070631172703600E-008 F
     orb,it,eci,eold,eci-eold=                    2                   72 -0.92968265279784190      -0.92968264204499340       -1.0752848500494849E-008 F
     orb,it,eci,eold,eci-eold=                    2                   73 -0.92968265320047527      -0.92968265279784190       -4.0263337108825681E-010 F
     orbital   2 current e=  0.531011E+00 error=0.254E+00 (eci= -0.929682653E+00 error=0.403E-09) iterations  73(   0 preconditioned, Ep,Sp= 20.0  200.0)
     orb,it,eci,eold,eci-eold=                    2                    1 -0.92968272792394446      -0.92968265320047527       -7.4723469190018932E-008 F
     orb,it,eci,eold,eci-eold=                    2                    2 -0.92968275604860229      -0.92968272792394446       -2.8124657824868393E-008 F
     orb,it,eci,eold,eci-eold=                    2                    3 -0.92968277695099621      -0.92968275604860229       -2.0902393926824914E-008 F
     orb,it,eci,eold,eci-eold=                    2                    4 -0.92968280443716456      -0.92968277695099621       -2.7486168341361861E-008 F
     orb,it,eci,eold,eci-eold=                    2                    5 -0.92968282139249492      -0.92968280443716456       -1.6955330361945187E-008 F
     orb,it,eci,eold,eci-eold=                    2                    6 -0.92968283247180850      -0.92968282139249492       -1.1079313577688765E-008 F
     orb,it,eci,eold,eci-eold=                    2                    7 -0.92968286787822063      -0.92968283247180850       -3.5406412135507992E-008 F
     orb,it,eci,eold,eci-eold=                    2                    8 -0.92968286918711351      -0.92968286787822063       -1.3088928829674273E-009 F
     orb,it,eci,eold,eci-eold=                    2                    9 -0.92968287426068952      -0.92968286918711351       -5.0735760037667887E-009 F
     orb,it,eci,eold,eci-eold=                    2                   10 -0.92968289166188822      -0.92968287426068952       -1.7401198704192211E-008 F
     orb,it,eci,eold,eci-eold=                    2                   11 -0.92968289166188822      -0.92968289166188822        0.0000000000000000      F
     orbital   2 current e=  0.530755E+00 error=0.256E-03 (eci= -0.929682892E+00 error=0.000E+00) iterations  11(   0 preconditioned, Ep,Sp= 20.0  200.0)
     orb,it,eci,eold,eci-eold=                    2                    1 -0.92968289372139568      -0.92968289077047617       -2.9509195087484841E-009 F
     orb,it,eci,eold,eci-eold=                    2                    2 -0.92968289460256714      -0.92968289372139568       -8.8117146912480848E-010 F
     orbital   2 current e=  0.530764E+00 error=0.861E-05 (eci= -0.929682895E+00 error=0.881E-09) iterations   2(   0 preconditioned, Ep,Sp= 20.0  200.0)
     orb,it,eci,eold,eci-eold=                    3                    1 -0.92890509100833918      -0.92875233110292588       -1.5275990541330220E-004 F
     orb,it,eci,eold,eci-eold=                    3                    2 -0.92892024045793320      -0.92890509100833918       -1.5149449594020759E-005 F
     orb,it,eci,eold,eci-eold=                    3                    3 -0.92896917264594148      -0.92892024045793320       -4.8932188008277144E-005 F
     orb,it,eci,eold,eci-eold=                    3                    4 -0.92899349430954414      -0.92896917264594148       -2.4321663602666632E-005 F
     orb,it,eci,eold,eci-eold=                    3                    5 -0.92901535566237659      -0.92899349430954414       -2.1861352832441838E-005 F
     orb,it,eci,eold,eci-eold=                    3                    6 -0.92902522394150788      -0.92901535566237659       -9.8682791312976192E-006 F
     orb,it,eci,eold,eci-eold=                    3                    7 -0.92902888635880643      -0.92902522394150788       -3.6624172985444403E-006 F
     orb,it,eci,eold,eci-eold=                    3                    8 -0.92905921451134366      -0.92902888635880643       -3.0328152537228981E-005 F
     orb,it,eci,eold,eci-eold=                    3                    9 -0.92907042166672449      -0.92905921451134366       -1.1207155380832390E-005 F
     orb,it,eci,eold,eci-eold=                    3                   10 -0.92907139969240382      -0.92907042166672449       -9.7802567933236162E-007 F
     orb,it,eci,eold,eci-eold=                    3                   11 -0.92908772207944534      -0.92907139969240382       -1.6322387041523001E-005 F
     orb,it,eci,eold,eci-eold=                    3                   12 -0.92909534814884953      -0.92908772207944534       -7.6260694041874189E-006 F
     orb,it,eci,eold,eci-eold=                    3                   13 -0.92910021315261559      -0.92909534814884953       -4.8650037660635803E-006 F
     orb,it,eci,eold,eci-eold=                    3                   14 -0.92911646636742606      -0.92910021315261559       -1.6253214810468819E-005 F
     orb,it,eci,eold,eci-eold=                    3                   15 -0.92911733247990580      -0.92911646636742606       -8.6611247973600314E-007 F
     orb,it,eci,eold,eci-eold=                    3                   16 -0.92911768371420056      -0.92911733247990580       -3.5123429475980572E-007 F
     orb,it,eci,eold,eci-eold=                    3                   17 -0.92913087702648500      -0.92911768371420056       -1.3193312284442982E-005 F
     orb,it,eci,eold,eci-eold=                    3                   18 -0.92913621106047106      -0.92913087702648500       -5.3340339860596941E-006 F
     orb,it,eci,eold,eci-eold=                    3                   19 -0.92913690549000871      -0.92913621106047106       -6.9442953765097570E-007 F
     orb,it,eci,eold,eci-eold=                    3                   20 -0.92914687615026925      -0.92913690549000871       -9.9706602605387218E-006 F
     orb,it,eci,eold,eci-eold=                    3                   21 -0.92915096616475013      -0.92914687615026925       -4.0900144808730943E-006 F
     orb,it,eci,eold,eci-eold=                    3                   22 -0.92915206291056485      -0.92915096616475013       -1.0967458147215225E-006 F
     orb,it,eci,eold,eci-eold=                    3                   23 -0.92916020814009914      -0.92915206291056485       -8.1452295342954173E-006 F
     orb,it,eci,eold,eci-eold=                    3                   24 -0.92916243975514567      -0.92916020814009914       -2.2316150465329088E-006 F
     orb,it,eci,eold,eci-eold=                    3                   25 -0.92916293117425697      -0.92916243975514567       -4.9141911129257920E-007 F
     orb,it,eci,eold,eci-eold=                    3                   26 -0.92916954464481083      -0.92916293117425697       -6.6134705538622995E-006 F
     orb,it,eci,eold,eci-eold=                    3                   27 -0.92917161693603711      -0.92916954464481083       -2.0722912262849391E-006 F
     orb,it,eci,eold,eci-eold=                    3                   28 -0.92917187004789425      -0.92917161693603711       -2.5311185714027573E-007 F
     orb,it,eci,eold,eci-eold=                    3                   29 -0.92917706192865912      -0.92917187004789425       -5.1918807648654308E-006 F
     orb,it,eci,eold,eci-eold=                    3                   30 -0.92917903395013357      -0.92917706192865912       -1.9720214744500808E-006 F
     orb,it,eci,eold,eci-eold=                    3                   31 -0.92917938685743195      -0.92917903395013357       -3.5290729838433066E-007 F
     orb,it,eci,eold,eci-eold=                    3                   32 -0.92918354906780487      -0.92917938685743195       -4.1622103729155313E-006 F
     orb,it,eci,eold,eci-eold=                    3                   33 -0.92918501733070269      -0.92918354906780487       -1.4682628978190948E-006 F
     orb,it,eci,eold,eci-eold=                    3                   34 -0.92918532306419999      -0.92918501733070269       -3.0573349729667854E-007 F
     orb,it,eci,eold,eci-eold=                    3                   35 -0.92918868428106682      -0.92918532306419999       -3.3612168668373243E-006 F
     orb,it,eci,eold,eci-eold=                    3                   36 -0.92918977358774735      -0.92918868428106682       -1.0893066805239826E-006 F
     orb,it,eci,eold,eci-eold=                    3                   37 -0.92918996292549383      -0.92918977358774735       -1.8933774648122181E-007 F
     orb,it,eci,eold,eci-eold=                    3                   38 -0.92919267024150587      -0.92918996292549383       -2.7073160120405504E-006 F
     orb,it,eci,eold,eci-eold=                    3                   39 -0.92919357721064400      -0.92919267024150587       -9.0696913812582380E-007 F
     orb,it,eci,eold,eci-eold=                    3                   40 -0.92919369248910177      -0.92919357721064400       -1.1527845777958845E-007 F
     orb,it,eci,eold,eci-eold=                    3                   41 -0.92919584118801879      -0.92919369248910177       -2.1486989170149684E-006 F
     orb,it,eci,eold,eci-eold=                    3                   42 -0.92919663475258751      -0.92919584118801879       -7.9356456872403669E-007 F
     orb,it,eci,eold,eci-eold=                    3                   43 -0.92919674789412732      -0.92919663475258751       -1.1314153980368502E-007 F
     orb,it,eci,eold,eci-eold=                    3                   44 -0.92919844034406918      -0.92919674789412732       -1.6924499418591310E-006 F
     orb,it,eci,eold,eci-eold=                    3                   45 -0.92919904440597678      -0.92919844034406918       -6.0406190760531331E-007 F
     orb,it,eci,eold,eci-eold=                    3                   46 -0.92919914326872333      -0.92919904440597678       -9.8862746544803315E-008 F
     orb,it,eci,eold,eci-eold=                    3                   47 -0.92920049196389010      -0.92919914326872333       -1.3486951667696090E-006 F
     orb,it,eci,eold,eci-eold=                    3                   48 -0.92920093875319076      -0.92920049196389010       -4.4678930066766043E-007 F
     orb,it,eci,eold,eci-eold=                    3                   49 -0.92920099877412010      -0.92920093875319076       -6.0020929337767370E-008 F
     orb,it,eci,eold,eci-eold=                    3                   50 -0.92920207824438328      -0.92920099877412010       -1.0794702631766739E-006 F
     orb,it,eci,eold,eci-eold=                    3                   51 -0.92920246532210016      -0.92920207824438328       -3.8707771687906956E-007 F
     orb,it,eci,eold,eci-eold=                    3                   52 -0.92920251270109466      -0.92920246532210016       -4.7378994505464789E-008 F
     orb,it,eci,eold,eci-eold=                    3                   53 -0.92920336360456079      -0.92920251270109466       -8.5090346613192480E-007 F
     orb,it,eci,eold,eci-eold=                    3                   54 -0.92920368471100323      -0.92920336360456079       -3.2110644243577013E-007 F
     orb,it,eci,eold,eci-eold=                    3                   55 -0.92920373478016982      -0.92920368471100323       -5.0069166590560599E-008 F
     orb,it,eci,eold,eci-eold=                    3                   56 -0.92920440661833292      -0.92920373478016982       -6.7183816310212308E-007 F
     orb,it,eci,eold,eci-eold=                    3                   57 -0.92920463763833017      -0.92920440661833292       -2.3101999724328692E-007 F
     orb,it,eci,eold,eci-eold=                    3                   58 -0.92920467430208575      -0.92920463763833017       -3.6663755587085234E-008 F
     orb,it,eci,eold,eci-eold=                    3                   59 -0.92920521648311483      -0.92920467430208575       -5.4218102907288568E-007 F
     orb,it,eci,eold,eci-eold=                    3                   60 -0.92920539996348617      -0.92920521648311483       -1.8348037134074957E-007 F
     orb,it,eci,eold,eci-eold=                    3                   61 -0.92920542130317685      -0.92920539996348617       -2.1339690681188017E-008 F
     orb,it,eci,eold,eci-eold=                    3                   62 -0.92920585627601870      -0.92920542130317685       -4.3497284185622931E-007 F
     orb,it,eci,eold,eci-eold=                    3                   63 -0.92920602087307091      -0.92920585627601870       -1.6459705221016918E-007 F
     orb,it,eci,eold,eci-eold=                    3                   64 -0.92920604188050759      -0.92920602087307091       -2.1007436679099101E-008 F
     orb,it,eci,eold,eci-eold=                    3                   65 -0.92920638694449298      -0.92920604188050759       -3.4506398538525218E-007 F
     orb,it,eci,eold,eci-eold=                    3                   66 -0.92920651695336909      -0.92920638694449298       -1.3000887610914447E-007 F
     orb,it,eci,eold,eci-eold=                    3                   67 -0.92920653714039103      -0.92920651695336909       -2.0187021942952299E-008 F
     orb,it,eci,eold,eci-eold=                    3                   68 -0.92920680777483722      -0.92920653714039103       -2.7063444618669052E-007 F
     orb,it,eci,eold,eci-eold=                    3                   69 -0.92920689964131098      -0.92920680777483722       -9.1866473761470502E-008 F
     orb,it,eci,eold,eci-eold=                    3                   70 -0.92920691416233869      -0.92920689964131098       -1.4521027713598755E-008 F
     orb,it,eci,eold,eci-eold=                    3                   71 -0.92920713292122392      -0.92920691416233869       -2.1875888522870923E-007 F
     orb,it,eci,eold,eci-eold=                    3                   72 -0.92920721348305513      -0.92920713292122392       -8.0561831206082957E-008 F
     orb,it,eci,eold,eci-eold=                    3                   73 -0.92920722604662154      -0.92920721348305513       -1.2563566409440341E-008 F
     orb,it,eci,eold,eci-eold=                    3                   74 -0.92920739537249253      -0.92920722604662154       -1.6932587099116603E-007 F
     orb,it,eci,eold,eci-eold=                    3                   75 -0.92920744600172656      -0.92920739537249253       -5.0629234027432801E-008 F
     orb,it,eci,eold,eci-eold=                    3                   76 -0.92920744903629360      -0.92920744600172656       -3.0345670420928172E-009 F
     orb,it,eci,eold,eci-eold=                    3                   77 -0.92920757491489414      -0.92920744903629360       -1.2587860054313893E-007 F
     orb,it,eci,eold,eci-eold=                    3                   78 -0.92920762445717298      -0.92920757491489414       -4.9542278834913134E-008 F
     orb,it,eci,eold,eci-eold=                    3                   79 -0.92920763394532913      -0.92920762445717298       -9.4881561496507061E-009 F
     orb,it,eci,eold,eci-eold=                    3                   80 -0.92920774034028342      -0.92920763394532913       -1.0639495429121126E-007 F
     orb,it,eci,eold,eci-eold=                    3                   81 -0.92920778068718146      -0.92920774034028342       -4.0346898044774093E-008 F
     orb,it,eci,eold,eci-eold=                    3                   82 -0.92920778877418431      -0.92920778068718146       -8.0870028451585085E-009 F
     orb,it,eci,eold,eci-eold=                    3                   83 -0.92920787602824462      -0.92920778877418431       -8.7254060310293369E-008 F
     orb,it,eci,eold,eci-eold=                    3                   84 -0.92920790685516408      -0.92920787602824462       -3.0826919461546254E-008 F
     orb,it,eci,eold,eci-eold=                    3                   85 -0.92920791167513905      -0.92920790685516408       -4.8199749747013243E-009 F
     orb,it,eci,eold,eci-eold=                    3                   86 -0.92920798043111053      -0.92920791167513905       -6.8755971471823329E-008 F
     orb,it,eci,eold,eci-eold=                    3                   87 -0.92920800420163085      -0.92920798043111053       -2.3770520329868816E-008 F
     orb,it,eci,eold,eci-eold=                    3                   88 -0.92920800704806805      -0.92920800420163085       -2.8464371970571278E-009 F
     orb,it,eci,eold,eci-eold=                    3                   89 -0.92920806033815939      -0.92920800704806805       -5.3290091339697199E-008 F
     orb,it,eci,eold,eci-eold=                    3                   90 -0.92920807993512855      -0.92920806033815939       -1.9596969158541810E-008 F
     orb,it,eci,eold,eci-eold=                    3                   91 -0.92920808297525592      -0.92920807993512855       -3.0401273720670474E-009 F
     orb,it,eci,eold,eci-eold=                    3                   92 -0.92920812602790082      -0.92920808297525592       -4.3052644893570857E-008 F
     orb,it,eci,eold,eci-eold=                    3                   93 -0.92920813973828775      -0.92920812602790082       -1.3710386936871544E-008 F
     orb,it,eci,eold,eci-eold=                    3                   94 -0.92920814023984222      -0.92920813973828775       -5.0155446462696318E-010 F
     orbital   3 current e=  0.468086E+00 error=0.140E+00 (eci= -0.929208140E+00 error=0.502E-09) iterations  94(   0 preconditioned, Ep,Sp= 20.0  200.0)
     orb,it,eci,eold,eci-eold=                    3                    1 -0.92920816928496253      -0.92920814023984222       -2.9045120308879291E-008 F
     orb,it,eci,eold,eci-eold=                    3                    2 -0.92920818211402412      -0.92920816928496253       -1.2829061590835522E-008 F
     orb,it,eci,eold,eci-eold=                    3                    3 -0.92920828500291708      -0.92920818211402412       -1.0288889296106163E-007 F
     orb,it,eci,eold,eci-eold=                    3                    4 -0.92920832065663217      -0.92920828500291708       -3.5653715091399363E-008 F
     orb,it,eci,eold,eci-eold=                    3                    5 -0.92920832484733940      -0.92920832065663217       -4.1907072256819333E-009 F
     orb,it,eci,eold,eci-eold=                    3                    6 -0.92920832707298739      -0.92920832484733940       -2.2256479992321943E-009 F
     orb,it,eci,eold,eci-eold=                    3                    7 -0.92920834307618194      -0.92920832707298739       -1.6003194547309363E-008 F
     orb,it,eci,eold,eci-eold=                    3                    8 -0.92920834438624089      -0.92920834307618194       -1.3100589502101911E-009 F
     orb,it,eci,eold,eci-eold=                    3                    9 -0.92920834597466917      -0.92920834438624089       -1.5884282777989256E-009 F
     orb,it,eci,eold,eci-eold=                    3                   10 -0.92920835392094880      -0.92920834597466917       -7.9462796342966158E-009 F
     orb,it,eci,eold,eci-eold=                    3                   11 -0.92920835862841100      -0.92920835392094880       -4.7074621978282494E-009 F
     orb,it,eci,eold,eci-eold=                    3                   12 -0.92920836148998420      -0.92920835862841100       -2.8615732006187500E-009 F
     orb,it,eci,eold,eci-eold=                    3                   13 -0.92920836242501470      -0.92920836148998420       -9.3503049747312161E-010 F
     orbital   3 current e=  0.467670E+00 error=0.416E-03 (eci= -0.929208362E+00 error=0.935E-09) iterations  13(   0 preconditioned, Ep,Sp= 20.0  200.0)
     orb,it,eci,eold,eci-eold=                    3                    1 -0.92920836384738514      -0.92920836242501470       -1.4223704436489015E-009 F
     orb,it,eci,eold,eci-eold=                    3                    2 -0.92920836384738514      -0.92920836384738514        0.0000000000000000      F
     orbital   3 current e=  0.467661E+00 error=0.933E-05 (eci= -0.929208364E+00 error=0.000E+00) iterations   2(   0 preconditioned, Ep,Sp= 20.0  200.0)
     orb,it,eci,eold,eci-eold=                    4                    1 -0.92890515426494580      -0.92875233236508625       -1.5282189985954542E-004 F
     orb,it,eci,eold,eci-eold=                    4                    2 -0.92892031245007622      -0.92890515426494580       -1.5158185130426105E-005 F
     orb,it,eci,eold,eci-eold=                    4                    3 -0.92896926099106292      -0.92892031245007622       -4.8948540986692990E-005 F
     orb,it,eci,eold,eci-eold=                    4                    4 -0.92899359158599271      -0.92896926099106292       -2.4330594929788951E-005 F
     orb,it,eci,eold,eci-eold=                    4                    5 -0.92901542632349865      -0.92899359158599271       -2.1834737505943558E-005 F
     orb,it,eci,eold,eci-eold=                    4                    6 -0.92902526363714655      -0.92901542632349865       -9.8373136478979717E-006 F
     orb,it,eci,eold,eci-eold=                    4                    7 -0.92902893417731447      -0.92902526363714655       -3.6705401679215655E-006 F
     orb,it,eci,eold,eci-eold=                    4                    8 -0.92905930751307264      -0.92902893417731447       -3.0373335758171471E-005 F
     orb,it,eci,eold,eci-eold=                    4                    9 -0.92907045625022233      -0.92905930751307264       -1.1148737149691001E-005 F
     orb,it,eci,eold,eci-eold=                    4                   10 -0.92907137419803820      -0.92907045625022233       -9.1794781587051233E-007 F
     orb,it,eci,eold,eci-eold=                    4                   11 -0.92908772123609107      -0.92907137419803820       -1.6347038052866303E-005 F
     orb,it,eci,eold,eci-eold=                    4                   12 -0.92909541570792975      -0.92908772123609107       -7.6944718386817712E-006 F
     orb,it,eci,eold,eci-eold=                    4                   13 -0.92910026902814880      -0.92909541570792975       -4.8533202190448321E-006 F
     orb,it,eci,eold,eci-eold=                    4                   14 -0.92911650221767383      -0.92910026902814880       -1.6233189525038938E-005 F
     orb,it,eci,eold,eci-eold=                    4                   15 -0.92911741846355178      -0.92911650221767383       -9.1624587794658652E-007 F
     orb,it,eci,eold,eci-eold=                    4                   16 -0.92911780229410335      -0.92911741846355178       -3.8383055156465673E-007 F
     orb,it,eci,eold,eci-eold=                    4                   17 -0.92913098989002374      -0.92911780229410335       -1.3187595920394202E-005 F
     orb,it,eci,eold,eci-eold=                    4                   18 -0.92913627902615403      -0.92913098989002374       -5.2891361302931372E-006 F
     orb,it,eci,eold,eci-eold=                    4                   19 -0.92913697645720839      -0.92913627902615403       -6.9743105435282615E-007 F
     orb,it,eci,eold,eci-eold=                    4                   20 -0.92914695159103800      -0.92913697645720839       -9.9751338296094616E-006 F
     orb,it,eci,eold,eci-eold=                    4                   21 -0.92915101240783282      -0.92914695159103800       -4.0608167948263940E-006 F
     orb,it,eci,eold,eci-eold=                    4                   22 -0.92915208833498764      -0.92915101240783282       -1.0759271548144156E-006 F
     orb,it,eci,eold,eci-eold=                    4                   23 -0.92916023280872795      -0.92915208833498764       -8.1444737403124634E-006 F
     orb,it,eci,eold,eci-eold=                    4                   24 -0.92916248382927935      -0.92916023280872795       -2.2510205514025827E-006 F
     orb,it,eci,eold,eci-eold=                    4                   25 -0.92916297149303306      -0.92916248382927935       -4.8766375371211979E-007 F
     orb,it,eci,eold,eci-eold=                    4                   26 -0.92916957763683405      -0.92916297149303306       -6.6061438009912266E-006 F
     orb,it,eci,eold,eci-eold=                    4                   27 -0.92917166287885511      -0.92916957763683405       -2.0852420210548672E-006 F
     orb,it,eci,eold,eci-eold=                    4                   28 -0.92917192397993431      -0.92917166287885511       -2.6110107920196413E-007 F
     orb,it,eci,eold,eci-eold=                    4                   29 -0.92917711094369893      -0.92917192397993431       -5.1869637646140276E-006 F
     orb,it,eci,eold,eci-eold=                    4                   30 -0.92917907336252015      -0.92917711094369893       -1.9624188212219451E-006 F
     orb,it,eci,eold,eci-eold=                    4                   31 -0.92917942788707586      -0.92917907336252015       -3.5452455571238772E-007 F
     orb,it,eci,eold,eci-eold=                    4                   32 -0.92918358724899908      -0.92917942788707586       -4.1593619232171974E-006 F
     orb,it,eci,eold,eci-eold=                    4                   33 -0.92918505025447762      -0.92918358724899908       -1.4630054785413904E-006 F
     orb,it,eci,eold,eci-eold=                    4                   34 -0.92918535416435666      -0.92918505025447762       -3.0390987904027611E-007 F
     orb,it,eci,eold,eci-eold=                    4                   35 -0.92918871064532915      -0.92918535416435666       -3.3564809724939693E-006 F
     orb,it,eci,eold,eci-eold=                    4                   36 -0.92918980243341764      -0.92918871064532915       -1.0917880884919740E-006 F
     orb,it,eci,eold,eci-eold=                    4                   37 -0.92918999317789719      -0.92918980243341764       -1.9074447954459117E-007 F
     orb,it,eci,eold,eci-eold=                    4                   38 -0.92919269415198413      -0.92918999317789719       -2.7009740869443633E-006 F
     orb,it,eci,eold,eci-eold=                    4                   39 -0.92919360093236314      -0.92919269415198413       -9.0678037900637776E-007 F
     orb,it,eci,eold,eci-eold=                    4                   40 -0.92919371930070083      -0.92919360093236314       -1.1836833768708033E-007 F
     orb,it,eci,eold,eci-eold=                    4                   41 -0.92919586337384819      -0.92919371930070083       -2.1440731473587604E-006 F
     orb,it,eci,eold,eci-eold=                    4                   42 -0.92919665292150611      -0.92919586337384819       -7.8954765792005333E-007 F
     orb,it,eci,eold,eci-eold=                    4                   43 -0.92919676672625351      -0.92919665292150611       -1.1380474740363411E-007 F
     orb,it,eci,eold,eci-eold=                    4                   44 -0.92919845479524388      -0.92919676672625351       -1.6880689903686630E-006 F
     orb,it,eci,eold,eci-eold=                    4                   45 -0.92919905828786709      -0.92919845479524388       -6.0349262320791297E-007 F
     orb,it,eci,eold,eci-eold=                    4                   46 -0.92919915812716514      -0.92919905828786709       -9.9839298051129788E-008 F
     orb,it,eci,eold,eci-eold=                    4                   47 -0.92920050184092140      -0.92919915812716514       -1.3437137562632984E-006 F
     orb,it,eci,eold,eci-eold=                    4                   48 -0.92920094866004732      -0.92920050184092140       -4.4681912592103856E-007 F
     orb,it,eci,eold,eci-eold=                    4                   49 -0.92920101099305596      -0.92920094866004732       -6.2333008643555843E-008 F
     orb,it,eci,eold,eci-eold=                    4                   50 -0.92920208733897092      -0.92920101099305596       -1.0763459149520926E-006 F
     orb,it,eci,eold,eci-eold=                    4                   51 -0.92920247084856844      -0.92920208733897092       -3.8350959752353475E-007 F
     orb,it,eci,eold,eci-eold=                    4                   52 -0.92920251812515420      -0.92920247084856844       -4.7276585757316525E-008 F
     orb,it,eci,eold,eci-eold=                    4                   53 -0.92920336725447128      -0.92920251812515420       -8.4912931708203132E-007 F
     orb,it,eci,eold,eci-eold=                    4                   54 -0.92920368822308697      -0.92920336725447128       -3.2096861568575719E-007 F
     orb,it,eci,eold,eci-eold=                    4                   55 -0.92920373796991362      -0.92920368822308697       -4.9746826658036980E-008 F
     orb,it,eci,eold,eci-eold=                    4                   56 -0.92920440793356018      -0.92920373796991362       -6.6996364656013441E-007 F
     orb,it,eci,eold,eci-eold=                    4                   57 -0.92920464086372578      -0.92920440793356018       -2.3293016560010926E-007 F
     orb,it,eci,eold,eci-eold=                    4                   58 -0.92920467882750724      -0.92920464086372578       -3.7963781451821887E-008 F
     orb,it,eci,eold,eci-eold=                    4                   59 -0.92920521941456080      -0.92920467882750724       -5.4058705356574421E-007 F
     orb,it,eci,eold,eci-eold=                    4                   60 -0.92920540174407218      -0.92920521941456080       -1.8232951137786557E-007 F
     orb,it,eci,eold,eci-eold=                    4                   61 -0.92920542375507553      -0.92920540174407218       -2.2011003353306080E-008 F
     orb,it,eci,eold,eci-eold=                    4                   62 -0.92920585832760860      -0.92920542375507553       -4.3457253307011001E-007 F
     orb,it,eci,eold,eci-eold=                    4                   63 -0.92920602141986686      -0.92920585832760860       -1.6309225825406060E-007 F
     orb,it,eci,eold,eci-eold=                    4                   64 -0.92920604179105726      -0.92920602141986686       -2.0371190401213823E-008 F
     orb,it,eci,eold,eci-eold=                    4                   65 -0.92920638670408984      -0.92920604179105726       -3.4491303257944139E-007 F
     orb,it,eci,eold,eci-eold=                    4                   66 -0.92920651741000171      -0.92920638670408984       -1.3070591187158698E-007 F
     orb,it,eci,eold,eci-eold=                    4                   67 -0.92920653740443160      -0.92920651741000171       -1.9994429889536036E-008 F
     orb,it,eci,eold,eci-eold=                    4                   68 -0.92920680795598010      -0.92920653740443160       -2.7055154849797702E-007 F
     orb,it,eci,eold,eci-eold=                    4                   69 -0.92920690046043020      -0.92920680795598010       -9.2504450099895053E-008 F
     orb,it,eci,eold,eci-eold=                    4                   70 -0.92920691516519316      -0.92920690046043020       -1.4704762962836071E-008 F
     orb,it,eci,eold,eci-eold=                    4                   71 -0.92920713395134547      -0.92920691516519316       -2.1878615230619403E-007 F
     orb,it,eci,eold,eci-eold=                    4                   72 -0.92920721446500698      -0.92920713395134547       -8.0513661515624335E-008 F
     orb,it,eci,eold,eci-eold=                    4                   73 -0.92920722709940462      -0.92920721446500698       -1.2634397639210704E-008 F
     orb,it,eci,eold,eci-eold=                    4                   74 -0.92920739647307327      -0.92920722709940462       -1.6937366864588910E-007 F
     orb,it,eci,eold,eci-eold=                    4                   75 -0.92920744697915403      -0.92920739647307327       -5.0506080762069416E-008 F
     orb,it,eci,eold,eci-eold=                    4                   76 -0.92920744997380689      -0.92920744697915403       -2.9946528590230059E-009 F
     orb,it,eci,eold,eci-eold=                    4                   77 -0.92920757579363167      -0.92920744997380689       -1.2581982478110376E-007 F
     orb,it,eci,eold,eci-eold=                    4                   78 -0.92920762537007340      -0.92920757579363167       -4.9576441729648479E-008 F
     orb,it,eci,eold,eci-eold=                    4                   79 -0.92920763489823865      -0.92920762537007340       -9.5281652567891229E-009 F
     orb,it,eci,eold,eci-eold=                    4                   80 -0.92920774117971594      -0.92920763489823865       -1.0628147728564130E-007 F
     orb,it,eci,eold,eci-eold=                    4                   81 -0.92920778147502814      -0.92920774117971594       -4.0295312198068700E-008 F
     orb,it,eci,eold,eci-eold=                    4                   82 -0.92920778961056649      -0.92920778147502814       -8.1355383541037440E-009 F
     orb,it,eci,eold,eci-eold=                    4                   83 -0.92920787672479754      -0.92920778961056649       -8.7114231051010904E-008 F
     orb,it,eci,eold,eci-eold=                    4                   84 -0.92920790744478809      -0.92920787672479754       -3.0719990551375531E-008 F
     orb,it,eci,eold,eci-eold=                    4                   85 -0.92920791228623278      -0.92920790744478809       -4.8414446895961305E-009 F
     orb,it,eci,eold,eci-eold=                    4                   86 -0.92920798091673218      -0.92920791228623278       -6.8630499394650712E-008 F
     orb,it,eci,eold,eci-eold=                    4                   87 -0.92920800462943687      -0.92920798091673218       -2.3712704688705344E-008 F
     orb,it,eci,eold,eci-eold=                    4                   88 -0.92920800748613841      -0.92920800462943687       -2.8567015419866948E-009 F
     orb,it,eci,eold,eci-eold=                    4                   89 -0.92920806065196704      -0.92920800748613841       -5.3165828628465306E-008 F
     orb,it,eci,eold,eci-eold=                    4                   90 -0.92920808025075674      -0.92920806065196704       -1.9598789702257591E-008 F
     orb,it,eci,eold,eci-eold=                    4                   91 -0.92920808333099369      -0.92920808025075674       -3.0802369543891928E-009 F
     orb,it,eci,eold,eci-eold=                    4                   92 -0.92920812627557714      -0.92920808333099369       -4.2944583444892714E-008 F
     orb,it,eci,eold,eci-eold=                    4                   93 -0.92920813994568885      -0.92920812627557714       -1.3670111709274124E-008 F
     orb,it,eci,eold,eci-eold=                    4                   94 -0.92920814047513223      -0.92920813994568885       -5.2944337802784958E-010 F
     orbital   4 current e=  0.468086E+00 error=0.140E+00 (eci= -0.929208140E+00 error=0.529E-09) iterations  94(   0 preconditioned, Ep,Sp= 20.0  200.0)
     orb,it,eci,eold,eci-eold=                    4                    1 -0.92920816925359173      -0.92920814047513223       -2.8778459504330556E-008 F
     orb,it,eci,eold,eci-eold=                    4                    2 -0.92920818176343789      -0.92920816925359173       -1.2509846158970106E-008 F
     orb,it,eci,eold,eci-eold=                    4                    3 -0.92920828494578800      -0.92920818176343789       -1.0318235010853272E-007 F
     orb,it,eci,eold,eci-eold=                    4                    4 -0.92920832058729486      -0.92920828494578800       -3.5641506856975980E-008 F
     orb,it,eci,eold,eci-eold=                    4                    5 -0.92920832480277094      -0.92920832058729486       -4.2154760793167156E-009 F
     orb,it,eci,eold,eci-eold=                    4                    6 -0.92920832709827728      -0.92920832480277094       -2.2955063405660781E-009 F
[...]
    8    5    8    8        0.0000002266
    8    5    9    8       -0.0000000017
    8    5   10    8       -0.0001850493
    8    5   11    8        0.0675522246
    8    5    9    9        0.0000002385
    8    5   10    9        0.0002502457
    8    5   11    9        0.0386310533
    8    5   10   10       -0.0000067209
    8    5   11   10       -0.0000291254
    8    5   11   11        0.0000009405
    9    5    9    5        0.0325812011
    9    5   10    5       -0.0000074271
    9    5   11    5        0.0000002643
    9    5    6    6       -0.0000046072
    9    5    7    6       -0.0229807435
    9    5    8    6       -0.0000058917
    9    5    9    6       -0.0000020484
    9    5   10    6       -0.0375297918
    9    5   11    6        0.0000000344
    9    5    7    7        0.0000129747
    9    5    8    7       -0.0000000008
    9    5    9    7       -0.0000000002
    9    5   10    7        0.0000020338
    9    5   11    7        0.0001747742
    9    5    8    8        0.0000001191
    9    5    9    8       -0.0000000042
    9    5   10    8       -0.0000616785
    9    5   11    8        0.0321396076
    9    5    9    9        0.0000001207
    9    5   10    9        0.0001426664
    9    5   11    9        0.0271342124
    9    5   10   10       -0.0000034059
    9    5   11   10       -0.0000146406
    9    5   11   11        0.0000004962
   10    5   10    5        0.0175641760
   10    5   11    5       -0.0000245374
   10    5    6    6        0.0000127752
   10    5    7    6        0.0000097983
   10    5    8    6       -0.0046452400
   10    5    9    6       -0.0024048372
   10    5   10    6        0.0000168528
   10    5   11    6        0.0000046669
   10    5    7    7        0.0000068118
   10    5    8    7        0.0000014377
   10    5    9    7        0.0000007489
   10    5   10    7       -0.0000144577
   10    5   11    7        0.0002917266
   10    5    8    8       -0.0000044062
   10    5    9    8        0.0000067723
   10    5   10    8        0.0000029824
   10    5   11    8       -0.0000427184
   10    5    9    9        0.0000186338
   10    5   10    9        0.0000016622
   10    5   11    9       -0.0000226526
   10    5   10   10        0.0000165865
   10    5   11   10       -0.0008486582
   10    5   11   11        0.0000132707
   11    5   11    5        0.0494142711
   11    5    6    6        0.0198679885
   11    5    7    6        0.0000009602
   11    5    8    6        0.0000000047
   11    5    9    6        0.0000000023
   11    5   10    6        0.0000037382
   11    5   11    6       -0.0001325266
   11    5    7    7        0.0276837373
   11    5    8    7        0.0000092968
   11    5    9    7        0.0000047874
   11    5   10    7        0.0076073834
   11    5   11    7        0.0000000580
   11    5    8    8        0.0292852462
   11    5    9    8        0.0031805684
   11    5   10    8       -0.0000370352
   11    5   11    8        0.0000002132
   11    5    9    9        0.0256642960
   11    5   10    9       -0.0000172961
   11    5   11    9        0.0000001331
   11    5   10   10        0.0275330933
   11    5   11   10        0.0000006916
   11    5   11   11        0.0202585260
    6    6    6    6        0.4054248697
    6    6    7    6       -0.0000014510
    6    6    8    6        0.0000000032
    6    6    9    6        0.0000000013
    6    6   10    6        0.0000104924
    6    6   11    6       -0.0003994236
    6    6    7    7        0.3737395877
    6    6    8    7        0.0000010418
    6    6    9    7        0.0000004409
    6    6   10    7       -0.0101103810
    6    6   11    7        0.0000000180
    6    6    8    8        0.3810229156
    6    6    9    8        0.0000000001
    6    6   10    8        0.0000041984
    6    6   11    8       -0.0000087897
    6    6    9    9        0.3809589272
    6    6   10    9        0.0000016362
    6    6   11    9       -0.0000056772
    6    6   10   10        0.4277496009
    6    6   11   10       -0.0000000180
    6    6   11   11        0.4008766490
    7    6    7    6        0.0499927522
    7    6    8    6        0.0000072435
    7    6    9    6        0.0000029729
    7    6   10    6        0.0545413741
    7    6   11    6       -0.0000000381
    7    6    7    7       -0.0000263811
    7    6    8    7        0.0000000005
    7    6    9    7        0.0000000002
    7    6   10    7       -0.0000054816
    7    6   11    7       -0.0002755511
    7    6    8    8       -0.0000079714
    7    6    9    8        0.0000000000
    7    6   10    8        0.0001013425
    7    6   11    8       -0.0398506991
    7    6    9    9       -0.0000079749
    7    6   10    9       -0.0001569807
    7    6   11    9       -0.0257249207
    7    6   10   10       -0.0000012200
    7    6   11   10       -0.0000838153
    7    6   11   11       -0.0000088277
    8    6    8    6        0.0151174619
    8    6    9    6        0.0000000007
    8    6   10    6        0.0000114214
    8    6   11    6       -0.0000015301
    8    6    7    7       -0.0000000020
    8    6    8    7        0.0000000594
    8    6    9    7       -0.0000000000
    8    6   10    7       -0.0000007135
    8    6   11    7       -0.0043080732
    8    6    8    8        0.0000000017
    8    6    9    8        0.0000000000
    8    6   10    8        0.0000003138
    8    6   11    8       -0.0000360525
    8    6    9    9        0.0000000016
    8    6   10    9        0.0000001015
    8    6   11    9       -0.0000052329
    8    6   10   10        0.0000551329
    8    6   11   10       -0.0091712461
    8    6   11   11        0.0000000270
    9    6    9    6        0.0151092211
    9    6   10    6        0.0000046444
    9    6   11    6       -0.0000009872
    9    6    7    7       -0.0000000008
    9    6    8    7        0.0000000000
    9    6    9    7        0.0000000584
    9    6   10    7        0.0000010845
    9    6   11    7       -0.0027813267
    9    6    8    8        0.0000000007
    9    6    9    8        0.0000000000
    9    6   10    8        0.0000001448
    9    6   11    8       -0.0000034736
    9    6    9    9        0.0000000007
    9    6   10    9        0.0000001115
    9    6   11    9       -0.0000290735
    9    6   10   10       -0.0000853827
    9    6   11   10       -0.0059189690
    9    6   11   11        0.0000000171
   10    6   10    6        0.1104931458
   10    6   11    6       -0.0000000659
   10    6    7    7       -0.0000275491
   10    6    8    7        0.0000150318
   10    6    9    7       -0.0000232634
   10    6   10    7       -0.0000022213
   10    6   11    7       -0.0004621126
   10    6    8    8       -0.0000021074
   10    6    9    8       -0.0000002116
   10    6   10    8        0.0001833866
   10    6   11    8       -0.0699385434
   10    6    9    9       -0.0000018847
   10    6   10    9       -0.0002840562
   10    6   11    9       -0.0451481371
   10    6   10   10        0.0000121426
   10    6   11   10        0.0000077319
   10    6   11   11       -0.0000024037
   11    6   11    6        0.0491598504
   11    6    7    7       -0.0004092779
   11    6    8    7       -0.0043774148
   11    6    9    7       -0.0028215464
   11    6   10    7        0.0000137793
   11    6   11    7       -0.0000015495
   11    6    8    8       -0.0003240609
   11    6    9    8       -0.0000004854
   11    6   10    8        0.0079771640
   11    6   11    8        0.0000000748
   11    6    9    9       -0.0003239345
   11    6   10    9        0.0051564791
   11    6   11    9        0.0000000483
   11    6   10   10       -0.0004156192
   11    6   11   10        0.0000004685
   11    6   11   11       -0.0004243944
    7    7    7    7        0.3885406663
    7    7    8    7        0.0000001581
    7    7    9    7        0.0000000809
    7    7   10    7       -0.0237394724
    7    7   11    7        0.0000002379
    7    7    8    8        0.3706865870
    7    7    9    8       -0.0000000001
    7    7   10    8        0.0000000297
    7    7   11    8        0.0000202068
    7    7    9    9        0.3706260184
    7    7   10    9        0.0000000671
    7    7   11    9        0.0000130412
    7    7   10   10        0.3991093137
    7    7   11   10       -0.0000000056
    7    7   11   11        0.3759304402
    8    7    8    7        0.0166468851
    8    7    9    7        0.0000000000
    8    7   10    7       -0.0000000388
    8    7   11    7        0.0000019266
    8    7    8    8        0.0000001928
    8    7    9    8        0.0000000090
    8    7   10    8       -0.0014679337
    8    7   11    8        0.0000000088
    8    7    9    9        0.0000001698
    8    7   10    9       -0.0000000395
    8    7   11    9       -0.0000000009
    8    7   10   10        0.0000001919
    8    7   11   10       -0.0000007116
    8    7   11   11        0.0001377683
    9    7    9    7        0.0166465087
    9    7   10    7        0.0000000019
    9    7   11    7        0.0000012431
    9    7    8    8        0.0000000860
    9    7    9    8        0.0000000103
    9    7   10    8       -0.0000000415
    9    7   11    8       -0.0000000006
    9    7    9    9        0.0000000945
    9    7   10    9       -0.0014591674
    9    7   11    9        0.0000000100
    9    7   10   10        0.0000000636
    9    7   11   10        0.0000001150
    9    7   11   11        0.0000890213
   10    7   10    7        0.0215038119
   10    7   11    7        0.0000000084
   10    7    8    8       -0.0202614715
   10    7    9    8       -0.0000000336
   10    7   10    8       -0.0000000156
   10    7   11    8        0.0000023238
   10    7    9    9       -0.0202547188
   10    7   10    9       -0.0000000457
   10    7   11    9        0.0000016860
   10    7   10   10       -0.0216157903
   10    7   11   10        0.0000000082
   10    7   11   11       -0.0205237886
   11    7   11    7        0.0097593103
   11    7    8    8        0.0000000827
   11    7    9    8       -0.0000000001
   11    7   10    8       -0.0000018094
   11    7   11    8        0.0004050523
   11    7    9    9        0.0000000831
   11    7   10    9        0.0000014190
   11    7   11    9        0.0002615122
   11    7   10   10        0.0000000547
   11    7   11   10        0.0010337401
   11    7   11   11        0.0000000904
    8    8    8    8        0.4180678990
    8    8    9    8       -0.0000002836
    8    8   10    8        0.0000001838
    8    8   11    8       -0.0000003584
    8    8    9    9        0.3830175153
    8    8   10    9        0.0000000071
    8    8   11    9       -0.0000001922
    8    8   10   10        0.4100357723
    8    8   11   10       -0.0000699852
    8    8   11   11        0.4072311801
    9    8    9    8        0.0182458651
    9    8   10    8        0.0000000024
    9    8   11    8       -0.0000000228
    9    8    9    9        0.0000002848
    9    8   10    9        0.0000000259
    9    8   11    9       -0.0000000335
    9    8   10   10       -0.0000000289
    9    8   11   10        0.0000322531
    9    8   11   11        0.0133751358
   10    8   10    8        0.0236307703
   10    8   11    8       -0.0001901223
   10    8    9    9        0.0000001431
   10    8   10    9       -0.0000005626
   10    8   11    9       -0.0000783581
   10    8   10   10        0.0000000963
   10    8   11   10       -0.0000020938
   10    8   11   11       -0.0000179341
   11    8   11    8        0.0704985330
   11    8    9    9       -0.0000002858
   11    8   10    9        0.0002507671
   11    8   11    9        0.0398190657
   11    8   10   10       -0.0000083885
   11    8   11   10       -0.0000106837
   11    8   11   11        0.0000002332
    9    9    9    9        0.4179320055
    9    9   10    9        0.0000000015
    9    9   11    9       -0.0000002290
    9    9   10   10        0.4099616310
    9    9   11   10        0.0000699868
    9    9   11   11        0.3953322268
   10    9   10    9        0.0236323271
   10    9   11    9        0.0001901166
   10    9   10   10        0.0000001107
   10    9   11   10       -0.0000021361
   10    9   11   11       -0.0000131739
   11    9   11    9        0.0346252360
   11    9   10   10       -0.0000052747
   11    9   11   10       -0.0000076849
   11    9   11   11        0.0000001482
   10   10   10   10        0.4740294588
   10   10   11   10        0.0000000011
   10   10   11   11        0.4277633229
   11   10   11   10        0.0181089136
   11   10   11   11        0.0000000539
   11   11   11   11        0.4371831703
 end_two_electron_integrals


 output epsi filename:./pspw_hf_H2.emovecs

 Total PSPW energy     :  -0.9259375833E+00


=== Spin Contamination ===

 <Sexact^2> =    0.0000000000000000     
 <S^2>      =    0.0000000000000000     



== Center of Charge ==

spin up     (    0.0000,    0.0000,    0.0000 )
spin down   (    0.0000,    0.0000,    0.0000 )
     total  (    0.0000,    0.0000,    0.0000 )
ionic       (    0.0000,    0.0000,    0.0000 )


== Molecular Dipole wrt Center of Mass ==

mu   =  (   -0.0000,   -0.0000,   -0.0000 ) au
|mu| =     0.0000 au,       0.0001 Debye

 output psi filename:./pspw_hf_H2.movecs

 Writing Crystallographic Information File:./H2.cif
   - cell not shifted (nwpw:cif_shift_cell .false.)


== Timing ==

cputime in seconds
  prologue    :   0.621597E+01
  main loop   :   0.284416E+03
  epilogue    :   0.173767E-01
  total       :   0.290649E+03
  cputime/step:   0.207603E+01       (     137 evalulations,      57 linesearches)


Time spent doing                        total          step       percent
  total time                 :   0.290660E+03  0.212161E+01       100.0 %
  i/o time                   :   0.263738E+00  0.192510E-02         0.1 %
  FFTs                       :   0.202409E+03  0.147744E+01        69.6 %
  dot products               :   0.879232E+01  0.641775E-01         3.0 %
  geodesic                   :   0.519173E-01  0.378959E-03         0.0 %
  ffm_dgemm                  :   0.764811E-02  0.558256E-04         0.0 %
  fmf_dgemm                  :   0.647957E-02  0.472961E-04         0.0 %
  mmm_dgemm                  :   0.234069E-02  0.170853E-04         0.0 %
  m_diagonalize              :   0.118490E-02  0.864888E-05         0.0 %
  local pseudopotentials     :   0.431139E+01  0.314700E-01         1.5 %
  non-local pseudopotentials :   0.822761E+01  0.600556E-01         2.8 %
  structure factors          :   0.461575E+00  0.336916E-02         0.2 %
  phase factors              :   0.757500E-05  0.552920E-07         0.0 %
  masking and packing        :   0.497225E+01  0.362938E-01         1.7 %
  queue fft                  :   0.616904E+01  0.450295E-01         2.1 %
  queue fft (serial)         :   0.231846E+01  0.169231E-01         0.8 %
  queue fft (message passing):   0.382076E+01  0.278887E-01         1.3 %
  HFX potential              :   0.315757E+01  0.230480E-01         1.1 %
  non-local psp FFM          :   0.786511E+01  0.574096E-01         2.7 %
  non-local psp FMF          :   0.793416E-01  0.579136E-03         0.0 %
  non-local psp FFM A        :   0.323596E-01  0.236202E-03         0.0 %
  non-local psp FFM B        :   0.113531E+00  0.828696E-03         0.0 %

== HFX Counters ==
  HFX Evalulations         =   137
  Lin ACE HFX Evalulations =     0


     >>>  JOB COMPLETED     AT Mon Apr 14 15:43:32 2025  <<<

 Task  times  cpu:      269.9s     wall:      290.7s


                                NWChem Input Module
                                -------------------


 Summary of allocated global arrays
-----------------------------------
  No active global arrays


MA_summarize_allocated_blocks: starting scan ...
MA_summarize_allocated_blocks: scan completed: 0 heap blocks, 0 stack blocks
MA usage statistics:

	allocation statistics:
					      heap	     stack
					      ----	     -----
	current number of blocks	         0	         0
	maximum number of blocks	       313	        36
	current total bytes		         0	         0
	maximum total bytes		  16366104	   5334696
	maximum total K-bytes		     16367	      5335
	maximum total M-bytes		        17	         6


                                     CITATION
                                     --------
                Please cite the following reference when publishing
                           results obtained with NWChem:

          E. Apra, E. J. Bylaska, W. A. de Jong, N. Govind, K. Kowalski,
       T. P. Straatsma, M. Valiev, H. J. J. van Dam, Y. Alexeev, J. Anchell,
       V. Anisimov, F. W. Aquino, R. Atta-Fynn, J. Autschbach, N. P. Bauman,
     J. C. Becca, D. E. Bernholdt, K. Bhaskaran-Nair, S. Bogatko, P. Borowski,
         J. Boschen, J. Brabec, A. Bruner, E. Cauet, Y. Chen, G. N. Chuev,
      C. J. Cramer, J. Daily, M. J. O. Deegan, T. H. Dunning Jr., M. Dupuis,
   K. G. Dyall, G. I. Fann, S. A. Fischer, A. Fonari, H. Fruchtl, L. Gagliardi,
      J. Garza, N. Gawande, S. Ghosh, K. Glaesemann, A. W. Gotz, J. Hammond,
       V. Helms, E. D. Hermes, K. Hirao, S. Hirata, M. Jacquelin, L. Jensen,
   B. G. Johnson, H. Jonsson, R. A. Kendall, M. Klemm, R. Kobayashi, V. Konkov,
      S. Krishnamoorthy, M. Krishnan, Z. Lin, R. D. Lins, R. J. Littlefield,
      A. J. Logsdail, K. Lopata, W. Ma, A. V. Marenich, J. Martin del Campo,
   D. Mejia-Rodriguez, J. E. Moore, J. M. Mullin, T. Nakajima, D. R. Nascimento,
    J. A. Nichols, P. J. Nichols, J. Nieplocha, A. Otero-de-la-Roza, B. Palmer,
    A. Panyala, T. Pirojsirikul, B. Peng, R. Peverati, J. Pittner, L. Pollack,
   R. M. Richard, P. Sadayappan, G. C. Schatz, W. A. Shelton, D. W. Silverstein,
   D. M. A. Smith, T. A. Soares, D. Song, M. Swart, H. L. Taylor, G. S. Thomas,
            V. Tipparaju, D. G. Truhlar, K. Tsemekhman, T. Van Voorhis,
      A. Vazquez-Mayagoitia, P. Verma, O. Villa, A. Vishnu, K. D. Vogiatzis,
        D. Wang, J. H. Weare, M. J. Williamson, T. L. Windus, K. Wolinski,
        A. T. Wong, Q. Wu, C. Yang, Q. Yu, M. Zacharias, Z. Zhang, Y. Zhao,
                                and R. J. Harrison
                        "NWChem: Past, present, and future
                         J. Chem. Phys. 152, 184102 (2020)
                               doi:10.1063/5.0004997

                                      AUTHORS
                                      -------
  E. Apra, E. J. Bylaska, N. Govind, K. Kowalski, M. Valiev, D. Mejia-Rodriguez,
       A. Kunitsa, N. P. Bauman, A. Panyala, W. A. de Jong, T. P. Straatsma,
   H. J. J. van Dam, D. Wang, T. L. Windus, J. Hammond, J. Autschbach, A. Woods,
    K. Bhaskaran-Nair, J. Brabec, K. Lopata, S. A. Fischer, S. Krishnamoorthy,
     M. Jacquelin, W. Ma, M. Klemm, O. Villa, Y. Chen, V. Anisimov, F. Aquino,
     S. Hirata, M. T. Hackler, E. Hermes, L. Jensen, J. E. Moore, J. C. Becca,
      V. Konjkov, T. Risthaus, M. Malagoli, A. Marenich, A. Otero-de-la-Roza,
        J. Mullin, P. Nichols, R. Peverati, J. Pittner, Y. Zhao, P.-D. Fan,
        A. Fonari, M. J. Williamson, R. J. Harrison, J. R. Rehr, M. Dupuis,
     D. Silverstein, D. M. A. Smith, J. Nieplocha, V. Tipparaju, M. Krishnan,
     B. E. Van Kuiken, A. Vazquez-Mayagoitia, M. Swart, Q. Wu, T. Van Voorhis,
     A. A. Auer, M. Nooijen, L. D. Crosby, E. Brown, G. Cisneros, G. I. Fann,
   H. Fruchtl, J. Garza, K. Hirao, R. A. Kendall, J. A. Nichols, K. Tsemekhman,
    K. Wolinski, J. Anchell, D. E. Bernholdt, P. Borowski, T. Clark, D. Clerc,
   H. Dachsel, M. J. O. Deegan, K. Dyall, D. Elwood, E. Glendening, M. Gutowski,
   A. C. Hess, J. Jaffe, B. G. Johnson, J. Ju, R. Kobayashi, R. Kutteh, Z. Lin,
   R. Littlefield, X. Long, B. Meng, T. Nakajima, S. Niu, L. Pollack, M. Rosing,
   K. Glaesemann, G. Sandrone, M. Stave, H. Taylor, G. Thomas, J. H. van Lenthe,
                               A. T. Wong, Z. Zhang.

 Total times  cpu:      269.9s     wall:      290.7s
