 argument  1 = H2-3.0.nw



============================== echo of input deck ==============================
title "swnc: e theory=pspw4 xc=hf formula=H2 charge=0 mult=1"
#machinejob:expert

echo

start pspw_hf_H2

memory heap 1200 mb stack 1200 mb global 10 mb

charge 0

geometry
H    0.00000    0.00000   -1.50000
H    0.00000    0.00000    1.50000
end

nwpw
  ### pseudopotential block begin ###
  ### pseudopotential block end   ###
  simulation_cell
     SC 20.0000
     boundary_conditions aperiodic
  end

  cutoff 50.0
  mult 1
  xc hf
  lmbfgs
  tolerances 1.0e-9 1.0e-9

  virtual 10
end
set nwpw:cif_filename H2

#set nwpw:CI_maxit_orb 15
#set nwpw:CI_maxit_linesearch 15
set pspw:HFX_screening_radius 14.0


set nwpw:2qintegrals .true.
set nwpw:3x3_virtual .true.

task pspw energy

================================================================================


                                         
                                         


             Northwest Computational Chemistry Package (NWChem) 7.2.3
             --------------------------------------------------------


                    Environmental Molecular Sciences Laboratory
                       Pacific Northwest National Laboratory
                                Richland, WA 99352

                              Copyright (c) 1994-2022
                       Pacific Northwest National Laboratory
                            Battelle Memorial Institute

             NWChem is an open-source computational chemistry package
                        distributed under the terms of the
                      Educational Community License (ECL) 2.0
             A copy of the license is included with this distribution
                              in the LICENSE.TXT file

                                  ACKNOWLEDGMENT
                                  --------------

            This software and its documentation were developed at the
            EMSL at Pacific Northwest National Laboratory, a multiprogram
            national laboratory, operated for the U.S. Department of Energy
            by Battelle under Contract Number DE-AC05-76RL01830. Support
            for this work was provided by the Department of Energy Office
            of Biological and Environmental Research, Office of Basic
            Energy Sciences, and the Office of Advanced Scientific Computing.


           Job information
           ---------------

    hostname        = mqs-al
    program         = nwchem
    date            = Wed Apr 23 06:43:36 2025

    compiled        = Thu_Oct_31_08:55:15_2024
    source          = /home/conda/feedstock_root/build_artifacts/nwchem_1730356057992/work
    nwchem branch   = 7.2.3
    nwchem revision = c400b04
    ga revision     = 5.8.0
    use scalapack   = T
    input           = H2-3.0.nw
    prefix          = pspw_hf_H2.
    data base       = ./pspw_hf_H2.db
    status          = startup
    nproc           =       24
    time left       =     -1s



           Memory information
           ------------------

    heap     =  157286398 doubles =   1200.0 Mbytes
    stack    =  157286395 doubles =   1200.0 Mbytes
    global   =    1310720 doubles =     10.0 Mbytes (distinct from heap & stack)
    total    =  315883513 doubles =   2410.0 Mbytes
    verify   = yes
    hardfail = no 


           Directory information
           ---------------------

  0 permanent = .
  0 scratch   = .




                                NWChem Input Module
                                -------------------


               swnc: e theory=pspw4 xc=hf formula=H2 charge=0 mult=1
               -----------------------------------------------------

 Scaling coordinates for geometry "geometry" by  1.889725989
 (inverse scale =  0.529177249)

  zeroes
  zeroes
  zeroes
  zeroes
  zeroes
  zeroes
  zeroes
  zeroes
  zeroes
  zeroes
  zeroes
  zeroes
  zeroes
  zeroes
  zeroes
  zeroes
  zeroes
  zeroes
  zeroes
  zeroes
  zeroes
  zeroes
  zeroes
  zeroes
  zeroes
  zeroes
  zeroes
  zeroes
  zeroes
  zeroes
  zeroes
  zeroes
  zeroes
  zeroes
  zeroes
  zeroes
  zeroes
  zeroes
  zeroes
  zeroes
  zeroes
  zeroes
  zeroes
  zeroes
  zeroes
  zeroes
  zeroes
  zeroes
 ORDER OF PRIMARY AXIS IS BEING SET TO 4
 D4H symmetry detected

          ------
          auto-z
          ------
     1 autoz failed with cvr_scaling = 1.2 changing to 1.3
     2 autoz failed with cvr_scaling = 1.3 changing to 1.4
     3 autoz failed with cvr_scaling = 1.4 changing to 1.5
     4 autoz failed with cvr_scaling = 1.5 changing to 1.6
     5 autoz failed with cvr_scaling = 1.6 changing to 1.7

 AUTOZ failed to generate good internal coordinates.
 Cartesian coordinates will be used in optimizations.



                             Geometry "geometry" -> ""
                             -------------------------

 Output coordinates in angstroms (scale by  1.889725989 to convert to a.u.)

  No.       Tag          Charge          X              Y              Z
 ---- ---------------- ---------- -------------- -------------- --------------
    1 H                    1.0000     0.00000000     0.00000000    -1.50000000
    2 H                    1.0000     0.00000000     0.00000000     1.50000000

      Atomic Mass 
      ----------- 

      H                  1.007825


 Effective nuclear repulsion energy (a.u.)       0.1763924163

            Nuclear Dipole moment (a.u.) 
            ----------------------------
        X                 Y               Z
 ---------------- ---------------- ----------------
     0.0000000000     0.0000000000     0.0000000000

      Symmetry information
      --------------------

 Group name             D4h       
 Group number             28
 Group order              16
 No. of unique centers     1

      Symmetry unique atoms

     1


            XYZ format geometry
            -------------------
     2
 geometry
 H                     0.00000000     0.00000000    -1.50000000
 H                     0.00000000     0.00000000     1.50000000

          ****************************************************
          *                                                  *
          *               NWPW PSPW Calculation              *
          *                                                  *
          * [ (Grassmann/Stiefel manifold implementation)  ] *
          *                                                  *
          *      [ NorthWest Chemistry implementation ]      *
          *                                                  *
          *            version #5.10   06/12/02              *
          *                                                  *
          *    This code was developed by Eric J. Bylaska,   *
          *    and was based upon algorithms and code        *
          *    developed by the group of Prof. John H. Weare *
          *                                                  *
          ****************************************************
     >>>  JOB STARTED       AT Wed Apr 23 06:43:36 2025  <<<
          ================ input data ========================
 pseudopotential is not correctly formatted:H.vpp                                             

 Generated formatted_filename: ./H.vpp
 Error reading psi - bad grid
 nfft :                   70                   70                   70
 ngrid:                   96                   96                   96
 Error reading psi - bad unitcell
  - Ignored if the following  parameter is set
  - set nwpw:psi_nolattice .true.
 Error reading psi - bad grid
 nfft :                   70                   70                   70
 ngrid:                   96                   96                   96
 Error reading psi - bad unitcell
  - Ignored if the following  parameter is set
  - set nwpw:psi_nolattice .true.
 Error reading psi - bad grid
 Error reading psi - bad unitcell
  - Ignored if the following  parameter is set
  - set nwpw:psi_nolattice .true.

 Grid is being converted:
 ------------------------

 To turn off automatic grid conversion:

 set nwpw:psi_nogrid .false.

 old_filename: pspw_hf_H2.movecs                                 
 new_filename: pspw_hf_H2.movecs                                 
 converting  :  70x 70x 70 -->  96x 96x 96
converting .... psi:    1 spin: 1

 input psi filename:./pspw_hf_H2.movecs

 number of processors used:        24
 processor grid           :  24 x   1
 parallel mapping         :2d-hilbert
 parallel mapping         :  balanced
 number of threads        :         1
 parallel io              :       off

 options:
      boundary conditions  = aperiodic   (version4)
      electron spin        = restricted
      exchange-correlation = Hartree-Fock
      - HFX relaxed
      - HFX restricted orbitals :    1
      - HFX free-space coulomb solver


 elements involved in the cluster:
      1: H   valence charge:  1.0000  lmax=  1
             comment    : Parameterized (Chem.Phys.Lett., vol 322, page 447) Hamman psp
             pseudpotential type            :   0
             highest angular component      :   1
             local potential used           :   1
             number of non-local projections:   1
             aperiodic cutoff radius        :  1.000
             cutoff =   0.800   0.800


 total charge:   0.000

 atomic composition:
     H   :    2

 number of electrons: spin up=     1 (   1 per task)  down=     1 (   1 per task) (Fourier space)
 number of orbitals : spin up=     1 (   1 per task)  down=     1 (   1 per task) (Fourier space)

 supercell:
      cell_name:  cell_default                                      
      lattice:    a1=<  20.000   0.000   0.000 >
                  a2=<   0.000  20.000   0.000 >
                  a3=<   0.000   0.000  20.000 >
      reciprocal: b1=<   0.314   0.000   0.000 >
                  b2=<   0.000   0.314   0.000 >
                  b3=<   0.000   0.000   0.314 >
      lattice:    a=      20.000 b=     20.000 c=      20.000
                  alpha=  90.000 beta=  90.000 gamma=  90.000
                  omega=      8000.0

      density cutoff=100.000  fft= 96x 96x 96(   191162 waves     7965 per task)
      wavefnc cutoff= 50.000  fft= 96x 96x 96(    67522 waves     2813 per task)

 technical parameters:
      time step=      5.80     fictitious mass=  400000.0
      tolerance=0.100E-08 (energy)   0.100E-08 (density)
      maximum iterations =      1000 (   10 inner    100 outer )





== Energy Calculation ==


          ============ Grassmann lmbfgs iteration ============
     >>>  ITERATION STARTED AT Wed Apr 23 06:43:44 2025  <<<
    iter.           Energy         DeltaE       DeltaRho 
    ------------------------------------------------------
      10   -0.5457066032E+00   -0.58668E-01    0.40652E-01
     -  10 steepest descent iterations performed
      20   -0.8184797790E+00   -0.34670E-02    0.42849E-02
      30   -0.8331339112E+00   -0.35564E-03    0.78170E-04
      40   -0.8339877192E+00   -0.18226E-04    0.38064E-05
      50   -0.8340320807E+00   -0.87575E-06    0.11020E-06
      60   -0.8340343108E+00   -0.52796E-07    0.15768E-08
      70   -0.8340344968E+00   -0.39911E-08    0.27286E-09
      80   -0.8340345074E+00   -0.87670E-09    0.12711E-10
  *** tolerance ok. iteration terminated
     >>>  ITERATION ENDED   AT Wed Apr 23 06:44:11 2025  <<<


==  Summary Of Results  ==

 number of electrons: spin up=    1.00000  down=    1.00000 (real space)

 total     energy    :  -0.8340345074E+00 (   -0.41702E+00/ion)
 total orbital energy:  -0.6644017434E+00 (   -0.66440E+00/electron)
 hartree   energy    :   0.6920503606E+00 (    0.69205E+00/electron)
 exc-corr  energy    :   0.0000000000E+00 (    0.00000E+00/electron)
 HF exchange energy  :  -0.3460251803E+00 (   -0.34603E+00/electron)
 ion-ion   energy    :   0.1763924163E+00 (    0.88196E-01/ion)

 kinetic (planewave) :   0.6216687253E+00 (    0.62167E+00/electron)
 V_local (planewave) :  -0.1830680386E+01 (   -0.18307E+01/electron)
 V_nl    (planewave) :  -0.1474404437E+00 (   -0.14744E+00/electron)
 V_Coul  (planewave) :   0.1384100721E+01 (    0.13841E+01/electron)
 V_xc.   (planewave) :   0.0000000000E+00 (    0.00000E+00/electron)
 K.S. HFX energy     :  -0.6920503606E+00 (   -0.69205E+00/electron)
 Virial Coefficient  :  -0.9555251599E+00

 orbital energies:
    -0.3322009E+00 (  -9.040eV)


== Virtual Orbital Calculation ==

 Error reading psi - bad grid
 Error reading psi - bad unitcell
  - Ignored if the following  parameter is set
  - set nwpw:psi_nolattice .true.
 Error reading psi - bad grid
 Error reading psi - bad unitcell
  - Ignored if the following  parameter is set
  - set nwpw:psi_nolattice .true.
 Error reading psi - bad grid
 Error reading psi - bad unitcell
  - Ignored if the following  parameter is set
  - set nwpw:psi_nolattice .true.

 Grid is being converted:
 ------------------------

 To turn off automatic grid conversion:

 set nwpw:psi_nogrid .false.

 old_filename: pspw_hf_H2.emovecs                                
 new_filename: pspw_hf_H2.emovecs                                
 converting  :  70x 70x 70 -->  96x 96x 96
converting .... psi:    1 spin: 1
converting .... psi:    2 spin: 1
converting .... psi:    3 spin: 1
converting .... psi:    4 spin: 1
converting .... psi:    5 spin: 1
converting .... psi:    6 spin: 1
converting .... psi:    7 spin: 1
converting .... psi:    8 spin: 1
converting .... psi:    9 spin: 1
converting .... psi:   10 spin: 1

 input epsi filename:./pspw_hf_H2.emovecs

 COVOs Mimimization
 ------------------
CI gradient algorithm =         3
maxit_sweeps          =         3
maxit_orb             =       120
maxit_linesearch      =        15
maxerror              = 0.100E-08

     orb,it,eci,eold,eci-eold=                    1                    1 -0.83465315903927861      -0.83406291008930133       -5.9024894997727895E-004 F
     orb,it,eci,eold,eci-eold=                    1                    2 -0.83515996164404083      -0.83465315903927861       -5.0680260476221317E-004 F
     orb,it,eci,eold,eci-eold=                    1                    3 -0.89332686185436128      -0.83515996164404083       -5.8166900210320449E-002 F
     orb,it,eci,eold,eci-eold=                    1                    4 -0.89332686185436128      -0.89332686185436128        0.0000000000000000      F
     orbital   1 current e=  0.230494E+00 error=0.791E-01 (eci= -0.893326862E+00 error=0.000E+00) iterations   4(   0 preconditioned, Ep,Sp= 20.0  200.0)
     orb,it,eci,eold,eci-eold=                    1                    1 -0.89711984121111965      -0.87772586277103015       -1.9393978440089499E-002 F
     orb,it,eci,eold,eci-eold=                    1                    2 -0.89756731343159291      -0.89711984121111965       -4.4747222047325508E-004 F
     orb,it,eci,eold,eci-eold=                    1                    3 -0.90547192796823217      -0.89756731343159291       -7.9046145366392651E-003 F
     orb,it,eci,eold,eci-eold=                    1                    4 -0.90783845761783244      -0.90547192796823217       -2.3665296496002686E-003 F
     orb,it,eci,eold,eci-eold=                    1                    5 -0.91006697806644010      -0.90783845761783244       -2.2285204486076626E-003 F
     orb,it,eci,eold,eci-eold=                    1                    6 -0.91933073715516422      -0.91006697806644010       -9.2637590887241217E-003 F
     orb,it,eci,eold,eci-eold=                    1                    7 -0.92342857399427425      -0.91933073715516422       -4.0978368391100251E-003 F
     orb,it,eci,eold,eci-eold=                    1                    8 -0.92609073996305635      -0.92342857399427425       -2.6621659687821042E-003 F
     orb,it,eci,eold,eci-eold=                    1                    9 -0.93039097527768222      -0.92609073996305635       -4.3002353146258665E-003 F
     orb,it,eci,eold,eci-eold=                    1                   10 -0.93049680864733975      -0.93039097527768222       -1.0583336965752643E-004 F
     orb,it,eci,eold,eci-eold=                    1                   11 -0.93092742025597142      -0.93049680864733975       -4.3061160863167025E-004 F
     orb,it,eci,eold,eci-eold=                    1                   12 -0.93506098159955731      -0.93092742025597142       -4.1335613435858898E-003 F
     orb,it,eci,eold,eci-eold=                    1                   13 -0.93735625565921410      -0.93506098159955731       -2.2952740596567933E-003 F
     orb,it,eci,eold,eci-eold=                    1                   14 -0.93987458415801195      -0.93735625565921410       -2.5183284987978505E-003 F
     orb,it,eci,eold,eci-eold=                    1                   15 -0.94117290341394333      -0.93987458415801195       -1.2983192559313794E-003 F
     orb,it,eci,eold,eci-eold=                    1                   16 -0.94418521788383458      -0.94117290341394333       -3.0123144698912530E-003 F
     orb,it,eci,eold,eci-eold=                    1                   17 -0.94506122614269017      -0.94418521788383458       -8.7600825885558731E-004 F
     orb,it,eci,eold,eci-eold=                    1                   18 -0.94520372296171318      -0.94506122614269017       -1.4249681902300804E-004 F
     orb,it,eci,eold,eci-eold=                    1                   19 -0.94685259914999587      -0.94520372296171318       -1.6488761882826886E-003 F
     orb,it,eci,eold,eci-eold=                    1                   20 -0.94809242013035766      -0.94685259914999587       -1.2398209803617943E-003 F
     orb,it,eci,eold,eci-eold=                    1                   21 -0.94866168623104297      -0.94809242013035766       -5.6926610068530614E-004 F
     orb,it,eci,eold,eci-eold=                    1                   22 -0.95016392649228099      -0.94866168623104297       -1.5022402612380192E-003 F
     orb,it,eci,eold,eci-eold=                    1                   23 -0.95063647688144670      -0.95016392649228099       -4.7255038916571568E-004 F
     orb,it,eci,eold,eci-eold=                    1                   24 -0.95094666791269167      -0.95063647688144670       -3.1019103124496628E-004 F
     orb,it,eci,eold,eci-eold=                    1                   25 -0.95254124320105282      -0.95094666791269167       -1.5945752883611553E-003 F
     orb,it,eci,eold,eci-eold=                    1                   26 -0.95375921839252964      -0.95254124320105282       -1.2179751914768167E-003 F
     orb,it,eci,eold,eci-eold=                    1                   27 -0.95423809210053168      -0.95375921839252964       -4.7887370800203666E-004 F
     orb,it,eci,eold,eci-eold=                    1                   28 -0.95542318074436261      -0.95423809210053168       -1.1850886438309338E-003 F
     orb,it,eci,eold,eci-eold=                    1                   29 -0.95579254717985140      -0.95542318074436261       -3.6936643548879378E-004 F
     orb,it,eci,eold,eci-eold=                    1                   30 -0.95606069784113434      -0.95579254717985140       -2.6815066128293985E-004 F
     orb,it,eci,eold,eci-eold=                    1                   31 -0.95741313377771409      -0.95606069784113434       -1.3524359365797434E-003 F
     orb,it,eci,eold,eci-eold=                    1                   32 -0.95855958274696651      -0.95741313377771409       -1.1464489692524227E-003 F
     orb,it,eci,eold,eci-eold=                    1                   33 -0.95906963149864299      -0.95855958274696651       -5.1004875167648400E-004 F
     orb,it,eci,eold,eci-eold=                    1                   34 -0.96018766952876589      -0.95906963149864299       -1.1180380301228920E-003 F
     orb,it,eci,eold,eci-eold=                    1                   35 -0.96037805305125989      -0.96018766952876589       -1.9038352249400869E-004 F
     orb,it,eci,eold,eci-eold=                    1                   36 -0.96047822975440555      -0.96037805305125989       -1.0017670314566018E-004 F
     orb,it,eci,eold,eci-eold=                    1                   37 -0.96140290044958299      -0.96047822975440555       -9.2467069517743194E-004 F
     orb,it,eci,eold,eci-eold=                    1                   38 -0.96231704845272459      -0.96140290044958299       -9.1414800314160161E-004 F
     orb,it,eci,eold,eci-eold=                    1                   39 -0.96281056257470388      -0.96231704845272459       -4.9351412197928823E-004 F
     orb,it,eci,eold,eci-eold=                    1                   40 -0.96385808857185418      -0.96281056257470388       -1.0475259971503004E-003 F
     orb,it,eci,eold,eci-eold=                    1                   41 -0.96412127948129955      -0.96385808857185418       -2.6319090944537660E-004 F
     orb,it,eci,eold,eci-eold=                    1                   42 -0.96425621720662869      -0.96412127948129955       -1.3493772532913173E-004 F
     orb,it,eci,eold,eci-eold=                    1                   43 -0.96512866804193320      -0.96425621720662869       -8.7245083530451684E-004 F
     orb,it,eci,eold,eci-eold=                    1                   44 -0.96589435413659486      -0.96512866804193320       -7.6568609466165505E-004 F
     orb,it,eci,eold,eci-eold=                    1                   45 -0.96626462450646589      -0.96589435413659486       -3.7027036987102857E-004 F
     orb,it,eci,eold,eci-eold=                    1                   46 -0.96711253980706391      -0.96626462450646589       -8.4791530059802334E-004 F
     orb,it,eci,eold,eci-eold=                    1                   47 -0.96741977094816911      -0.96711253980706391       -3.0723114110520200E-004 F
     orb,it,eci,eold,eci-eold=                    1                   48 -0.96760939023996551      -0.96741977094816911       -1.8961929179639458E-004 F
     orb,it,eci,eold,eci-eold=                    1                   49 -0.96843514029611788      -0.96760939023996551       -8.2575005615237451E-004 F
     orb,it,eci,eold,eci-eold=                    1                   50 -0.96896990251906834      -0.96843514029611788       -5.3476222295045783E-004 F
     orb,it,eci,eold,eci-eold=                    1                   51 -0.96918112158260927      -0.96896990251906834       -2.1121906354093500E-004 F
     orb,it,eci,eold,eci-eold=                    1                   52 -0.96983420677651178      -0.96918112158260927       -6.5308519390250286E-004 F
     orb,it,eci,eold,eci-eold=                    1                   53 -0.97022869986585980      -0.96983420677651178       -3.9449308934802474E-004 F
     orb,it,eci,eold,eci-eold=                    1                   54 -0.97048658136696098      -0.97022869986585980       -2.5788150110117591E-004 F
     orb,it,eci,eold,eci-eold=                    1                   55 -0.97127256973329978      -0.97048658136696098       -7.8598836633880786E-004 F
     orb,it,eci,eold,eci-eold=                    1                   56 -0.97163477992446523      -0.97127256973329978       -3.6221019116544628E-004 F
     orb,it,eci,eold,eci-eold=                    1                   57 -0.97176877909494563      -0.97163477992446523       -1.3399917048040333E-004 F
     orb,it,eci,eold,eci-eold=                    1                   58 -0.97236718509001818      -0.97176877909494563       -5.9840599507254844E-004 F
     orb,it,eci,eold,eci-eold=                    1                   59 -0.97281771100774761      -0.97236718509001818       -4.5052591772942741E-004 F
     orb,it,eci,eold,eci-eold=                    1                   60 -0.97306465081709059      -0.97281771100774761       -2.4693980934298310E-004 F
     orb,it,eci,eold,eci-eold=                    1                   61 -0.97369796471351844      -0.97306465081709059       -6.3331389642784508E-004 F
     orb,it,eci,eold,eci-eold=                    1                   62 -0.97392448397957576      -0.97369796471351844       -2.2651926605732342E-004 F
     orb,it,eci,eold,eci-eold=                    1                   63 -0.97403201572562392      -0.97392448397957576       -1.0753174604816174E-004 F
     orb,it,eci,eold,eci-eold=                    1                   64 -0.97456500881848551      -0.97403201572562392       -5.3299309286158891E-004 F
     orb,it,eci,eold,eci-eold=                    1                   65 -0.97493658196761812      -0.97456500881848551       -3.7157314913260908E-004 F
     orb,it,eci,eold,eci-eold=                    1                   66 -0.97510899115470817      -0.97493658196761812       -1.7240918709005015E-004 F
     orb,it,eci,eold,eci-eold=                    1                   67 -0.97560828363508634      -0.97510899115470817       -4.9929248037816620E-004 F
     orb,it,eci,eold,eci-eold=                    1                   68 -0.97585763177834151      -0.97560828363508634       -2.4934814325516808E-004 F
     orb,it,eci,eold,eci-eold=                    1                   69 -0.97598923991358522      -0.97585763177834151       -1.3160813524371040E-004 F
     orb,it,eci,eold,eci-eold=                    1                   70 -0.97644087281465708      -0.97598923991358522       -4.5163290107186338E-004 F
     orb,it,eci,eold,eci-eold=                    1                   71 -0.97665179095437260      -0.97644087281465708       -2.1091813971552131E-004 F
     orb,it,eci,eold,eci-eold=                    1                   72 -0.97674644369859798      -0.97665179095437260       -9.4652744225376395E-005 F
     orb,it,eci,eold,eci-eold=                    1                   73 -0.97714453496722986      -0.97674644369859798       -3.9809126863188382E-004 F
     orb,it,eci,eold,eci-eold=                    1                   74 -0.97738861821743617      -0.97714453496722986       -2.4408325020630617E-004 F
     orb,it,eci,eold,eci-eold=                    1                   75 -0.97749251660077530      -0.97738861821743617       -1.0389838333912937E-004 F
     orb,it,eci,eold,eci-eold=                    1                   76 -0.97781319511041953      -0.97749251660077530       -3.2067850964423439E-004 F
     orb,it,eci,eold,eci-eold=                    1                   77 -0.97796079734665964      -0.97781319511041953       -1.4760223624010749E-004 F
     orb,it,eci,eold,eci-eold=                    1                   78 -0.97804398030283790      -0.97796079734665964       -8.3182956178262657E-005 F
     orb,it,eci,eold,eci-eold=                    1                   79 -0.97835047050478685      -0.97804398030283790       -3.0649020194895016E-004 F
     orb,it,eci,eold,eci-eold=                    1                   80 -0.97849543440496656      -0.97835047050478685       -1.4496390017970651E-004 F
     orb,it,eci,eold,eci-eold=                    1                   81 -0.97855258280744228      -0.97849543440496656       -5.7148402475726279E-005 F
     orb,it,eci,eold,eci-eold=                    1                   82 -0.97879725727819911      -0.97855258280744228       -2.4467447075682269E-004 F
     orb,it,eci,eold,eci-eold=                    1                   83 -0.97894093126580273      -0.97879725727819911       -1.4367398760362082E-004 F
     orb,it,eci,eold,eci-eold=                    1                   84 -0.97900528652033225      -0.97894093126580273       -6.4355254529524508E-005 F
     orb,it,eci,eold,eci-eold=                    1                   85 -0.97921165835961854      -0.97900528652033225       -2.0637183928629010E-004 F
     orb,it,eci,eold,eci-eold=                    1                   86 -0.97930817693204508      -0.97921165835961854       -9.6518572426540494E-005 F
     orb,it,eci,eold,eci-eold=                    1                   87 -0.97935754201045078      -0.97930817693204508       -4.9365078405694263E-005 F
     orb,it,eci,eold,eci-eold=                    1                   88 -0.97953691435102164      -0.97935754201045078       -1.7937234057086027E-004 F
     orb,it,eci,eold,eci-eold=                    1                   89 -0.97961767726797622      -0.97953691435102164       -8.0762916954579822E-005 F
     orb,it,eci,eold,eci-eold=                    1                   90 -0.97965355886549399      -0.97961767726797622       -3.5881597517772867E-005 F
     orb,it,eci,eold,eci-eold=                    1                   91 -0.97981036538924959      -0.97965355886549399       -1.5680652375560378E-004 F
     orb,it,eci,eold,eci-eold=                    1                   92 -0.97990258133445318      -0.97981036538924959       -9.2215945203588667E-005 F
     orb,it,eci,eold,eci-eold=                    1                   93 -0.97993869883880014      -0.97990258133445318       -3.6117504346955265E-005 F
     orb,it,eci,eold,eci-eold=                    1                   94 -0.98005739051883678      -0.97993869883880014       -1.1869168003664221E-004 F
     orb,it,eci,eold,eci-eold=                    1                   95 -0.98011725560714991      -0.98005739051883678       -5.9865088313126869E-005 F
     orb,it,eci,eold,eci-eold=                    1                   96 -0.98015142214791129      -0.98011725560714991       -3.4166540761382258E-005 F
     orb,it,eci,eold,eci-eold=                    1                   97 -0.98026404225898522      -0.98015142214791129       -1.1262011107393555E-004 F
     orb,it,eci,eold,eci-eold=                    1                   98 -0.98030697376476805      -0.98026404225898522       -4.2931505782828339E-005 F
     orb,it,eci,eold,eci-eold=                    1                   99 -0.98032367948009413      -0.98030697376476805       -1.6705715326081894E-005 F
     orb,it,eci,eold,eci-eold=                    1                  100 -0.98041418382682477      -0.98032367948009413       -9.0504346730635454E-005 F
     orb,it,eci,eold,eci-eold=                    1                  101 -0.98047612554890518      -0.98041418382682477       -6.1941722080405270E-005 F
     orb,it,eci,eold,eci-eold=                    1                  102 -0.98050334319647070      -0.98047612554890518       -2.7217647565525027E-005 F
     orb,it,eci,eold,eci-eold=                    1                  103 -0.98058093860818007      -0.98050334319647070       -7.7595411709374673E-005 F
     orb,it,eci,eold,eci-eold=                    1                  104 -0.98061289344857328      -0.98058093860818007       -3.1954840393200179E-005 F
     orb,it,eci,eold,eci-eold=                    1                  105 -0.98062873565158215      -0.98061289344857328       -1.5842203008875622E-005 F
     orb,it,eci,eold,eci-eold=                    1                  106 -0.98069339060060623      -0.98062873565158215       -6.4654949024078867E-005 F
     orb,it,eci,eold,eci-eold=                    1                  107 -0.98072908808127268      -0.98069339060060623       -3.5697480666452286E-005 F
     orb,it,eci,eold,eci-eold=                    1                  108 -0.98074670009939968      -0.98072908808127268       -1.7612018127000084E-005 F
     orb,it,eci,eold,eci-eold=                    1                  109 -0.98080673332956780      -0.98074670009939968       -6.0033230168121676E-005 F
     orb,it,eci,eold,eci-eold=                    1                  110 -0.98083139257048391      -0.98080673332956780       -2.4659240916102831E-005 F
     orb,it,eci,eold,eci-eold=                    1                  111 -0.98084019633840214      -0.98083139257048391       -8.8037679182306761E-006 F
     orb,it,eci,eold,eci-eold=                    1                  112 -0.98088786081792834      -0.98084019633840214       -4.7664479526199344E-005 F
     orb,it,eci,eold,eci-eold=                    1                  113 -0.98092368320485490      -0.98088786081792834       -3.5822386926565031E-005 F
     orb,it,eci,eold,eci-eold=                    1                  114 -0.98094039095811481      -0.98092368320485490       -1.6707753259903591E-005 F
     orb,it,eci,eold,eci-eold=                    1                  115 -0.98098091482271343      -0.98094039095811481       -4.0523864598629444E-005 F
     orb,it,eci,eold,eci-eold=                    1                  116 -0.98099328830468835      -0.98098091482271343       -1.2373481974914391E-005 F
     orb,it,eci,eold,eci-eold=                    1                  117 -0.98100130929179119      -0.98099328830468835       -8.0209871028413815E-006 F
     orb,it,eci,eold,eci-eold=                    1                  118 -0.98103931021815427      -0.98100130929179119       -3.8000926363079834E-005 F
     orb,it,eci,eold,eci-eold=                    1                  119 -0.98105859652037430      -0.98103931021815427       -1.9286302220034024E-005 F
     orb,it,eci,eold,eci-eold=                    1                  120 -0.98106508717172802      -0.98105859652037430       -6.4906513537188459E-006 F
     orb,it,eci,eold,eci-eold=                    1                  121 -0.98109560475574387      -0.98106508717172802       -3.0517584015843369E-005 F
     orbital   1 current e= -0.112652E+00 error=0.343E+00 (eci= -0.981095605E+00 error=0.305E-04) iterations 121(   0 preconditioned, Ep,Sp= 20.0  200.0)
     orb,it,eci,eold,eci-eold=                    1                    1 -0.98115101065465327      -0.98109560475574387       -5.5405898909399731E-005 F
     orb,it,eci,eold,eci-eold=                    1                    2 -0.98117221669369448      -0.98115101065465327       -2.1206039041210545E-005 F
     orb,it,eci,eold,eci-eold=                    1                    3 -0.98123863947964085      -0.98117221669369448       -6.6422785946373963E-005 F
     orb,it,eci,eold,eci-eold=                    1                    4 -0.98125523061046160      -0.98123863947964085       -1.6591130820753364E-005 F
     orb,it,eci,eold,eci-eold=                    1                    5 -0.98128455027162531      -0.98125523061046160       -2.9319661163706989E-005 F
     orb,it,eci,eold,eci-eold=                    1                    6 -0.98130696654532668      -0.98128455027162531       -2.2416273701364453E-005 F
     orb,it,eci,eold,eci-eold=                    1                    7 -0.98131797012582100      -0.98130696654532668       -1.1003580494328702E-005 F
     orb,it,eci,eold,eci-eold=                    1                    8 -0.98133134943561950      -0.98131797012582100       -1.3379309798500216E-005 F
     orb,it,eci,eold,eci-eold=                    1                    9 -0.98133975763418679      -0.98133134943561950       -8.4081985672890269E-006 F
     orb,it,eci,eold,eci-eold=                    1                   10 -0.98134582533632564      -0.98133975763418679       -6.0677021388455543E-006 F
     orb,it,eci,eold,eci-eold=                    1                   11 -0.98134869534007274      -0.98134582533632564       -2.8700037471018902E-006 F
     orb,it,eci,eold,eci-eold=                    1                   12 -0.98135415407492499      -0.98134869534007274       -5.4587348522483481E-006 F
     orb,it,eci,eold,eci-eold=                    1                   13 -0.98135712501838523      -0.98135415407492499       -2.9709434602454010E-006 F
     orb,it,eci,eold,eci-eold=                    1                   14 -0.98135904576195276      -0.98135712501838523       -1.9207435675294704E-006 F
     orb,it,eci,eold,eci-eold=                    1                   15 -0.98135999817347275      -0.98135904576195276       -9.5241151998326501E-007 F
     orb,it,eci,eold,eci-eold=                    1                   16 -0.98136185040980040      -0.98135999817347275       -1.8522363276485265E-006 F
     orb,it,eci,eold,eci-eold=                    1                   17 -0.98136201309423698      -0.98136185040980040       -1.6268443658873366E-007 F
     orb,it,eci,eold,eci-eold=                    1                   18 -0.98136261759444499      -0.98136201309423698       -6.0450020800129067E-007 F
     orb,it,eci,eold,eci-eold=                    1                   19 -0.98136404011517708      -0.98136261759444499       -1.4225207320972544E-006 F
     orb,it,eci,eold,eci-eold=                    1                   20 -0.98136480672397919      -0.98136404011517708       -7.6660880210521753E-007 F
     orb,it,eci,eold,eci-eold=                    1                   21 -0.98136516366328008      -0.98136480672397919       -3.5693930089397696E-007 F
     orb,it,eci,eold,eci-eold=                    1                   22 -0.98136527860017964      -0.98136516366328008       -1.1493689955344166E-007 F
     orb,it,eci,eold,eci-eold=                    1                   23 -0.98136586872596487      -0.98136527860017964       -5.9012578523809367E-007 F
     orb,it,eci,eold,eci-eold=                    1                   24 -0.98136588934589830      -0.98136586872596487       -2.0619933427390436E-008 F
     orb,it,eci,eold,eci-eold=                    1                   25 -0.98136592615979756      -0.98136588934589830       -3.6813899262355676E-008 F
     orb,it,eci,eold,eci-eold=                    1                   26 -0.98136633132983953      -0.98136592615979756       -4.0517004196161110E-007 F
     orb,it,eci,eold,eci-eold=                    1                   27 -0.98136651765468752      -0.98136633132983953       -1.8632484799496751E-007 F
     orb,it,eci,eold,eci-eold=                    1                   28 -0.98136663903934307      -0.98136651765468752       -1.2138465554922817E-007 F
     orb,it,eci,eold,eci-eold=                    1                   29 -0.98136668975216668      -0.98136663903934307       -5.0712823607135249E-008 F
     orb,it,eci,eold,eci-eold=                    1                   30 -0.98136679609558553      -0.98136668975216668       -1.0634341884863119E-007 F
     orb,it,eci,eold,eci-eold=                    1                   31 -0.98136680264984033      -0.98136679609558553       -6.5542548055574912E-009 F
     orb,it,eci,eold,eci-eold=                    1                   32 -0.98136682598693148      -0.98136680264984033       -2.3337091148434297E-008 F
     orb,it,eci,eold,eci-eold=                    1                   33 -0.98136691468704296      -0.98136682598693148       -8.8700111477990617E-008 F
     orb,it,eci,eold,eci-eold=                    1                   34 -0.98136696747291263      -0.98136691468704296       -5.2785869675275876E-008 F
     orb,it,eci,eold,eci-eold=                    1                   35 -0.98136699870696553      -0.98136696747291263       -3.1234052899620224E-008 F
     orb,it,eci,eold,eci-eold=                    1                   36 -0.98136700896379869      -0.98136699870696553       -1.0256833160582346E-008 F
     orb,it,eci,eold,eci-eold=                    1                   37 -0.98136703825113414      -0.98136700896379869       -2.9287335445715712E-008 F
     orb,it,eci,eold,eci-eold=                    1                   38 -0.98136704482548331      -0.98136703825113414       -6.5743491761693917E-009 F
     orb,it,eci,eold,eci-eold=                    1                   39 -0.98136705136325975      -0.98136704482548331       -6.5377764313367948E-009 F
     orb,it,eci,eold,eci-eold=                    1                   40 -0.98136707518518740      -0.98136705136325975       -2.3821927652711850E-008 F
     orb,it,eci,eold,eci-eold=                    1                   41 -0.98136707518518740      -0.98136707518518740        0.0000000000000000      F
     orbital   1 current e= -0.113182E+00 error=0.530E-03 (eci= -0.981367075E+00 error=0.000E+00) iterations  41(   0 preconditioned, Ep,Sp= 20.0  200.0)
     orb,it,eci,eold,eci-eold=                    2                    1 -0.83634863960616979      -0.83403998855072581       -2.3086510554439776E-003 F
     orb,it,eci,eold,eci-eold=                    2                    2 -0.83656004652201699      -0.83634863960616979       -2.1140691584720095E-004 F
     orb,it,eci,eold,eci-eold=                    2                    3 -0.83666922909438712      -0.83656004652201699       -1.0918257237013673E-004 F
     orb,it,eci,eold,eci-eold=                    2                    4 -0.83675518620220712      -0.83666922909438712       -8.5957107820000545E-005 F
     orb,it,eci,eold,eci-eold=                    2                    5 -0.83688289954602646      -0.83675518620220712       -1.2771334381933563E-004 F
     orb,it,eci,eold,eci-eold=                    2                    6 -0.83706826612792362      -0.83688289954602646       -1.8536658189716171E-004 F
     orb,it,eci,eold,eci-eold=                    2                    7 -0.83721816915119573      -0.83706826612792362       -1.4990302327211324E-004 F
     orb,it,eci,eold,eci-eold=                    2                    8 -0.83724440191373994      -0.83721816915119573       -2.6232762544209365E-005 F
     orb,it,eci,eold,eci-eold=                    2                    9 -0.83728303144364535      -0.83724440191373994       -3.8629529905409576E-005 F
     orb,it,eci,eold,eci-eold=                    2                   10 -0.83739063501942923      -0.83728303144364535       -1.0760357578387669E-004 F
     orb,it,eci,eold,eci-eold=                    2                   11 -0.83744855395187023      -0.83739063501942923       -5.7918932441003435E-005 F
     orb,it,eci,eold,eci-eold=                    2                   12 -0.83747835305396956      -0.83744855395187023       -2.9799102099326014E-005 F
     orb,it,eci,eold,eci-eold=                    2                   13 -0.83756960929011559      -0.83747835305396956       -9.1256236146031178E-005 F
     orb,it,eci,eold,eci-eold=                    2                   14 -0.83781097596614607      -0.83756960929011559       -2.4136667603047446E-004 F
     orb,it,eci,eold,eci-eold=                    2                   15 -0.83785064682794563      -0.83781097596614607       -3.9670861799567803E-005 F
     orb,it,eci,eold,eci-eold=                    2                   16 -0.83791099378493739      -0.83785064682794563       -6.0346956991752521E-005 F
     orb,it,eci,eold,eci-eold=                    2                   17 -0.83796689817815984      -0.83791099378493739       -5.5904393222450111E-005 F
     orb,it,eci,eold,eci-eold=                    2                   18 -0.83797630803463963      -0.83796689817815984       -9.4098564797917561E-006 F
     orb,it,eci,eold,eci-eold=                    2                   19 -0.83799119707189362      -0.83797630803463963       -1.4889037253995596E-005 F
     orb,it,eci,eold,eci-eold=                    2                   20 -0.83802352604307806      -0.83799119707189362       -3.2328971184436561E-005 F
     orb,it,eci,eold,eci-eold=                    2                   21 -0.83803670909065642      -0.83802352604307806       -1.3183047578357865E-005 F
     orb,it,eci,eold,eci-eold=                    2                   22 -0.83808707519876235      -0.83803670909065642       -5.0366108105937002E-005 F
     orb,it,eci,eold,eci-eold=                    2                   23 -0.83808749091690293      -0.83808707519876235       -4.1571814057839163E-007 F
     orb,it,eci,eold,eci-eold=                    2                   24 -0.83812238835274966      -0.83808749091690293       -3.4897435846725777E-005 F
     orb,it,eci,eold,eci-eold=                    2                   25 -0.83822886375456263      -0.83812238835274966       -1.0647540181296655E-004 F
     orb,it,eci,eold,eci-eold=                    2                   26 -0.83825345481547964      -0.83822886375456263       -2.4591060917011909E-005 F
     orb,it,eci,eold,eci-eold=                    2                   27 -0.83826912145983901      -0.83825345481547964       -1.5666644359368931E-005 F
     orb,it,eci,eold,eci-eold=                    2                   28 -0.83827687129492168      -0.83826912145983901       -7.7498350826710194E-006 F
     orb,it,eci,eold,eci-eold=                    2                   29 -0.83827702994025466      -0.83827687129492168       -1.5864533298159955E-007 F
     orb,it,eci,eold,eci-eold=                    2                   30 -0.83827710497289332      -0.83827702994025466       -7.5032638657823725E-008 F
     orb,it,eci,eold,eci-eold=                    2                   31 -0.83828132249126186      -0.83827710497289332       -4.2175183685433382E-006 F
     orb,it,eci,eold,eci-eold=                    2                   32 -0.83828223148797665      -0.83828132249126186       -9.0899671478794630E-007 F
     orb,it,eci,eold,eci-eold=                    2                   33 -0.83828250455844611      -0.83828223148797665       -2.7307046945868052E-007 F
     orb,it,eci,eold,eci-eold=                    2                   34 -0.83828408491683537      -0.83828250455844611       -1.5803583892637363E-006 F
     orb,it,eci,eold,eci-eold=                    2                   35 -0.83828419803191601      -0.83828408491683537       -1.1311508063549525E-007 F
     orb,it,eci,eold,eci-eold=                    2                   36 -0.83828424250063138      -0.83828419803191601       -4.4468715376666523E-008 F
     orb,it,eci,eold,eci-eold=                    2                   37 -0.83828516428927258      -0.83828424250063138       -9.2178864119496495E-007 F
     orb,it,eci,eold,eci-eold=                    2                   38 -0.83828552857735983      -0.83828516428927258       -3.6428808725119666E-007 F
     orb,it,eci,eold,eci-eold=                    2                   39 -0.83828578296743128      -0.83828552857735983       -2.5439007145244830E-007 F
     orb,it,eci,eold,eci-eold=                    2                   40 -0.83828590242679579      -0.83828578296743128       -1.1945936451152050E-007 F
     orb,it,eci,eold,eci-eold=                    2                   41 -0.83828609838653778      -0.83828590242679579       -1.9595974198871602E-007 F
     orb,it,eci,eold,eci-eold=                    2                   42 -0.83828640109976860      -0.83828609838653778       -3.0271323081532131E-007 F
     orb,it,eci,eold,eci-eold=                    2                   43 -0.83828651912026353      -0.83828640109976860       -1.1802049493248035E-007 F
     orb,it,eci,eold,eci-eold=                    2                   44 -0.83828661131997961      -0.83828651912026353       -9.2199716084095940E-008 F
     orb,it,eci,eold,eci-eold=                    2                   45 -0.83828680660816801      -0.83828661131997961       -1.9528818839820161E-007 F
     orb,it,eci,eold,eci-eold=                    2                   46 -0.83828707914778677      -0.83828680660816801       -2.7253961876194666E-007 F
     orb,it,eci,eold,eci-eold=                    2                   47 -0.83828722647844889      -0.83828707914778677       -1.4733066211469747E-007 F
     orb,it,eci,eold,eci-eold=                    2                   48 -0.83828756447401942      -0.83828722647844889       -3.3799557053182383E-007 F
     orb,it,eci,eold,eci-eold=                    2                   49 -0.83828775390637023      -0.83828756447401942       -1.8943235080559617E-007 F
     orb,it,eci,eold,eci-eold=                    2                   50 -0.83828783119626260      -0.83828775390637023       -7.7289892375098646E-008 F
     orb,it,eci,eold,eci-eold=                    2                   51 -0.83828784566141201      -0.83828783119626260       -1.4465149411613254E-008 F
     orb,it,eci,eold,eci-eold=                    2                   52 -0.83828800448369623      -0.83828784566141201       -1.5882228421304490E-007 F
     orb,it,eci,eold,eci-eold=                    2                   53 -0.83828807629743318      -0.83828800448369623       -7.1813736957082597E-008 F
     orb,it,eci,eold,eci-eold=                    2                   54 -0.83828808409298894      -0.83828807629743318       -7.7955557564735045E-009 F
     orb,it,eci,eold,eci-eold=                    2                   55 -0.83828819109127428      -0.83828808409298894       -1.0699828534299627E-007 F
     orb,it,eci,eold,eci-eold=                    2                   56 -0.83828823276124642      -0.83828819109127428       -4.1669972139501965E-008 F
     orb,it,eci,eold,eci-eold=                    2                   57 -0.83828829898050927      -0.83828823276124642       -6.6219262850886196E-008 F
     orb,it,eci,eold,eci-eold=                    2                   58 -0.83828841158009593      -0.83828829898050927       -1.1259958665466030E-007 F
     orb,it,eci,eold,eci-eold=                    2                   59 -0.83828848248441912      -0.83828841158009593       -7.0904323190568164E-008 F
     orb,it,eci,eold,eci-eold=                    2                   60 -0.83828862294171347      -0.83828848248441912       -1.4045729435085974E-007 F
     orb,it,eci,eold,eci-eold=                    2                   61 -0.83828869283440044      -0.83828862294171347       -6.9892686971328999E-008 F
     orb,it,eci,eold,eci-eold=                    2                   62 -0.83828871411215411      -0.83828869283440044       -2.1277753670112531E-008 F
     orb,it,eci,eold,eci-eold=                    2                   63 -0.83828871838016217      -0.83828871411215411       -4.2680080580836943E-009 F
     orb,it,eci,eold,eci-eold=                    2                   64 -0.83828877289299675      -0.83828871838016217       -5.4512834579689695E-008 F
     orb,it,eci,eold,eci-eold=                    2                   65 -0.83828880602891886      -0.83828877289299675       -3.3135922117288885E-008 F
     orb,it,eci,eold,eci-eold=                    2                   66 -0.83828883895231543      -0.83828880602891886       -3.2923396564576990E-008 F
     orb,it,eci,eold,eci-eold=                    2                   67 -0.83828886005401315      -0.83828883895231543       -2.1101697722514245E-008 F
     orb,it,eci,eold,eci-eold=                    2                   68 -0.83828890834288350      -0.83828886005401315       -4.8288870346802071E-008 F
     orb,it,eci,eold,eci-eold=                    2                   69 -0.83828893094042134      -0.83828890834288350       -2.2597537840951532E-008 F
     orb,it,eci,eold,eci-eold=                    2                   70 -0.83828893937370852      -0.83828893094042134       -8.4332871796988229E-009 F
     orb,it,eci,eold,eci-eold=                    2                   71 -0.83828894284125099      -0.83828893937370852       -3.4675424753771722E-009 F
     orb,it,eci,eold,eci-eold=                    2                   72 -0.83828896240545081      -0.83828894284125099       -1.9564199815746974E-008 F
     orb,it,eci,eold,eci-eold=                    2                   73 -0.83828896530161756      -0.83828896240545081       -2.8961667508653477E-009 F
     orb,it,eci,eold,eci-eold=                    2                   74 -0.83828896636504524      -0.83828896530161756       -1.0634276792487185E-009 F
     orb,it,eci,eold,eci-eold=                    2                   75 -0.83828898250891726      -0.83828896636504524       -1.6143872016982641E-008 F
     orb,it,eci,eold,eci-eold=                    2                   76 -0.83828898480408542      -0.83828898250891726       -2.2951681666327772E-009 F
     orb,it,eci,eold,eci-eold=                    2                   77 -0.83828898480408542      -0.83828898480408542        0.0000000000000000      F
     orbital   2 current e=  0.401861E+00 error=0.180E+00 (eci= -0.838288985E+00 error=0.000E+00) iterations  77(   0 preconditioned, Ep,Sp= 20.0  200.0)
     orb,it,eci,eold,eci-eold=                    2                    1 -0.83828901315414073      -0.83828898430582188       -2.8848318844865162E-008 F
     orb,it,eci,eold,eci-eold=                    2                    2 -0.83828901711580162      -0.83828901315414073       -3.9616608882298010E-009 F
     orb,it,eci,eold,eci-eold=                    2                    3 -0.83828901731560901      -0.83828901711580162       -1.9980739285330174E-010 F
     orbital   2 current e=  0.401822E+00 error=0.388E-04 (eci= -0.838289017E+00 error=0.200E-09) iterations   3(   0 preconditioned, Ep,Sp= 20.0  200.0)
     orb,it,eci,eold,eci-eold=                    2                    1 -0.83828901930325928      -0.83828901731560901       -1.9876502665994167E-009 F
     orb,it,eci,eold,eci-eold=                    2                    2 -0.83828901972235326      -0.83828901930325928       -4.1909398174055923E-010 F
     orbital   2 current e=  0.401807E+00 error=0.146E-04 (eci= -0.838289020E+00 error=0.419E-09) iterations   2(   0 preconditioned, Ep,Sp= 20.0  200.0)
     orb,it,eci,eold,eci-eold=                    3                    1 -0.83546722641030080      -0.83404804547327838       -1.4191809370224240E-003 F
     orb,it,eci,eold,eci-eold=                    3                    2 -0.83605629163246764      -0.83546722641030080       -5.8906522216684021E-004 F
     orb,it,eci,eold,eci-eold=                    3                    3 -0.83611410943497355      -0.83605629163246764       -5.7817802505910620E-005 F
     orb,it,eci,eold,eci-eold=                    3                    4 -0.83611747122877689      -0.83611410943497355       -3.3617938033358996E-006 F
     orb,it,eci,eold,eci-eold=                    3                    5 -0.83611885141606856      -0.83611747122877689       -1.3801872916774371E-006 F
     orb,it,eci,eold,eci-eold=                    3                    6 -0.83619309246029327      -0.83611885141606856       -7.4241044224709896E-005 F
     orb,it,eci,eold,eci-eold=                    3                    7 -0.83625123342366525      -0.83619309246029327       -5.8140963371977605E-005 F
     orb,it,eci,eold,eci-eold=                    3                    8 -0.83632450854476037      -0.83625123342366525       -7.3275121095117690E-005 F
     orb,it,eci,eold,eci-eold=                    3                    9 -0.83635192903628885      -0.83632450854476037       -2.7420491528484803E-005 F
     orb,it,eci,eold,eci-eold=                    3                   10 -0.83636081522905970      -0.83635192903628885       -8.8861927708405730E-006 F
     orb,it,eci,eold,eci-eold=                    3                   11 -0.83639268226294194      -0.83636081522905970       -3.1867033882249096E-005 F
     orb,it,eci,eold,eci-eold=                    3                   12 -0.83639301881611583      -0.83639268226294194       -3.3655317388525674E-007 F
     orb,it,eci,eold,eci-eold=                    3                   13 -0.83640474442369728      -0.83639301881611583       -1.1725607581447584E-005 F
     orb,it,eci,eold,eci-eold=                    3                   14 -0.83642987203824148      -0.83640474442369728       -2.5127614544206978E-005 F
     orb,it,eci,eold,eci-eold=                    3                   15 -0.83644441072015552      -0.83642987203824148       -1.4538681914033624E-005 F
     orb,it,eci,eold,eci-eold=                    3                   16 -0.83645590359111877      -0.83644441072015552       -1.1492870963247803E-005 F
     orb,it,eci,eold,eci-eold=                    3                   17 -0.83646043475067744      -0.83645590359111877       -4.5311595586738918E-006 F
     orb,it,eci,eold,eci-eold=                    3                   18 -0.83646741687835746      -0.83646043475067744       -6.9821276800219323E-006 F
     orb,it,eci,eold,eci-eold=                    3                   19 -0.83647198273221257      -0.83646741687835746       -4.5658538551096584E-006 F
     orb,it,eci,eold,eci-eold=                    3                   20 -0.83647596107225730      -0.83647198273221257       -3.9783400447301887E-006 F
     orb,it,eci,eold,eci-eold=                    3                   21 -0.83647776219285341      -0.83647596107225730       -1.8011205961121490E-006 F
     orb,it,eci,eold,eci-eold=                    3                   22 -0.83648056672975057      -0.83647776219285341       -2.8045368971607587E-006 F
     orb,it,eci,eold,eci-eold=                    3                   23 -0.83648215543800342      -0.83648056672975057       -1.5887082528420748E-006 F
     orb,it,eci,eold,eci-eold=                    3                   24 -0.83648338136964950      -0.83648215543800342       -1.2259316460871972E-006 F
     orb,it,eci,eold,eci-eold=                    3                   25 -0.83648395590265157      -0.83648338136964950       -5.7453300206233848E-007 F
     orb,it,eci,eold,eci-eold=                    3                   26 -0.83648495680923762      -0.83648395590265157       -1.0009065860572264E-006 F
     orb,it,eci,eold,eci-eold=                    3                   27 -0.83648552822465272      -0.83648495680923762       -5.7141541509597715E-007 F
     orb,it,eci,eold,eci-eold=                    3                   28 -0.83648598583109846      -0.83648552822465272       -4.5760644573622500E-007 F
     orb,it,eci,eold,eci-eold=                    3                   29 -0.83648619712099337      -0.83648598583109846       -2.1128989491359107E-007 F
     orb,it,eci,eold,eci-eold=                    3                   30 -0.83648656042772929      -0.83648619712099337       -3.6330673591766782E-007 F
     orb,it,eci,eold,eci-eold=                    3                   31 -0.83648677569493290      -0.83648656042772929       -2.1526720361819685E-007 F
     orb,it,eci,eold,eci-eold=                    3                   32 -0.83648695681337792      -0.83648677569493290       -1.8111844501955687E-007 F
     orb,it,eci,eold,eci-eold=                    3                   33 -0.83648703988035300      -0.83648695681337792       -8.3066975076206973E-008 F
     orb,it,eci,eold,eci-eold=                    3                   34 -0.83648718774710862      -0.83648703988035300       -1.4786675561762053E-007 F
     orb,it,eci,eold,eci-eold=                    3                   35 -0.83648727339981055      -0.83648718774710862       -8.5652701931060449E-008 F
     orb,it,eci,eold,eci-eold=                    3                   36 -0.83648734399419067      -0.83648727339981055       -7.0594380119359812E-008 F
     orb,it,eci,eold,eci-eold=                    3                   37 -0.83648737754435765      -0.83648734399419067       -3.3550166977924789E-008 F
     orb,it,eci,eold,eci-eold=                    3                   38 -0.83648743979039741      -0.83648737754435765       -6.2246039767011041E-008 F
     orb,it,eci,eold,eci-eold=                    3                   39 -0.83648743979039741      -0.83648743979039741        0.0000000000000000      F
     orbital   3 current e=  0.447365E+00 error=0.451E-01 (eci= -0.836487440E+00 error=0.000E+00) iterations  39(   0 preconditioned, Ep,Sp= 20.0  200.0)
     orb,it,eci,eold,eci-eold=                    3                    1 -0.83648750542719641      -0.83648743978305351       -6.5644142899223823E-008 F
     orb,it,eci,eold,eci-eold=                    3                    2 -0.83648754060196118      -0.83648750542719641       -3.5174764767553768E-008 F
     orb,it,eci,eold,eci-eold=                    3                    3 -0.83648755537048869      -0.83648754060196118       -1.4768527512032392E-008 F
     orb,it,eci,eold,eci-eold=                    3                    4 -0.83648756518847522      -0.83648755537048869       -9.8179865348768658E-009 F
     orb,it,eci,eold,eci-eold=                    3                    5 -0.83648759052001387      -0.83648756518847522       -2.5331538644479679E-008 F
     orb,it,eci,eold,eci-eold=                    3                    6 -0.83648759534144457      -0.83648759052001387       -4.8214306991312128E-009 F
     orb,it,eci,eold,eci-eold=                    3                    7 -0.83648760004198552      -0.83648759534144457       -4.7005409564704337E-009 F
     orb,it,eci,eold,eci-eold=                    3                    8 -0.83648762058877946      -0.83648760004198552       -2.0546793932929575E-008 F
     orb,it,eci,eold,eci-eold=                    3                    9 -0.83648762279596700      -0.83648762058877946       -2.2071875438456345E-009 F
     orb,it,eci,eold,eci-eold=                    3                   10 -0.83648763065695297      -0.83648762279596700       -7.8609859732736709E-009 F
     orb,it,eci,eold,eci-eold=                    3                   11 -0.83648764892624294      -0.83648763065695297       -1.8269289969730096E-008 F
     orb,it,eci,eold,eci-eold=                    3                   12 -0.83648765680237647      -0.83648764892624294       -7.8761335231547491E-009 F
     orb,it,eci,eold,eci-eold=                    3                   13 -0.83648765680237647      -0.83648765680237647        0.0000000000000000      F
     orbital   3 current e=  0.447050E+00 error=0.315E-03 (eci= -0.836487657E+00 error=0.000E+00) iterations  13(   0 preconditioned, Ep,Sp= 20.0  200.0)
     orb,it,eci,eold,eci-eold=                    3                    1 -0.83648766946378172      -0.83648765659955560       -1.2864226128783685E-008 F
     orb,it,eci,eold,eci-eold=                    3                    2 -0.83648767123116285      -0.83648766946378172       -1.7673811303353659E-009 F
     orb,it,eci,eold,eci-eold=                    3                    3 -0.83648767123116285      -0.83648767123116285        0.0000000000000000      F
     orbital   3 current e=  0.447118E+00 error=0.680E-04 (eci= -0.836487671E+00 error=0.000E+00) iterations   3(   0 preconditioned, Ep,Sp= 20.0  200.0)
     orb,it,eci,eold,eci-eold=                    4                    1 -0.83411275482377245      -0.83403493298715037       -7.7821836622082863E-005 F
     orb,it,eci,eold,eci-eold=                    4                    2 -0.83422983964083308      -0.83411275482377245       -1.1708481706063090E-004 F
     orb,it,eci,eold,eci-eold=                    4                    3 -0.83538012441012444      -0.83422983964083308       -1.1502847692913543E-003 F
     orb,it,eci,eold,eci-eold=                    4                    4 -0.83541724370594539      -0.83538012441012444       -3.7119295820953191E-005 F
     orb,it,eci,eold,eci-eold=                    4                    5 -0.83546682243644677      -0.83541724370594539       -4.9578730501376178E-005 F
     orb,it,eci,eold,eci-eold=                    4                    6 -0.83547985840420247      -0.83546682243644677       -1.3035967755703481E-005 F
     orb,it,eci,eold,eci-eold=                    4                    7 -0.83547985997489083      -0.83547985840420247       -1.5706883571553476E-009 F
     orb,it,eci,eold,eci-eold=                    4                    8 -0.83551546471356286      -0.83547985997489083       -3.5604738672034841E-005 F
     orb,it,eci,eold,eci-eold=                    4                    9 -0.83552620502799613      -0.83551546471356286       -1.0740314433266285E-005 F
     orb,it,eci,eold,eci-eold=                    4                   10 -0.83552715823969137      -0.83552620502799613       -9.5321169524265059E-007 F
     orb,it,eci,eold,eci-eold=                    4                   11 -0.83555958108689077      -0.83552715823969137       -3.2422847199398142E-005 F
     orb,it,eci,eold,eci-eold=                    4                   12 -0.83555999868747011      -0.83555958108689077       -4.1760057933881711E-007 F
     orb,it,eci,eold,eci-eold=                    4                   13 -0.83556237816623136      -0.83555999868747011       -2.3794787612496648E-006 F
     orb,it,eci,eold,eci-eold=                    4                   14 -0.83558863131247862      -0.83556237816623136       -2.6253146247268155E-005 F
     orb,it,eci,eold,eci-eold=                    4                   15 -0.83560277035832808      -0.83558863131247862       -1.4139045849459464E-005 F
     orb,it,eci,eold,eci-eold=                    4                   16 -0.83561401004905067      -0.83560277035832808       -1.1239690722586460E-005 F
     orb,it,eci,eold,eci-eold=                    4                   17 -0.83561656492579173      -0.83561401004905067       -2.5548767410565887E-006 F
     orb,it,eci,eold,eci-eold=                    4                   18 -0.83562417678424628      -0.83561656492579173       -7.6118584545481482E-006 F
     orb,it,eci,eold,eci-eold=                    4                   19 -0.83562815101381471      -0.83562417678424628       -3.9742295684375151E-006 F
     orb,it,eci,eold,eci-eold=                    4                   20 -0.83563110530441409      -0.83562815101381471       -2.9542905993773516E-006 F
     orb,it,eci,eold,eci-eold=                    4                   21 -0.83564182924183683      -0.83563110530441409       -1.0723937422740804E-005 F
     orb,it,eci,eold,eci-eold=                    4                   22 -0.83564935798549711      -0.83564182924183683       -7.5287436602788915E-006 F
     orb,it,eci,eold,eci-eold=                    4                   23 -0.83565241678942204      -0.83564935798549711       -3.0588039249268562E-006 F
     orb,it,eci,eold,eci-eold=                    4                   24 -0.83566162790328768      -0.83565241678942204       -9.2111138656481018E-006 F
     orb,it,eci,eold,eci-eold=                    4                   25 -0.83566703251027441      -0.83566162790328768       -5.4046069867252911E-006 F
     orb,it,eci,eold,eci-eold=                    4                   26 -0.83566938124835399      -0.83566703251027441       -2.3487380795828017E-006 F
     orb,it,eci,eold,eci-eold=                    4                   27 -0.83567708794423934      -0.83566938124835399       -7.7066958853455603E-006 F
     orb,it,eci,eold,eci-eold=                    4                   28 -0.83568120148698821      -0.83567708794423934       -4.1135427488736553E-006 F
     orb,it,eci,eold,eci-eold=                    4                   29 -0.83568287461687452      -0.83568120148698821       -1.6731298863037480E-006 F
     orb,it,eci,eold,eci-eold=                    4                   30 -0.83568896922476310      -0.83568287461687452       -6.0946078885848465E-006 F
     orb,it,eci,eold,eci-eold=                    4                   31 -0.83569256276898973      -0.83568896922476310       -3.5935442266321616E-006 F
     orb,it,eci,eold,eci-eold=                    4                   32 -0.83569431761166424      -0.83569256276898973       -1.7548426745062073E-006 F
     orb,it,eci,eold,eci-eold=                    4                   33 -0.83570013095879014      -0.83569431761166424       -5.8133471259047553E-006 F
     orb,it,eci,eold,eci-eold=                    4                   34 -0.83570378020957525      -0.83570013095879014       -3.6492507851093592E-006 F
     orb,it,eci,eold,eci-eold=                    4                   35 -0.83570573678271864      -0.83570378020957525       -1.9565731433912603E-006 F
     orb,it,eci,eold,eci-eold=                    4                   36 -0.83571217723652924      -0.83570573678271864       -6.4404538105966580E-006 F
     orb,it,eci,eold,eci-eold=                    4                   37 -0.83571697002795453      -0.83571217723652924       -4.7927914252898773E-006 F
     orb,it,eci,eold,eci-eold=                    4                   38 -0.83571955302658951      -0.83571697002795453       -2.5829986349812373E-006 F
     orb,it,eci,eold,eci-eold=                    4                   39 -0.83572693002241116      -0.83571955302658951       -7.3769958216507447E-006 F
     orb,it,eci,eold,eci-eold=                    4                   40 -0.83573142944674794      -0.83572693002241116       -4.4994243367790787E-006 F
     orb,it,eci,eold,eci-eold=                    4                   41 -0.83573353971608844      -0.83573142944674794       -2.1102693404939643E-006 F
     orb,it,eci,eold,eci-eold=                    4                   42 -0.83574027367936776      -0.83573353971608844       -6.7339632793261828E-006 F
     orb,it,eci,eold,eci-eold=                    4                   43 -0.83574456789288609      -0.83574027367936776       -4.2942135183299257E-006 F
     orb,it,eci,eold,eci-eold=                    4                   44 -0.83574670400917872      -0.83574456789288609       -2.1361162926281096E-006 F
     orb,it,eci,eold,eci-eold=                    4                   45 -0.83575312170789007      -0.83574670400917872       -6.4176987113473416E-006 F
     orb,it,eci,eold,eci-eold=                    4                   46 -0.83575669300599320      -0.83575312170789007       -3.5712981031332802E-006 F
     orb,it,eci,eold,eci-eold=                    4                   47 -0.83575854421021634      -0.83575669300599320       -1.8512042231355608E-006 F
     orb,it,eci,eold,eci-eold=                    4                   48 -0.83576495842327236      -0.83575854421021634       -6.4142130560274069E-006 F
     orb,it,eci,eold,eci-eold=                    4                   49 -0.83576967910775879      -0.83576495842327236       -4.7206844864255970E-006 F
     orb,it,eci,eold,eci-eold=                    4                   50 -0.83577241176908246      -0.83576967910775879       -2.7326613236677844E-006 F
     orb,it,eci,eold,eci-eold=                    4                   51 -0.83578025429844627      -0.83577241176908246       -7.8425293638106908E-006 F
     orb,it,eci,eold,eci-eold=                    4                   52 -0.83578507091774012      -0.83578025429844627       -4.8166192938570163E-006 F
     orb,it,eci,eold,eci-eold=                    4                   53 -0.83578757648519897      -0.83578507091774012       -2.5055674588436716E-006 F
     orb,it,eci,eold,eci-eold=                    4                   54 -0.83579561024707794      -0.83578757648519897       -8.0337618789672050E-006 F
     orb,it,eci,eold,eci-eold=                    4                   55 -0.83580107499961187      -0.83579561024707794       -5.4647525339346359E-006 F
     orb,it,eci,eold,eci-eold=                    4                   56 -0.83580401241790259      -0.83580107499961187       -2.9374182907160318E-006 F
     orb,it,eci,eold,eci-eold=                    4                   57 -0.83581249321248952      -0.83580401241790259       -8.4807945869291856E-006 F
     orb,it,eci,eold,eci-eold=                    4                   58 -0.83581706668040667      -0.83581249321248952       -4.5734679171571813E-006 F
     orb,it,eci,eold,eci-eold=                    4                   59 -0.83581943467194864      -0.83581706668040667       -2.3679915419627662E-006 F
     orb,it,eci,eold,eci-eold=                    4                   60 -0.83582763353630229      -0.83581943467194864       -8.1988643536590189E-006 F
     orb,it,eci,eold,eci-eold=                    4                   61 -0.83583311528837656      -0.83582763353630229       -5.4817520742656001E-006 F
     orb,it,eci,eold,eci-eold=                    4                   62 -0.83583627298721452      -0.83583311528837656       -3.1576988379633519E-006 F
     orb,it,eci,eold,eci-eold=                    4                   63 -0.83584571177246769      -0.83583627298721452       -9.4387852531685468E-006 F
     orb,it,eci,eold,eci-eold=                    4                   64 -0.83585125226123036      -0.83584571177246769       -5.5404887626675503E-006 F
     orb,it,eci,eold,eci-eold=                    4                   65 -0.83585441800546145      -0.83585125226123036       -3.1657442310928374E-006 F
     orb,it,eci,eold,eci-eold=                    4                   66 -0.83586480187077494      -0.83585441800546145       -1.0383865313490226E-005 F
     orb,it,eci,eold,eci-eold=                    4                   67 -0.83587131789912106      -0.83586480187077494       -6.5160283461151991E-006 F
     orb,it,eci,eold,eci-eold=                    4                   68 -0.83587490629895633      -0.83587131789912106       -3.5883998352748137E-006 F
     orb,it,eci,eold,eci-eold=                    4                   69 -0.83588585832078177      -0.83587490629895633       -1.0952021825438862E-005 F
     orb,it,eci,eold,eci-eold=                    4                   70 -0.83589155730989961      -0.83588585832078177       -5.6989891178416130E-006 F
     orb,it,eci,eold,eci-eold=                    4                   71 -0.83589487956907538      -0.83589155730989961       -3.3222591757642306E-006 F
     orb,it,eci,eold,eci-eold=                    4                   72 -0.83590669139679485      -0.83589487956907538       -1.1811827719476753E-005 F
     orb,it,eci,eold,eci-eold=                    4                   73 -0.83591412119167063      -0.83590669139679485       -7.4297948757795496E-006 F
     orb,it,eci,eold,eci-eold=                    4                   74 -0.83591872873046602      -0.83591412119167063       -4.6075387953870006E-006 F
     orb,it,eci,eold,eci-eold=                    4                   75 -0.83593314086939152      -0.83591872873046602       -1.4412138925501417E-005 F
     orb,it,eci,eold,eci-eold=                    4                   76 -0.83593998061620012      -0.83593314086939152       -6.8397468085956703E-006 F
     orb,it,eci,eold,eci-eold=                    4                   77 -0.83594401554957920      -0.83593998061620012       -4.0349333790823394E-006 F
     orb,it,eci,eold,eci-eold=                    4                   78 -0.83595955001459676      -0.83594401554957920       -1.5534465017563726E-005 F
     orb,it,eci,eold,eci-eold=                    4                   79 -0.83596790140242705      -0.83595955001459676       -8.3513878302854394E-006 F
     orb,it,eci,eold,eci-eold=                    4                   80 -0.83597322750929659      -0.83596790140242705       -5.3261068695409364E-006 F
     orb,it,eci,eold,eci-eold=                    4                   81 -0.83599112356769645      -0.83597322750929659       -1.7896058399857750E-005 F
     orb,it,eci,eold,eci-eold=                    4                   82 -0.83599782325413785      -0.83599112356769645       -6.6996864414026192E-006 F
     orb,it,eci,eold,eci-eold=                    4                   83 -0.83600301978020874      -0.83599782325413785       -5.1965260708941585E-006 F
     orb,it,eci,eold,eci-eold=                    4                   84 -0.83602227374123728      -0.83600301978020874       -1.9253961028531386E-005 F
     orb,it,eci,eold,eci-eold=                    4                   85 -0.83602815334746960      -0.83602227374123728       -5.8796062323285270E-006 F
     orb,it,eci,eold,eci-eold=                    4                   86 -0.83603348417594459      -0.83602815334746960       -5.3308284749808976E-006 F
     orb,it,eci,eold,eci-eold=                    4                   87 -0.83605164277990507      -0.83603348417594459       -1.8158603960483077E-005 F
     orb,it,eci,eold,eci-eold=                    4                   88 -0.83605806099155544      -0.83605164277990507       -6.4182116503719300E-006 F
     orb,it,eci,eold,eci-eold=                    4                   89 -0.83606571074418723      -0.83605806099155544       -7.6497526317886866E-006 F
     orb,it,eci,eold,eci-eold=                    4                   90 -0.83608138361454365      -0.83606571074418723       -1.5672870356420177E-005 F
     orb,it,eci,eold,eci-eold=                    4                   91 -0.83608570759292700      -0.83608138361454365       -4.3239783833470824E-006 F
     orb,it,eci,eold,eci-eold=                    4                   92 -0.83609496120307059      -0.83608570759292700       -9.2536101435891638E-006 F
     orb,it,eci,eold,eci-eold=                    4                   93 -0.83610778484429105      -0.83609496120307059       -1.2823641220460757E-005 F
     orb,it,eci,eold,eci-eold=                    4                   94 -0.83610910728206667      -0.83610778484429105       -1.3224377756193562E-006 F
     orb,it,eci,eold,eci-eold=                    4                   95 -0.83611003475964718      -0.83610910728206667       -9.2747758051459073E-007 F
     orb,it,eci,eold,eci-eold=                    4                   96 -0.83611065725581557      -0.83611003475964718       -6.2249616838983002E-007 F
     orb,it,eci,eold,eci-eold=                    4                   97 -0.83612084837450362      -0.83611065725581557       -1.0191118688052114E-005 F
     orb,it,eci,eold,eci-eold=                    4                   98 -0.83612736240713526      -0.83612084837450362       -6.5140326316326380E-006 F
     orb,it,eci,eold,eci-eold=                    4                   99 -0.83613164576033838      -0.83612736240713526       -4.2833532031272270E-006 F
     orb,it,eci,eold,eci-eold=                    4                  100 -0.83614103935084849      -0.83613164576033838       -9.3935905101094619E-006 F
     orb,it,eci,eold,eci-eold=                    4                  101 -0.83614217856972195      -0.83614103935084849       -1.1392188734582476E-006 F
     orb,it,eci,eold,eci-eold=                    4                  102 -0.83614293776957371      -0.83614217856972195       -7.5919985176309268E-007 F
     orb,it,eci,eold,eci-eold=                    4                  103 -0.83614899979287938      -0.83614293776957371       -6.0620233056640771E-006 F
     orb,it,eci,eold,eci-eold=                    4                  104 -0.83615148813243878      -0.83614899979287938       -2.4883395594033075E-006 F
     orb,it,eci,eold,eci-eold=                    4                  105 -0.83615245724998721      -0.83615148813243878       -9.6911754843276299E-007 F
     orb,it,eci,eold,eci-eold=                    4                  106 -0.83615715463181450      -0.83615245724998721       -4.6973818272899592E-006 F
     orb,it,eci,eold,eci-eold=                    4                  107 -0.83615790292423886      -0.83615715463181450       -7.4829242435736631E-007 F
     orb,it,eci,eold,eci-eold=                    4                  108 -0.83615866890602020      -0.83615790292423886       -7.6598178133657768E-007 F
     orb,it,eci,eold,eci-eold=                    4                  109 -0.83616158738547131      -0.83615866890602020       -2.9184794511083467E-006 F
     orb,it,eci,eold,eci-eold=                    4                  110 -0.83616338530249590      -0.83616158738547131       -1.7979170245929765E-006 F
     orb,it,eci,eold,eci-eold=                    4                  111 -0.83616444045326732      -0.83616338530249590       -1.0551507714229302E-006 F
     orb,it,eci,eold,eci-eold=                    4                  112 -0.83616492005259979      -0.83616444045326732       -4.7959933247021524E-007 F
     orb,it,eci,eold,eci-eold=                    4                  113 -0.83616614202501460      -0.83616492005259979       -1.2219724148110345E-006 F
     orb,it,eci,eold,eci-eold=                    4                  114 -0.83616618087883476      -0.83616614202501460       -3.8853820161222075E-008 F
     orb,it,eci,eold,eci-eold=                    4                  115 -0.83616629828745659      -0.83616618087883476       -1.1740862182474388E-007 F
     orb,it,eci,eold,eci-eold=                    4                  116 -0.83616700490664608      -0.83616629828745659       -7.0661918949443958E-007 F
     orb,it,eci,eold,eci-eold=                    4                  117 -0.83616712284852468      -0.83616700490664608       -1.1794187859681671E-007 F
     orb,it,eci,eold,eci-eold=                    4                  118 -0.83616720456918692      -0.83616712284852468       -8.1720662237216857E-008 F
     orb,it,eci,eold,eci-eold=                    4                  119 -0.83616766365798001      -0.83616720456918692       -4.5908879309219941E-007 F
     orb,it,eci,eold,eci-eold=                    4                  120 -0.83616780160509319      -0.83616766365798001       -1.3794711317682840E-007 F
     orb,it,eci,eold,eci-eold=                    4                  121 -0.83616787448321228      -0.83616780160509319       -7.2878119095065585E-008 F
[...]
    8    5    8    8       -0.0000000292
    8    5    9    8       -0.0000018958
    8    5   10    8       -0.0000000003
    8    5   11    8       -0.0000273458
    8    5    9    9       -0.0000030649
    8    5   10    9       -0.0000000033
    8    5   11    9       -0.0000465447
    8    5   10   10        0.0000220777
    8    5   11   10        0.0325790862
    8    5   11   11       -0.0000054817
    9    5    9    5        0.1116768039
    9    5   10    5        0.0000001717
    9    5   11    5        0.0000001792
    9    5    6    6       -0.0000017575
    9    5    7    6       -0.0000000963
    9    5    8    6       -0.0885630163
    9    5    9    6        0.0517767061
    9    5   10    6        0.0000000169
    9    5   11    6        0.0000000122
    9    5    7    7       -0.0001304060
    9    5    8    7        0.0000002567
    9    5    9    7        0.0000005390
    9    5   10    7       -0.0000585508
    9    5   11    7       -0.0392825475
    9    5    8    8       -0.0000002521
    9    5    9    8       -0.0000039957
    9    5   10    8       -0.0000000030
    9    5   11    8       -0.0000385390
    9    5    9    9       -0.0000051446
    9    5   10    9       -0.0000000053
    9    5   11    9       -0.0000988480
    9    5   10   10        0.0000429921
    9    5   11   10        0.0629912508
    9    5   11   11       -0.0000102836
   10    5   10    5        0.0163381780
   10    5   11    5       -0.0000019909
   10    5    6    6        0.0000000538
   10    5    7    6       -0.0000000000
   10    5    8    6       -0.0000001554
   10    5    9    6        0.0000000819
   10    5   10    6        0.0000000000
   10    5   11    6        0.0000000000
   10    5    7    7        0.0000000351
   10    5    8    7       -0.0000028757
   10    5    9    7       -0.0000056075
   10    5   10    7        0.0000000020
   10    5   11    7        0.0000022151
   10    5    8    8        0.0000000411
   10    5    9    8       -0.0000000005
   10    5   10    8        0.0000022277
   10    5   11    8        0.0036797458
   10    5    9    9        0.0000000403
   10    5   10    9        0.0000043275
   10    5   11    9        0.0071146436
   10    5   10   10        0.0000000514
   10    5   11   10        0.0000022423
   10    5   11   11        0.0000000749
   11    5   11    5        0.0087352601
   11    5    6    6       -0.0000283657
   11    5    7    6        0.0000000000
   11    5    8    6       -0.0000001705
   11    5    9    6        0.0000000886
   11    5   10    6        0.0000000000
   11    5   11    6        0.0000000073
   11    5    7    7       -0.0000627794
   11    5    8    7       -0.0009540079
   11    5    9    7       -0.0018435890
   11    5   10    7       -0.0000073666
   11    5   11    7       -0.0000001406
   11    5    8    8       -0.0000559881
   11    5    9    8       -0.0000044194
   11    5   10    8        0.0025013969
   11    5   11    8       -0.0000020707
   11    5    9    9       -0.0000633003
   11    5   10    9        0.0048360139
   11    5   11    9       -0.0000039771
   11    5   10   10       -0.0000550495
   11    5   11   10        0.0000001093
   11    5   11   11       -0.0000535264
    6    6    6    6        0.3139379871
    6    6    7    6        0.0000000040
    6    6    8    6        0.0000022172
    6    6    9    6       -0.0000010343
    6    6   10    6        0.0000000025
    6    6   11    6       -0.0000025493
    6    6    7    7        0.2857410560
    6    6    8    7        0.0000000190
    6    6    9    7        0.0000000095
    6    6   10    7       -0.0095532653
    6    6   11    7        0.0000013341
    6    6    8    8        0.3194873658
    6    6    9    8       -0.0103063183
    6    6   10    8       -0.0000000051
    6    6   11    8       -0.0000000036
    6    6    9    9        0.3052023965
    6    6   10    9       -0.0000000080
    6    6   11    9       -0.0000000053
    6    6   10   10        0.3215288933
    6    6   11   10        0.0000029173
    6    6   11   11        0.3147453177
    7    6    7    6        0.0107705543
    7    6    8    6        0.0000000671
    7    6    9    6       -0.0000000347
    7    6   10    6        0.0001080279
    7    6   11    6       -0.0000004247
    7    6    7    7       -0.0000000004
    7    6    8    7        0.0000128977
    7    6    9    7       -0.0000066692
    7    6   10    7       -0.0000000004
    7    6   11    7       -0.0000006709
    7    6    8    8       -0.0000000483
    7    6    9    8       -0.0000000414
    7    6   10    8        0.0000057671
    7    6   11    8        0.0022779754
    7    6    9    9        0.0000000560
    7    6   10    9       -0.0000029992
    7    6   11    9       -0.0011780150
    7    6   10   10        0.0000000015
    7    6   11   10        0.0000000960
    7    6   11   11       -0.0000000005
    8    6    8    6        0.1116650942
    8    6    9    6       -0.0517788336
    8    6   10    6       -0.0000000106
    8    6   11    6       -0.0000000081
    8    6    7    7        0.0001307742
    8    6    8    7       -0.0000002530
    8    6    9    7       -0.0000004848
    8    6   10    7        0.0000586224
    8    6   11    7        0.0392762519
    8    6    8    8        0.0000002684
    8    6    9    8        0.0000037412
    8    6   10    8        0.0000000033
    8    6   11    8        0.0000371074
    8    6    9    9        0.0000042444
    8    6   10    9        0.0000000062
    8    6   11    9        0.0000833887
    8    6   10   10       -0.0000428073
    8    6   11   10       -0.0629866545
    8    6   11   11        0.0000103952
    9    6    9    6        0.0386349651
    9    6   10    6       -0.0000000012
    9    6   11    6        0.0000000042
    9    6    7    7       -0.0000675078
    9    6    8    7        0.0000000680
    9    6    9    7        0.0000002819
    9    6   10    7       -0.0000303381
    9    6   11    7       -0.0203134320
    9    6    8    8        0.0000007381
    9    6    9    8       -0.0000014074
    9    6   10    8       -0.0000000008
    9    6   11    8       -0.0000117449
    9    6    9    9       -0.0000027681
    9    6   10    9       -0.0000000036
    9    6   11    9       -0.0000477245
    9    6   10   10        0.0000222998
    9    6   11   10        0.0325777665
    9    6   11   11       -0.0000052123
   10    6   10    6        0.0163295930
   10    6   11    6       -0.0000025187
   10    6    7    7        0.0000000016
   10    6    8    7        0.0000056324
   10    6    9    7       -0.0000029380
   10    6   10    7        0.0000000001
   10    6   11    7        0.0000001896
   10    6    8    8        0.0000000024
   10    6    9    8        0.0000000005
   10    6   10    8       -0.0000042814
   10    6   11    8       -0.0071133533
   10    6    9    9        0.0000000011
   10    6   10    9        0.0000022256
   10    6   11    9        0.0036793602
   10    6   10   10        0.0000000022
   10    6   11   10        0.0000001836
   10    6   11   11        0.0000000028
   11    6   11    6        0.0087316786
   11    6    7    7       -0.0000052879
   11    6    8    7        0.0018405659
   11    6    9    7       -0.0009516743
   11    6   10    7       -0.0000006188
   11    6   11    7       -0.0000000069
   11    6    8    8       -0.0000007502
   11    6    9    8        0.0000036696
   11    6   10    8       -0.0048388434
   11    6   11    8        0.0000039899
   11    6    9    9       -0.0000092994
   11    6   10    9        0.0025026738
   11    6   11    9       -0.0000020500
   11    6   10   10       -0.0000046403
   11    6   11   10        0.0000000039
   11    6   11   11       -0.0000045129
    7    7    7    7        0.3217907652
    7    7    8    7        0.0000000054
    7    7    9    7        0.0000000118
    7    7   10    7       -0.0074807236
    7    7   11    7        0.0000836179
    7    7    8    8        0.3073948593
    7    7    9    8        0.0000000049
    7    7   10    8       -0.0000000028
    7    7   11    8        0.0000000353
    7    7    9    9        0.3073859935
    7    7   10    9       -0.0000000054
    7    7   11    9        0.0000000886
    7    7   10   10        0.3287276550
    7    7   11   10       -0.0000708314
    7    7   11   11        0.3284761795
    8    7    8    7        0.0142223230
    8    7    9    7        0.0000000005
    8    7   10    7       -0.0000000007
    8    7   11    7       -0.0000001036
    8    7    8    8        0.0000000052
    8    7    9    8        0.0000000002
    8    7   10    8        0.0000916344
    8    7   11    8        0.0000012817
    8    7    9    9        0.0000000048
    8    7   10    9        0.0000000002
    8    7   11    9        0.0000001041
    8    7   10   10        0.0000000054
    8    7   11   10        0.0000001621
    8    7   11   11        0.0000071079
    9    7    9    7        0.0142259994
    9    7   10    7       -0.0000000014
    9    7   11    7       -0.0000002229
    9    7    8    8        0.0000000106
    9    7    9    8        0.0000000000
    9    7   10    8        0.0000000002
    9    7   11    8        0.0000001041
    9    7    9    9        0.0000000114
    9    7   10    9        0.0000935022
    9    7   11    9        0.0000013375
    9    7   10   10        0.0000000118
    9    7   11   10        0.0000003504
    9    7   11   11        0.0000171290
   10    7   10    7        0.0169272419
   10    7   11    7        0.0000292287
   10    7    8    8       -0.0073571279
   10    7    9    8        0.0000000022
   10    7   10    8        0.0000000018
   10    7   11    8        0.0000000439
   10    7    9    9       -0.0073541318
   10    7   10    9        0.0000000040
   10    7   11    9        0.0000001009
   10    7   10   10       -0.0095072952
   10    7   11   10       -0.0000477402
   10    7   11   11       -0.0169210761
   11    7   11    7        0.0378393383
   11    7    8    8        0.0000050853
   11    7    9    8        0.0000015150
   11    7   10    8        0.0000000160
   11    7   11    8        0.0000228174
   11    7    9    9        0.0000069251
   11    7   10    9        0.0000000350
   11    7   11    9        0.0000549849
   11    7   10   10       -0.0000251247
   11    7   11   10       -0.0315189547
   11    7   11   11        0.0000029247
    8    8    8    8        0.3479404106
    8    8    9    8        0.0000000125
    8    8   10    8       -0.0000000061
    8    8   11    8       -0.0000000038
    8    8    9    9        0.3188320254
    8    8   10    9       -0.0000000074
    8    8   11    9       -0.0000000084
    8    8   10   10        0.3396683092
    8    8   11   10        0.0000105605
    8    8   11   11        0.3300329870
    9    8    9    8        0.0152008475
    9    8   10    8       -0.0000000033
    9    8   11    8        0.0000000011
    9    8    9    9       -0.0000000122
    9    8   10    9       -0.0000000016
    9    8   11    9        0.0000000034
    9    8   10   10       -0.0000000016
    9    8   11   10       -0.0000023728
    9    8   11   11        0.0000000168
   10    8   10    8        0.0186532121
   10    8   11    8       -0.0000005103
   10    8    9    9       -0.0000000037
   10    8   10    9       -0.0000000002
   10    8   11    9       -0.0000002228
   10    8   10   10       -0.0000000002
   10    8   11   10       -0.0000000040
   10    8   11   11       -0.0000115340
   11    8   11    8        0.0096319537
   11    8    9    9       -0.0000000014
   11    8   10    9       -0.0000002231
   11    8   11    9        0.0000000489
   11    8   10   10       -0.0000000201
   11    8   11   10       -0.0000315664
   11    8   11   11        0.0000000012
    9    9    9    9        0.3479092718
    9    9   10    9       -0.0000000127
    9    9   11    9       -0.0000000046
    9    9   10   10        0.3396514890
    9    9   11   10        0.0000075057
    9    9   11   11        0.3300173434
   10    9   10    9        0.0186483900
   10    9   11    9       -0.0000008130
   10    9   10   10       -0.0000000001
   10    9   11   10       -0.0000000091
   10    9   11   11       -0.0000277826
   11    9   11    9        0.0096318425
   11    9   10   10       -0.0000000482
   11    9   11   10       -0.0000760608
   11    9   11   11        0.0000000031
   10   10   10   10        0.3912329847
   10   10   11   10        0.0000427642
   10   10   11   11        0.3787098489
   11   10   11   10        0.0729389922
   11   10   11   11        0.0000021612
   11   11   11   11        0.3911632991
 end_two_electron_integrals


 output epsi filename:./pspw_hf_H2.emovecs

 Total PSPW energy     :  -0.8340345074E+00


=== Spin Contamination ===

 <Sexact^2> =    0.0000000000000000     
 <S^2>      =    0.0000000000000000     



== Center of Charge ==

spin up     (    0.0000,    0.0000,    0.0000 )
spin down   (    0.0000,    0.0000,    0.0000 )
     total  (    0.0000,    0.0000,    0.0000 )
ionic       (    0.0000,    0.0000,    0.0000 )


== Molecular Dipole wrt Center of Mass ==

mu   =  (   -0.0000,   -0.0000,   -0.0000 ) au
|mu| =     0.0000 au,       0.0000 Debye

 output psi filename:./pspw_hf_H2.movecs

 Writing Crystallographic Information File:./H2.cif
   - cell not shifted (nwpw:cif_shift_cell .false.)


== Timing ==

cputime in seconds
  prologue    :   0.771453E+01
  main loop   :   0.120334E+04
  epilogue    :   0.334363E-01
  total       :   0.121109E+04
  cputime/step:   0.661178E+01       (     182 evalulations,      76 linesearches)


Time spent doing                        total          step       percent
  total time                 :   0.121110E+04  0.665441E+01       100.0 %
  i/o time                   :   0.117165E+01  0.643764E-02         0.1 %
  FFTs                       :   0.908164E+03  0.498991E+01        75.0 %
  dot products               :   0.136472E+02  0.749847E-01         1.1 %
  geodesic                   :   0.888936E-01  0.488426E-03         0.0 %
  ffm_dgemm                  :   0.136720E-01  0.751208E-04         0.0 %
  fmf_dgemm                  :   0.238921E-01  0.131275E-03         0.0 %
  mmm_dgemm                  :   0.385712E-02  0.211930E-04         0.0 %
  m_diagonalize              :   0.159425E-02  0.875961E-05         0.0 %
  local pseudopotentials     :   0.156920E+02  0.862198E-01         1.3 %
  non-local pseudopotentials :   0.120378E+02  0.661416E-01         1.0 %
  structure factors          :   0.249177E+01  0.136911E-01         0.2 %
  phase factors              :   0.967800E-05  0.531758E-07         0.0 %
  masking and packing        :   0.122551E+02  0.673355E-01         1.0 %
  queue fft                  :   0.150860E+02  0.828900E-01         1.2 %
  queue fft (serial)         :   0.522982E+01  0.287353E-01         0.4 %
  queue fft (message passing):   0.976681E+01  0.536638E-01         0.8 %
  HFX potential              :   0.150237E+02  0.825477E-01         1.2 %
  non-local psp FFM          :   0.113334E+02  0.622713E-01         0.9 %
  non-local psp FMF          :   0.192039E+00  0.105516E-02         0.0 %
  non-local psp FFM A        :   0.147489E+00  0.810380E-03         0.0 %
  non-local psp FFM B        :   0.282984E+00  0.155486E-02         0.0 %

== HFX Counters ==
  HFX Evalulations         =   182
  Lin ACE HFX Evalulations =     0


     >>>  JOB COMPLETED     AT Wed Apr 23 07:03:47 2025  <<<

 Task  times  cpu:     1131.5s     wall:     1211.1s


                                NWChem Input Module
                                -------------------


 Summary of allocated global arrays
-----------------------------------
  No active global arrays


MA_summarize_allocated_blocks: starting scan ...
MA_summarize_allocated_blocks: scan completed: 0 heap blocks, 0 stack blocks
MA usage statistics:

	allocation statistics:
					      heap	     stack
					      ----	     -----
	current number of blocks	         0	         0
	maximum number of blocks	       313	        36
	current total bytes		         0	         0
	maximum total bytes		  49373304	  13584696
	maximum total K-bytes		     49374	     13585
	maximum total M-bytes		        50	        14


                                     CITATION
                                     --------
                Please cite the following reference when publishing
                           results obtained with NWChem:

          E. Apra, E. J. Bylaska, W. A. de Jong, N. Govind, K. Kowalski,
       T. P. Straatsma, M. Valiev, H. J. J. van Dam, Y. Alexeev, J. Anchell,
       V. Anisimov, F. W. Aquino, R. Atta-Fynn, J. Autschbach, N. P. Bauman,
     J. C. Becca, D. E. Bernholdt, K. Bhaskaran-Nair, S. Bogatko, P. Borowski,
         J. Boschen, J. Brabec, A. Bruner, E. Cauet, Y. Chen, G. N. Chuev,
      C. J. Cramer, J. Daily, M. J. O. Deegan, T. H. Dunning Jr., M. Dupuis,
   K. G. Dyall, G. I. Fann, S. A. Fischer, A. Fonari, H. Fruchtl, L. Gagliardi,
      J. Garza, N. Gawande, S. Ghosh, K. Glaesemann, A. W. Gotz, J. Hammond,
       V. Helms, E. D. Hermes, K. Hirao, S. Hirata, M. Jacquelin, L. Jensen,
   B. G. Johnson, H. Jonsson, R. A. Kendall, M. Klemm, R. Kobayashi, V. Konkov,
      S. Krishnamoorthy, M. Krishnan, Z. Lin, R. D. Lins, R. J. Littlefield,
      A. J. Logsdail, K. Lopata, W. Ma, A. V. Marenich, J. Martin del Campo,
   D. Mejia-Rodriguez, J. E. Moore, J. M. Mullin, T. Nakajima, D. R. Nascimento,
    J. A. Nichols, P. J. Nichols, J. Nieplocha, A. Otero-de-la-Roza, B. Palmer,
    A. Panyala, T. Pirojsirikul, B. Peng, R. Peverati, J. Pittner, L. Pollack,
   R. M. Richard, P. Sadayappan, G. C. Schatz, W. A. Shelton, D. W. Silverstein,
   D. M. A. Smith, T. A. Soares, D. Song, M. Swart, H. L. Taylor, G. S. Thomas,
            V. Tipparaju, D. G. Truhlar, K. Tsemekhman, T. Van Voorhis,
      A. Vazquez-Mayagoitia, P. Verma, O. Villa, A. Vishnu, K. D. Vogiatzis,
        D. Wang, J. H. Weare, M. J. Williamson, T. L. Windus, K. Wolinski,
        A. T. Wong, Q. Wu, C. Yang, Q. Yu, M. Zacharias, Z. Zhang, Y. Zhao,
                                and R. J. Harrison
                        "NWChem: Past, present, and future
                         J. Chem. Phys. 152, 184102 (2020)
                               doi:10.1063/5.0004997

                                      AUTHORS
                                      -------
  E. Apra, E. J. Bylaska, N. Govind, K. Kowalski, M. Valiev, D. Mejia-Rodriguez,
       A. Kunitsa, N. P. Bauman, A. Panyala, W. A. de Jong, T. P. Straatsma,
   H. J. J. van Dam, D. Wang, T. L. Windus, J. Hammond, J. Autschbach, A. Woods,
    K. Bhaskaran-Nair, J. Brabec, K. Lopata, S. A. Fischer, S. Krishnamoorthy,
     M. Jacquelin, W. Ma, M. Klemm, O. Villa, Y. Chen, V. Anisimov, F. Aquino,
     S. Hirata, M. T. Hackler, E. Hermes, L. Jensen, J. E. Moore, J. C. Becca,
      V. Konjkov, T. Risthaus, M. Malagoli, A. Marenich, A. Otero-de-la-Roza,
        J. Mullin, P. Nichols, R. Peverati, J. Pittner, Y. Zhao, P.-D. Fan,
        A. Fonari, M. J. Williamson, R. J. Harrison, J. R. Rehr, M. Dupuis,
     D. Silverstein, D. M. A. Smith, J. Nieplocha, V. Tipparaju, M. Krishnan,
     B. E. Van Kuiken, A. Vazquez-Mayagoitia, M. Swart, Q. Wu, T. Van Voorhis,
     A. A. Auer, M. Nooijen, L. D. Crosby, E. Brown, G. Cisneros, G. I. Fann,
   H. Fruchtl, J. Garza, K. Hirao, R. A. Kendall, J. A. Nichols, K. Tsemekhman,
    K. Wolinski, J. Anchell, D. E. Bernholdt, P. Borowski, T. Clark, D. Clerc,
   H. Dachsel, M. J. O. Deegan, K. Dyall, D. Elwood, E. Glendening, M. Gutowski,
   A. C. Hess, J. Jaffe, B. G. Johnson, J. Ju, R. Kobayashi, R. Kutteh, Z. Lin,
   R. Littlefield, X. Long, B. Meng, T. Nakajima, S. Niu, L. Pollack, M. Rosing,
   K. Glaesemann, G. Sandrone, M. Stave, H. Taylor, G. Thomas, J. H. van Lenthe,
                               A. T. Wong, Z. Zhang.

 Total times  cpu:     1131.5s     wall:     1211.2s
