 argument  1 = H2-3.5.nw



============================== echo of input deck ==============================
title "swnc: e theory=pspw4 xc=hf formula=H2 charge=0 mult=1"
#machinejob:expert

echo

start pspw_hf_H2

memory heap 1200 mb stack 1200 mb global 10 mb

charge 0

geometry
H    0.00000    0.00000   -1.75000
H    0.00000    0.00000    1.75000
end

nwpw
  ### pseudopotential block begin ###
  ### pseudopotential block end   ###
  simulation_cell
     SC 15.0000
     boundary_conditions aperiodic
  end

  cutoff 50.0
  mult 1
  xc hf
  lmbfgs
  tolerances 1.0e-9 1.0e-9

  virtual 10
end
set nwpw:cif_filename H2

#set nwpw:CI_maxit_orb 15
#set nwpw:CI_maxit_linesearch 15
set pspw:HFX_screening_radius 14.0


set nwpw:2qintegrals .true.
set nwpw:3x3_virtual .true.

task pspw energy

================================================================================


                                         
                                         


             Northwest Computational Chemistry Package (NWChem) 7.2.3
             --------------------------------------------------------


                    Environmental Molecular Sciences Laboratory
                       Pacific Northwest National Laboratory
                                Richland, WA 99352

                              Copyright (c) 1994-2022
                       Pacific Northwest National Laboratory
                            Battelle Memorial Institute

             NWChem is an open-source computational chemistry package
                        distributed under the terms of the
                      Educational Community License (ECL) 2.0
             A copy of the license is included with this distribution
                              in the LICENSE.TXT file

                                  ACKNOWLEDGMENT
                                  --------------

            This software and its documentation were developed at the
            EMSL at Pacific Northwest National Laboratory, a multiprogram
            national laboratory, operated for the U.S. Department of Energy
            by Battelle under Contract Number DE-AC05-76RL01830. Support
            for this work was provided by the Department of Energy Office
            of Biological and Environmental Research, Office of Basic
            Energy Sciences, and the Office of Advanced Scientific Computing.


           Job information
           ---------------

    hostname        = mqs-al
    program         = nwchem
    date            = Mon Apr 14 15:54:41 2025

    compiled        = Thu_Oct_31_08:55:15_2024
    source          = /home/conda/feedstock_root/build_artifacts/nwchem_1730356057992/work
    nwchem branch   = 7.2.3
    nwchem revision = c400b04
    ga revision     = 5.8.0
    use scalapack   = T
    input           = H2-3.5.nw
    prefix          = pspw_hf_H2.
    data base       = ./pspw_hf_H2.db
    status          = startup
    nproc           =       24
    time left       =     -1s



           Memory information
           ------------------

    heap     =  157286398 doubles =   1200.0 Mbytes
    stack    =  157286395 doubles =   1200.0 Mbytes
    global   =    1310720 doubles =     10.0 Mbytes (distinct from heap & stack)
    total    =  315883513 doubles =   2410.0 Mbytes
    verify   = yes
    hardfail = no 


           Directory information
           ---------------------

  0 permanent = .
  0 scratch   = .




                                NWChem Input Module
                                -------------------


               swnc: e theory=pspw4 xc=hf formula=H2 charge=0 mult=1
               -----------------------------------------------------

 Scaling coordinates for geometry "geometry" by  1.889725989
 (inverse scale =  0.529177249)

  zeroes
  zeroes
  zeroes
  zeroes
  zeroes
  zeroes
  zeroes
  zeroes
  zeroes
  zeroes
  zeroes
  zeroes
  zeroes
  zeroes
  zeroes
  zeroes
  zeroes
  zeroes
  zeroes
  zeroes
  zeroes
  zeroes
  zeroes
  zeroes
  zeroes
  zeroes
  zeroes
  zeroes
  zeroes
  zeroes
  zeroes
  zeroes
  zeroes
  zeroes
  zeroes
  zeroes
  zeroes
  zeroes
  zeroes
  zeroes
  zeroes
  zeroes
  zeroes
  zeroes
  zeroes
  zeroes
  zeroes
  zeroes
 ORDER OF PRIMARY AXIS IS BEING SET TO 4
 D4H symmetry detected

          ------
          auto-z
          ------
     1 autoz failed with cvr_scaling = 1.2 changing to 1.3
     2 autoz failed with cvr_scaling = 1.3 changing to 1.4
     3 autoz failed with cvr_scaling = 1.4 changing to 1.5
     4 autoz failed with cvr_scaling = 1.5 changing to 1.6
     5 autoz failed with cvr_scaling = 1.6 changing to 1.7

 AUTOZ failed to generate good internal coordinates.
 Cartesian coordinates will be used in optimizations.



                             Geometry "geometry" -> ""
                             -------------------------

 Output coordinates in angstroms (scale by  1.889725989 to convert to a.u.)

  No.       Tag          Charge          X              Y              Z
 ---- ---------------- ---------- -------------- -------------- --------------
    1 H                    1.0000     0.00000000     0.00000000    -1.75000000
    2 H                    1.0000     0.00000000     0.00000000     1.75000000

      Atomic Mass 
      ----------- 

      H                  1.007825


 Effective nuclear repulsion energy (a.u.)       0.1511934997

            Nuclear Dipole moment (a.u.) 
            ----------------------------
        X                 Y               Z
 ---------------- ---------------- ----------------
     0.0000000000     0.0000000000     0.0000000000

      Symmetry information
      --------------------

 Group name             D4h       
 Group number             28
 Group order              16
 No. of unique centers     1

      Symmetry unique atoms

     1


            XYZ format geometry
            -------------------
     2
 geometry
 H                     0.00000000     0.00000000    -1.75000000
 H                     0.00000000     0.00000000     1.75000000

          ****************************************************
          *                                                  *
          *               NWPW PSPW Calculation              *
          *                                                  *
          * [ (Grassmann/Stiefel manifold implementation)  ] *
          *                                                  *
          *      [ NorthWest Chemistry implementation ]      *
          *                                                  *
          *            version #5.10   06/12/02              *
          *                                                  *
          *    This code was developed by Eric J. Bylaska,   *
          *    and was based upon algorithms and code        *
          *    developed by the group of Prof. John H. Weare *
          *                                                  *
          ****************************************************
     >>>  JOB STARTED       AT Mon Apr 14 15:54:41 2025  <<<
          ================ input data ========================

 input psi filename:./pspw_hf_H2.movecs

 number of processors used:        24
 processor grid           :  24 x   1
 parallel mapping         :2d-hilbert
 parallel mapping         :  balanced
 number of threads        :         1
 parallel io              :       off

 options:
      boundary conditions  = aperiodic   (version4)
      electron spin        = restricted
      exchange-correlation = Hartree-Fock
      - HFX relaxed
      - HFX restricted orbitals :    1
      - HFX free-space coulomb solver


 elements involved in the cluster:
      1: H   valence charge:  1.0000  lmax=  1
             comment    : Parameterized (Chem.Phys.Lett., vol 322, page 447) Hamman psp
             pseudpotential type            :   0
             highest angular component      :   1
             local potential used           :   1
             number of non-local projections:   1
             aperiodic cutoff radius        :  1.000
             cutoff =   0.800   0.800


 total charge:   0.000

 atomic composition:
     H   :    2

 number of electrons: spin up=     1 (   1 per task)  down=     1 (   1 per task) (Fourier space)
 number of orbitals : spin up=     1 (   1 per task)  down=     1 (   1 per task) (Fourier space)

 supercell:
      cell_name:  cell_default                                      
      lattice:    a1=<  15.000   0.000   0.000 >
                  a2=<   0.000  15.000   0.000 >
                  a3=<   0.000   0.000  15.000 >
      reciprocal: b1=<   0.419   0.000   0.000 >
                  b2=<   0.000   0.419   0.000 >
                  b3=<   0.000   0.000   0.419 >
      lattice:    a=      15.000 b=     15.000 c=      15.000
                  alpha=  90.000 beta=  90.000 gamma=  90.000
                  omega=      3375.0

      density cutoff=100.000  fft= 70x 70x 70(    80618 waves     3359 per task)
      wavefnc cutoff= 50.000  fft= 70x 70x 70(    28526 waves     1188 per task)

 technical parameters:
      time step=      5.80     fictitious mass=  400000.0
      tolerance=0.100E-08 (energy)   0.100E-08 (density)
      maximum iterations =      1000 (   10 inner    100 outer )





== Energy Calculation ==


          ============ Grassmann lmbfgs iteration ============
     >>>  ITERATION STARTED AT Mon Apr 14 15:54:47 2025  <<<
    iter.           Energy         DeltaE       DeltaRho 
    ------------------------------------------------------
      10   -0.8076756791E+00   -0.15974E-02    0.70733E-02
     -  10 steepest descent iterations performed
      20   -0.8127970491E+00   -0.13623E-03    0.76577E-04
      30   -0.8130334057E+00   -0.53416E-05    0.53269E-05
      40   -0.8130484528E+00   -0.22671E-06    0.16010E-06
      50   -0.8130491422E+00   -0.11878E-07    0.76210E-09
      60   -0.8130491716E+00   -0.87442E-09    0.74537E-10
  *** tolerance ok. iteration terminated
     >>>  ITERATION ENDED   AT Mon Apr 14 15:54:52 2025  <<<


==  Summary Of Results  ==

 number of electrons: spin up=    1.00000  down=    1.00000 (real space)

 total     energy    :  -0.8130491716E+00 (   -0.40652E+00/ion)
 total orbital energy:  -0.6392100831E+00 (   -0.63921E+00/electron)
 hartree   energy    :   0.6500651763E+00 (    0.65007E+00/electron)
 exc-corr  energy    :   0.0000000000E+00 (    0.00000E+00/electron)
 HF exchange energy  :  -0.3250325881E+00 (   -0.32503E+00/electron)
 ion-ion   energy    :   0.1511934997E+00 (    0.75597E-01/ion)

 kinetic (planewave) :   0.6171981574E+00 (    0.61720E+00/electron)
 V_local (planewave) :  -0.1759826413E+01 (   -0.17598E+01/electron)
 V_nl    (planewave) :  -0.1466470041E+00 (   -0.14665E+00/electron)
 V_Coul  (planewave) :   0.1300130353E+01 (    0.13001E+01/electron)
 V_xc.   (planewave) :   0.0000000000E+00 (    0.00000E+00/electron)
 K.S. HFX energy     :  -0.6500651763E+00 (   -0.65007E+00/electron)
 Virial Coefficient  :  -0.9824123046E+00

 orbital energies:
    -0.3196050E+00 (  -8.697eV)


== Virtual Orbital Calculation ==


 input epsi filename:./pspw_hf_H2.emovecs

 COVOs Mimimization
 ------------------
CI gradient algorithm =         3
maxit_sweeps          =         3
maxit_orb             =       120
maxit_linesearch      =        15
maxerror              = 0.100E-08

     orb,it,eci,eold,eci-eold=                    1                    1 -0.92109932284699769      -0.91895586268850060       -2.1434601584970903E-003 F
     orb,it,eci,eold,eci-eold=                    1                    2 -0.92146234979464692      -0.92109932284699769       -3.6302694764922538E-004 F
     orb,it,eci,eold,eci-eold=                    1                    3 -0.93551204333899984      -0.92146234979464692       -1.4049693544352926E-002 F
     orb,it,eci,eold,eci-eold=                    1                    4 -0.93593795407412539      -0.93551204333899984       -4.2591073512554534E-004 F
     orb,it,eci,eold,eci-eold=                    1                    5 -0.93854002506384382      -0.93593795407412539       -2.6020709897184302E-003 F
     orb,it,eci,eold,eci-eold=                    1                    6 -0.94317656932950222      -0.93854002506384382       -4.6365442656584044E-003 F
     orb,it,eci,eold,eci-eold=                    1                    7 -0.94711517990699889      -0.94317656932950222       -3.9386105774966707E-003 F
     orb,it,eci,eold,eci-eold=                    1                    8 -0.94860083545626794      -0.94711517990699889       -1.4856555492690493E-003 F
     orb,it,eci,eold,eci-eold=                    1                    9 -0.94961802529824035      -0.94860083545626794       -1.0171898419724101E-003 F
     orb,it,eci,eold,eci-eold=                    1                   10 -0.95576293490798503      -0.94961802529824035       -6.1449096097446754E-003 F
     orb,it,eci,eold,eci-eold=                    1                   11 -0.95603149650856367      -0.95576293490798503       -2.6856160057864287E-004 F
     orb,it,eci,eold,eci-eold=                    1                   12 -0.95613856809500897      -0.95603149650856367       -1.0707158644529535E-004 F
     orb,it,eci,eold,eci-eold=                    1                   13 -0.95987978698445942      -0.95613856809500897       -3.7412188894504483E-003 F
     orb,it,eci,eold,eci-eold=                    1                   14 -0.96175117688257838      -0.95987978698445942       -1.8713898981189692E-003 F
     orb,it,eci,eold,eci-eold=                    1                   15 -0.96444965977615427      -0.96175117688257838       -2.6984828935758820E-003 F
     orb,it,eci,eold,eci-eold=                    1                   16 -0.96598073777118720      -0.96444965977615427       -1.5310779950329367E-003 F
     orb,it,eci,eold,eci-eold=                    1                   17 -0.96734848983854793      -0.96598073777118720       -1.3677520673607280E-003 F
     orb,it,eci,eold,eci-eold=                    1                   18 -0.96798944519906982      -0.96734848983854793       -6.4095536052188873E-004 F
     orb,it,eci,eold,eci-eold=                    1                   19 -0.96953058052986862      -0.96798944519906982       -1.5411353307988040E-003 F
     orb,it,eci,eold,eci-eold=                    1                   20 -0.96987296039187809      -0.96953058052986862       -3.4237986200946757E-004 F
     orb,it,eci,eold,eci-eold=                    1                   21 -0.97015495020094211      -0.96987296039187809       -2.8198980906402049E-004 F
     orb,it,eci,eold,eci-eold=                    1                   22 -0.97145742778959820      -0.97015495020094211       -1.3024775886560924E-003 F
     orb,it,eci,eold,eci-eold=                    1                   23 -0.97153716318182415      -0.97145742778959820       -7.9735392225943613E-005 F
     orb,it,eci,eold,eci-eold=                    1                   24 -0.97161377127782134      -0.97153716318182415       -7.6608095997188208E-005 F
     orb,it,eci,eold,eci-eold=                    1                   25 -0.97294144136750749      -0.97161377127782134       -1.3276700896861504E-003 F
     orb,it,eci,eold,eci-eold=                    1                   26 -0.97297584469840181      -0.97294144136750749       -3.4403330894328121E-005 F
     orb,it,eci,eold,eci-eold=                    1                   27 -0.97299681663855919      -0.97297584469840181       -2.0971940157377134E-005 F
     orb,it,eci,eold,eci-eold=                    1                   28 -0.97402387332338591      -0.97299681663855919       -1.0270566848267215E-003 F
     orb,it,eci,eold,eci-eold=                    1                   29 -0.97452497569912699      -0.97402387332338591       -5.0110237574108041E-004 F
     orb,it,eci,eold,eci-eold=                    1                   30 -0.97485665106827346      -0.97452497569912699       -3.3167536914646689E-004 F
     orb,it,eci,eold,eci-eold=                    1                   31 -0.97504990476526454      -0.97485665106827346       -1.9325369699108030E-004 F
     orb,it,eci,eold,eci-eold=                    1                   32 -0.97554743341736805      -0.97504990476526454       -4.9752865210350716E-004 F
     orb,it,eci,eold,eci-eold=                    1                   33 -0.97555891123174365      -0.97554743341736805       -1.1477814375604467E-005 F
     orb,it,eci,eold,eci-eold=                    1                   34 -0.97559165122590152      -0.97555891123174365       -3.2739994157870989E-005 F
     orb,it,eci,eold,eci-eold=                    1                   35 -0.97605141900318049      -0.97559165122590152       -4.5976777727896323E-004 F
     orb,it,eci,eold,eci-eold=                    1                   36 -0.97632306841232042      -0.97605141900318049       -2.7164940913992908E-004 F
     orb,it,eci,eold,eci-eold=                    1                   37 -0.97655551059155976      -0.97632306841232042       -2.3244217923934496E-004 F
     orb,it,eci,eold,eci-eold=                    1                   38 -0.97667000947808180      -0.97655551059155976       -1.1449888652204088E-004 F
     orb,it,eci,eold,eci-eold=                    1                   39 -0.97690767037597115      -0.97667000947808180       -2.3766089788934686E-004 F
     orb,it,eci,eold,eci-eold=                    1                   40 -0.97704009937159908      -0.97690767037597115       -1.3242899562793120E-004 F
     orb,it,eci,eold,eci-eold=                    1                   41 -0.97716867148428133      -0.97704009937159908       -1.2857211268224589E-004 F
     orb,it,eci,eold,eci-eold=                    1                   42 -0.97723754330042500      -0.97716867148428133       -6.8871816143678544E-005 F
     orb,it,eci,eold,eci-eold=                    1                   43 -0.97737922027535817      -0.97723754330042500       -1.4167697493316922E-004 F
     orb,it,eci,eold,eci-eold=                    1                   44 -0.97738686006208741      -0.97737922027535817       -7.6397867292410382E-006 F
     orb,it,eci,eold,eci-eold=                    1                   45 -0.97739170107278539      -0.97738686006208741       -4.8410106979757117E-006 F
     orb,it,eci,eold,eci-eold=                    1                   46 -0.97748776192676101      -0.97739170107278539       -9.6060853975621363E-005 F
     orb,it,eci,eold,eci-eold=                    1                   47 -0.97752149773115293      -0.97748776192676101       -3.3735804391921143E-005 F
     orb,it,eci,eold,eci-eold=                    1                   48 -0.97752443098430564      -0.97752149773115293       -2.9332531527037631E-006 F
     orb,it,eci,eold,eci-eold=                    1                   49 -0.97759804913328119      -0.97752443098430564       -7.3618148975551634E-005 F
     orb,it,eci,eold,eci-eold=                    1                   50 -0.97765691832137191      -0.97759804913328119       -5.8869188090726610E-005 F
     orb,it,eci,eold,eci-eold=                    1                   51 -0.97768046353565818      -0.97765691832137191       -2.3545214286269101E-005 F
     orb,it,eci,eold,eci-eold=                    1                   52 -0.97773613732550202      -0.97768046353565818       -5.5673789843835308E-005 F
     orb,it,eci,eold,eci-eold=                    1                   53 -0.97774227529635205      -0.97773613732550202       -6.1379708500286512E-006 F
     orb,it,eci,eold,eci-eold=                    1                   54 -0.97774928179347187      -0.97774227529635205       -7.0064971198213755E-006 F
     orb,it,eci,eold,eci-eold=                    1                   55 -0.97780339245330505      -0.97774928179347187       -5.4110659833184194E-005 F
     orb,it,eci,eold,eci-eold=                    1                   56 -0.97783023315289219      -0.97780339245330505       -2.6840699587138417E-005 F
     orb,it,eci,eold,eci-eold=                    1                   57 -0.97783749294135569      -0.97783023315289219       -7.2597884634983956E-006 F
     orb,it,eci,eold,eci-eold=                    1                   58 -0.97787455569800219      -0.97783749294135569       -3.7062756646499828E-005 F
     orb,it,eci,eold,eci-eold=                    1                   59 -0.97788837990594835      -0.97787455569800219       -1.3824207946155909E-005 F
     orb,it,eci,eold,eci-eold=                    1                   60 -0.97789455828824556      -0.97788837990594835       -6.1783822972172331E-006 F
     orb,it,eci,eold,eci-eold=                    1                   61 -0.97792904586692864      -0.97789455828824556       -3.4487578683073394E-005 F
     orb,it,eci,eold,eci-eold=                    1                   62 -0.97794573043587851      -0.97792904586692864       -1.6684568949876244E-005 F
     orb,it,eci,eold,eci-eold=                    1                   63 -0.97795121388021189      -0.97794573043587851       -5.4834443333762195E-006 F
     orb,it,eci,eold,eci-eold=                    1                   64 -0.97797581166976588      -0.97795121388021189       -2.4597789553992833E-005 F
     orb,it,eci,eold,eci-eold=                    1                   65 -0.97798662486507804      -0.97797581166976588       -1.0813195312153745E-005 F
     orb,it,eci,eold,eci-eold=                    1                   66 -0.97799295051527912      -0.97798662486507804       -6.3256502010888838E-006 F
     orb,it,eci,eold,eci-eold=                    1                   67 -0.97801832103285324      -0.97799295051527912       -2.5370517574119233E-005 F
     orb,it,eci,eold,eci-eold=                    1                   68 -0.97802623224673568      -0.97801832103285324       -7.9112138824388722E-006 F
     orb,it,eci,eold,eci-eold=                    1                   69 -0.97802796932102976      -0.97802623224673568       -1.7370742940725492E-006 F
     orb,it,eci,eold,eci-eold=                    1                   70 -0.97804394247336957      -0.97802796932102976       -1.5973152339809893E-005 F
     orb,it,eci,eold,eci-eold=                    1                   71 -0.97804925823086286      -0.97804394247336957       -5.3157574932960472E-006 F
     orb,it,eci,eold,eci-eold=                    1                   72 -0.97805084578161061      -0.97804925823086286       -1.5875507477502993E-006 F
     orb,it,eci,eold,eci-eold=                    1                   73 -0.97806467038145162      -0.97805084578161061       -1.3824599841005814E-005 F
     orb,it,eci,eold,eci-eold=                    1                   74 -0.97807162395991942      -0.97806467038145162       -6.9535784678054213E-006 F
     orb,it,eci,eold,eci-eold=                    1                   75 -0.97807378358884245      -0.97807162395991942       -2.1596289230263466E-006 F
     orb,it,eci,eold,eci-eold=                    1                   76 -0.97808432868793171      -0.97807378358884245       -1.0545099089265264E-005 F
     orb,it,eci,eold,eci-eold=                    1                   77 -0.97808721362425877      -0.97808432868793171       -2.8849363270522232E-006 F
     orb,it,eci,eold,eci-eold=                    1                   78 -0.97808805994725323      -0.97808721362425877       -8.4632299446329995E-007 F
     orb,it,eci,eold,eci-eold=                    1                   79 -0.97809720247795573      -0.97808805994725323       -9.1425307024994851E-006 F
     orb,it,eci,eold,eci-eold=                    1                   80 -0.97810258558007146      -0.97809720247795573       -5.3831021157302317E-006 F
     orb,it,eci,eold,eci-eold=                    1                   81 -0.97810444607874292      -0.97810258558007146       -1.8604986714576555E-006 F
     orb,it,eci,eold,eci-eold=                    1                   82 -0.97811242532981191      -0.97810444607874292       -7.9792510689902230E-006 F
     orb,it,eci,eold,eci-eold=                    1                   83 -0.97811461391359067      -0.97811242532981191       -2.1885837787616325E-006 F
     orb,it,eci,eold,eci-eold=                    1                   84 -0.97811496669993259      -0.97811461391359067       -3.5278634191726610E-007 F
     orb,it,eci,eold,eci-eold=                    1                   85 -0.97812130849543411      -0.97811496669993259       -6.3417955015188099E-006 F
     orb,it,eci,eold,eci-eold=                    1                   86 -0.97812586537858714      -0.97812130849543411       -4.5568831530395926E-006 F
     orb,it,eci,eold,eci-eold=                    1                   87 -0.97812754617152575      -0.97812586537858714       -1.6807929386075671E-006 F
     orb,it,eci,eold,eci-eold=                    1                   88 -0.97813304457449246      -0.97812754617152575       -5.4984029667082268E-006 F
     orb,it,eci,eold,eci-eold=                    1                   89 -0.97813476421519208      -0.97813304457449246       -1.7196406996156099E-006 F
     orb,it,eci,eold,eci-eold=                    1                   90 -0.97813553396669084      -0.97813476421519208       -7.6975149876368221E-007 F
     orb,it,eci,eold,eci-eold=                    1                   91 -0.97814028485450399      -0.97813553396669084       -4.7508878131541366E-006 F
     orb,it,eci,eold,eci-eold=                    1                   92 -0.97814200000510831      -0.97814028485450399       -1.7151506043200371E-006 F
     orb,it,eci,eold,eci-eold=                    1                   93 -0.97814229879080872      -0.97814200000510831       -2.9878570040331454E-007 F
     orb,it,eci,eold,eci-eold=                    1                   94 -0.97814561738350292      -0.97814229879080872       -3.3185926942014277E-006 F
     orb,it,eci,eold,eci-eold=                    1                   95 -0.97814724620456706      -0.97814561738350292       -1.6288210641368650E-006 F
     orb,it,eci,eold,eci-eold=                    1                   96 -0.97814779980405098      -0.97814724620456706       -5.5359948392119662E-007 F
     orb,it,eci,eold,eci-eold=                    1                   97 -0.97815069238540753      -0.97814779980405098       -2.8925813565505720E-006 F
     orb,it,eci,eold,eci-eold=                    1                   98 -0.97815203949443130      -0.97815069238540753       -1.3471090237748840E-006 F
     orb,it,eci,eold,eci-eold=                    1                   99 -0.97815254430693910      -0.97815203949443130       -5.0481250779554898E-007 F
     orb,it,eci,eold,eci-eold=                    1                  100 -0.97815480857405401      -0.97815254430693910       -2.2642671149153415E-006 F
     orb,it,eci,eold,eci-eold=                    1                  101 -0.97815543566401164      -0.97815480857405401       -6.2708995762772446E-007 F
     orb,it,eci,eold,eci-eold=                    1                  102 -0.97815557201977188      -0.97815543566401164       -1.3635576023851570E-007 F
     orb,it,eci,eold,eci-eold=                    1                  103 -0.97815707152911968      -0.97815557201977188       -1.4995093478020749E-006 F
     orb,it,eci,eold,eci-eold=                    1                  104 -0.97815778738985959      -0.97815707152911968       -7.1586073990825838E-007 F
     orb,it,eci,eold,eci-eold=                    1                  105 -0.97815811024602128      -0.97815778738985959       -3.2285616169414055E-007 F
     orb,it,eci,eold,eci-eold=                    1                  106 -0.97815951960326419      -0.97815811024602128       -1.4093572429096923E-006 F
     orb,it,eci,eold,eci-eold=                    1                  107 -0.97816003682570929      -0.97815951960326419       -5.1722244509555537E-007 F
     orb,it,eci,eold,eci-eold=                    1                  108 -0.97816022410814152      -0.97816003682570929       -1.8728243222909668E-007 F
     orb,it,eci,eold,eci-eold=                    1                  109 -0.97816139778133215      -0.97816022410814152       -1.1736731906353270E-006 F
     orb,it,eci,eold,eci-eold=                    1                  110 -0.97816205037303394      -0.97816139778133215       -6.5259170178855186E-007 F
     orb,it,eci,eold,eci-eold=                    1                  111 -0.97816231722738189      -0.97816205037303394       -2.6685434795226115E-007 F
     orb,it,eci,eold,eci-eold=                    1                  112 -0.97816332794315408      -0.97816231722738189       -1.0107157721872539E-006 F
     orb,it,eci,eold,eci-eold=                    1                  113 -0.97816371923615963      -0.97816332794315408       -3.9129300555273971E-007 F
     orb,it,eci,eold,eci-eold=                    1                  114 -0.97816389825675265      -0.97816371923615963       -1.7902059301633244E-007 F
     orb,it,eci,eold,eci-eold=                    1                  115 -0.97816474707784173      -0.97816389825675265       -8.4882108908335141E-007 F
     orb,it,eci,eold,eci-eold=                    1                  116 -0.97816496432643851      -0.97816474707784173       -2.1724859677885178E-007 F
     orb,it,eci,eold,eci-eold=                    1                  117 -0.97816499814163349      -0.97816496432643851       -3.3815194977471208E-008 F
     orb,it,eci,eold,eci-eold=                    1                  118 -0.97816560518107609      -0.97816499814163349       -6.0703944260165343E-007 F
     orb,it,eci,eold,eci-eold=                    1                  119 -0.97816590892366784      -0.97816560518107609       -3.0374259174514862E-007 F
     orb,it,eci,eold,eci-eold=                    1                  120 -0.97816599617961197      -0.97816590892366784       -8.7255944136721553E-008 F
     orb,it,eci,eold,eci-eold=                    1                  121 -0.97816649045631809      -0.97816599617961197       -4.9427670612001151E-007 F
     orbital   1 current e= -0.137148E+00 error=0.830E-01 (eci= -0.978166490E+00 error=0.494E-06) iterations 121(   0 preconditioned, Ep,Sp= 20.0  200.0)
     orb,it,eci,eold,eci-eold=                    1                    1 -0.97816789659604508      -0.97816649045631809       -1.4061397269893305E-006 F
     orb,it,eci,eold,eci-eold=                    1                    2 -0.97816847154414266      -0.97816789659604508       -5.7494809757585585E-007 F
     orb,it,eci,eold,eci-eold=                    1                    3 -0.97816910306936600      -0.97816847154414266       -6.3152522333798089E-007 F
     orb,it,eci,eold,eci-eold=                    1                    4 -0.97816915052502162      -0.97816910306936600       -4.7455655627359761E-008 F
     orb,it,eci,eold,eci-eold=                    1                    5 -0.97816915498999601      -0.97816915052502162       -4.4649743902169803E-009 F
     orb,it,eci,eold,eci-eold=                    1                    6 -0.97816949383617469      -0.97816915498999601       -3.3884617867130373E-007 F
     orb,it,eci,eold,eci-eold=                    1                    7 -0.97816953115227467      -0.97816949383617469       -3.7316099987805273E-008 F
     orb,it,eci,eold,eci-eold=                    1                    8 -0.97816956936288424      -0.97816953115227467       -3.8210609565325626E-008 F
     orb,it,eci,eold,eci-eold=                    1                    9 -0.97816968910562574      -0.97816956936288424       -1.1974274150006181E-007 F
     orb,it,eci,eold,eci-eold=                    1                   10 -0.97816970983648055      -0.97816968910562574       -2.0730854810580013E-008 F
     orb,it,eci,eold,eci-eold=                    1                   11 -0.97816977277469730      -0.97816970983648055       -6.2938216749408582E-008 F
     orb,it,eci,eold,eci-eold=                    1                   12 -0.97816990246705315      -0.97816977277469730       -1.2969235585469363E-007 F
     orb,it,eci,eold,eci-eold=                    1                   13 -0.97816996124461952      -0.97816990246705315       -5.8777566369627721E-008 F
     orb,it,eci,eold,eci-eold=                    1                   14 -0.97817000479109784      -0.97816996124461952       -4.3546478312173065E-008 F
     orb,it,eci,eold,eci-eold=                    1                   15 -0.97817002697921263      -0.97817000479109784       -2.2188114789933877E-008 F
     orb,it,eci,eold,eci-eold=                    1                   16 -0.97817007786288201      -0.97817002697921263       -5.0883669389101271E-008 F
     orb,it,eci,eold,eci-eold=                    1                   17 -0.97817010594122977      -0.97817007786288201       -2.8078347757976019E-008 F
     orb,it,eci,eold,eci-eold=                    1                   18 -0.97817012112598434      -0.97817010594122977       -1.5184754564856462E-008 F
     orb,it,eci,eold,eci-eold=                    1                   19 -0.97817012790983493      -0.97817012112598434       -6.7838505923845105E-009 F
     orb,it,eci,eold,eci-eold=                    1                   20 -0.97817014739088259      -0.97817012790983493       -1.9481047663916229E-008 F
     orb,it,eci,eold,eci-eold=                    1                   21 -0.97817015821737141      -0.97817014739088259       -1.0826488816562119E-008 F
     orb,it,eci,eold,eci-eold=                    1                   22 -0.97817017012324925      -0.97817015821737141       -1.1905877839168966E-008 F
     orb,it,eci,eold,eci-eold=                    1                   23 -0.97817017684901797      -0.97817017012324925       -6.7257687197397331E-009 F
     orb,it,eci,eold,eci-eold=                    1                   24 -0.97817018108032072      -0.97817017684901797       -4.2313027526219571E-009 F
     orb,it,eci,eold,eci-eold=                    1                   25 -0.97817018254668486      -0.97817018108032072       -1.4663641412226980E-009 F
     orb,it,eci,eold,eci-eold=                    1                   26 -0.97817018983599846      -0.97817018254668486       -7.2893135971696665E-009 F
     orb,it,eci,eold,eci-eold=                    1                   27 -0.97817019085551626      -0.97817018983599846       -1.0195178035132813E-009 F
     orb,it,eci,eold,eci-eold=                    1                   28 -0.97817019085551626      -0.97817019085551626        0.0000000000000000      F
     orbital   1 current e= -0.137156E+00 error=0.809E-05 (eci= -0.978170191E+00 error=0.000E+00) iterations  28(   0 preconditioned, Ep,Sp= 20.0  200.0)
     orb,it,eci,eold,eci-eold=                    1                    1 -0.97817019036422415      -0.97817019036422415        0.0000000000000000      F
     orbital   1 current e= -0.137156E+00 error=0.225E-07 (eci= -0.978170190E+00 error=0.000E+00) iterations   1(   0 preconditioned, Ep,Sp= 20.0  200.0)
     orb,it,eci,eold,eci-eold=                    2                    1 -0.81606895086001630      -0.81606635361047219       -2.5972495441006771E-006 F
     orb,it,eci,eold,eci-eold=                    2                    2 -0.81611134416509834      -0.81606895086001630       -4.2393305082044641E-005 F
     orb,it,eci,eold,eci-eold=                    2                    3 -0.81637257505607619      -0.81611134416509834       -2.6123089097784824E-004 F
     orb,it,eci,eold,eci-eold=                    2                    4 -0.81649966077366654      -0.81637257505607619       -1.2708571759034726E-004 F
     orb,it,eci,eold,eci-eold=                    2                    5 -0.81669362232820442      -0.81649966077366654       -1.9396155453788033E-004 F
     orb,it,eci,eold,eci-eold=                    2                    6 -0.81681506654817482      -0.81669362232820442       -1.2144421997040133E-004 F
     orb,it,eci,eold,eci-eold=                    2                    7 -0.81682899631456096      -0.81681506654817482       -1.3929766386144848E-005 F
     orb,it,eci,eold,eci-eold=                    2                    8 -0.81682983584518309      -0.81682899631456096       -8.3953062213204532E-007 F
     orb,it,eci,eold,eci-eold=                    2                    9 -0.81693667656555480      -0.81682983584518309       -1.0684072037170367E-004 F
     orb,it,eci,eold,eci-eold=                    2                   10 -0.81697202606205876      -0.81693667656555480       -3.5349496503966904E-005 F
     orb,it,eci,eold,eci-eold=                    2                   11 -0.81698216310678817      -0.81697202606205876       -1.0137044729408018E-005 F
     orb,it,eci,eold,eci-eold=                    2                   12 -0.81703838388497196      -0.81698216310678817       -5.6220778183790898E-005 F
     orb,it,eci,eold,eci-eold=                    2                   13 -0.81706134817750620      -0.81703838388497196       -2.2964292534233266E-005 F
     orb,it,eci,eold,eci-eold=                    2                   14 -0.81710758490309088      -0.81706134817750620       -4.6236725584680727E-005 F
     orb,it,eci,eold,eci-eold=                    2                   15 -0.81712443933699597      -0.81710758490309088       -1.6854433905089117E-005 F
     orb,it,eci,eold,eci-eold=                    2                   16 -0.81713724432248624      -0.81712443933699597       -1.2804985490277865E-005 F
     orb,it,eci,eold,eci-eold=                    2                   17 -0.81716983482824790      -0.81713724432248624       -3.2590505761653787E-005 F
     orb,it,eci,eold,eci-eold=                    2                   18 -0.81717294616738423      -0.81716983482824790       -3.1113391363302156E-006 F
     orb,it,eci,eold,eci-eold=                    2                   19 -0.81717994804893401      -0.81717294616738423       -7.0018815497840947E-006 F
     orb,it,eci,eold,eci-eold=                    2                   20 -0.81721683908020570      -0.81717994804893401       -3.6891031271690800E-005 F
     orb,it,eci,eold,eci-eold=                    2                   21 -0.81722398148343545      -0.81721683908020570       -7.1424032297429108E-006 F
     orb,it,eci,eold,eci-eold=                    2                   22 -0.81722613131092459      -0.81722398148343545       -2.1498274891396107E-006 F
     orb,it,eci,eold,eci-eold=                    2                   23 -0.81724966043513092      -0.81722613131092459       -2.3529124206334018E-005 F
     orb,it,eci,eold,eci-eold=                    2                   24 -0.81726393967877353      -0.81724966043513092       -1.4279243642612016E-005 F
     orb,it,eci,eold,eci-eold=                    2                   25 -0.81728498631139390      -0.81726393967877353       -2.1046632620369543E-005 F
     orb,it,eci,eold,eci-eold=                    2                   26 -0.81729691875566757      -0.81728498631139390       -1.1932444273665688E-005 F
     orb,it,eci,eold,eci-eold=                    2                   27 -0.81730946987089714      -0.81729691875566757       -1.2551115229575416E-005 F
     orb,it,eci,eold,eci-eold=                    2                   28 -0.81731496453176722      -0.81730946987089714       -5.4946608700756627E-006 F
     orb,it,eci,eold,eci-eold=                    2                   29 -0.81732484331445132      -0.81731496453176722       -9.8787826841029158E-006 F
     orb,it,eci,eold,eci-eold=                    2                   30 -0.81732494355346064      -0.81732484331445132       -1.0023900931521723E-007 F
     orb,it,eci,eold,eci-eold=                    2                   31 -0.81732631872707673      -0.81732494355346064       -1.3751736160916295E-006 F
     orb,it,eci,eold,eci-eold=                    2                   32 -0.81733619247501654      -0.81732631872707673       -9.8737479398147698E-006 F
     orb,it,eci,eold,eci-eold=                    2                   33 -0.81733787548588144      -0.81733619247501654       -1.6830108648946407E-006 F
     orb,it,eci,eold,eci-eold=                    2                   34 -0.81733834629180890      -0.81733787548588144       -4.7080592746606698E-007 F
     orb,it,eci,eold,eci-eold=                    2                   35 -0.81734675168300031      -0.81733834629180890       -8.4053911914017121E-006 F
     orb,it,eci,eold,eci-eold=                    2                   36 -0.81734834766454845      -0.81734675168300031       -1.5959815481414452E-006 F
     orb,it,eci,eold,eci-eold=                    2                   37 -0.81734836044235482      -0.81734834766454845       -1.2777806368546862E-008 F
     orb,it,eci,eold,eci-eold=                    2                   38 -0.81735311982922476      -0.81734836044235482       -4.7593868699458142E-006 F
     orb,it,eci,eold,eci-eold=                    2                   39 -0.81735511164639951      -0.81735311982922476       -1.9918171747512758E-006 F
     orb,it,eci,eold,eci-eold=                    2                   40 -0.81735561599736806      -0.81735511164639951       -5.0435096854428707E-007 F
     orb,it,eci,eold,eci-eold=                    2                   41 -0.81735968332802300      -0.81735561599736806       -4.0673306549443566E-006 F
     orb,it,eci,eold,eci-eold=                    2                   42 -0.81736196406106276      -0.81735968332802300       -2.2807330397611736E-006 F
     orb,it,eci,eold,eci-eold=                    2                   43 -0.81736298227844117      -0.81736196406106276       -1.0182173784123449E-006 F
     orb,it,eci,eold,eci-eold=                    2                   44 -0.81736653318135200      -0.81736298227844117       -3.5509029108204970E-006 F
     orb,it,eci,eold,eci-eold=                    2                   45 -0.81736672456082071      -0.81736653318135200       -1.9137946871694567E-007 F
     orb,it,eci,eold,eci-eold=                    2                   46 -0.81736696990699709      -0.81736672456082071       -2.4534617637517186E-007 F
     orb,it,eci,eold,eci-eold=                    2                   47 -0.81737076977887790      -0.81736696990699709       -3.7998718808163190E-006 F
     orb,it,eci,eold,eci-eold=                    2                   48 -0.81737134415740176      -0.81737076977887790       -5.7437852385433530E-007 F
     orb,it,eci,eold,eci-eold=                    2                   49 -0.81737152450126704      -0.81737134415740176       -1.8034386528587021E-007 F
     orb,it,eci,eold,eci-eold=                    2                   50 -0.81737437223022702      -0.81737152450126704       -2.8477289599759814E-006 F
     orb,it,eci,eold,eci-eold=                    2                   51 -0.81737603463553343      -0.81737437223022702       -1.6624053064129285E-006 F
     orb,it,eci,eold,eci-eold=                    2                   52 -0.81737731841853423      -0.81737603463553343       -1.2837830007939033E-006 F
     orb,it,eci,eold,eci-eold=                    2                   53 -0.81737790921668863      -0.81737731841853423       -5.9079815439844197E-007 F
     orb,it,eci,eold,eci-eold=                    2                   54 -0.81737925046056525      -0.81737790921668863       -1.3412438766291501E-006 F
     orb,it,eci,eold,eci-eold=                    2                   55 -0.81737940030532674      -0.81737925046056525       -1.4984476148782733E-007 F
     orb,it,eci,eold,eci-eold=                    2                   56 -0.81737947089706986      -0.81737940030532674       -7.0591743117631722E-008 F
     orb,it,eci,eold,eci-eold=                    2                   57 -0.81738027299872962      -0.81737947089706986       -8.0210165975813652E-007 F
     orb,it,eci,eold,eci-eold=                    2                   58 -0.81738046531072195      -0.81738027299872962       -1.9231199233082918E-007 F
     orb,it,eci,eold,eci-eold=                    2                   59 -0.81738053285711942      -0.81738046531072195       -6.7546397475304332E-008 F
     orb,it,eci,eold,eci-eold=                    2                   60 -0.81738138384057113      -0.81738053285711942       -8.5098345170564471E-007 F
     orb,it,eci,eold,eci-eold=                    2                   61 -0.81738194889599758      -0.81738138384057113       -5.6505542644913476E-007 F
     orb,it,eci,eold,eci-eold=                    2                   62 -0.81738209164845843      -0.81738194889599758       -1.4275246085215798E-007 F
     orb,it,eci,eold,eci-eold=                    2                   63 -0.81738264080959877      -0.81738209164845843       -5.4916114033964902E-007 F
     orb,it,eci,eold,eci-eold=                    2                   64 -0.81738276877822535      -0.81738264080959877       -1.2796862658426278E-007 F
     orb,it,eci,eold,eci-eold=                    2                   65 -0.81738283247241350      -0.81738276877822535       -6.3694188146001807E-008 F
     orb,it,eci,eold,eci-eold=                    2                   66 -0.81738338687572765      -0.81738283247241350       -5.5440331414580157E-007 F
     orb,it,eci,eold,eci-eold=                    2                   67 -0.81738374120585044      -0.81738338687572765       -3.5433012279817433E-007 F
     orb,it,eci,eold,eci-eold=                    2                   68 -0.81738386473793601      -0.81738374120585044       -1.2353208556081796E-007 F
     orb,it,eci,eold,eci-eold=                    2                   69 -0.81738428824380649      -0.81738386473793601       -4.2350587048378685E-007 F
     orb,it,eci,eold,eci-eold=                    2                   70 -0.81738436632271927      -0.81738428824380649       -7.8078912779666609E-008 F
     orb,it,eci,eold,eci-eold=                    2                   71 -0.81738438600137897      -0.81738436632271927       -1.9678659701760637E-008 F
     orb,it,eci,eold,eci-eold=                    2                   72 -0.81738470676100672      -0.81738438600137897       -3.2075962774769096E-007 F
     orb,it,eci,eold,eci-eold=                    2                   73 -0.81738485680202833      -0.81738470676100672       -1.5004102160709465E-007 F
     orb,it,eci,eold,eci-eold=                    2                   74 -0.81738489262576230      -0.81738485680202833       -3.5823733979256644E-008 F
     orb,it,eci,eold,eci-eold=                    2                   75 -0.81738513412953617      -0.81738489262576230       -2.4150377386789046E-007 F
     orb,it,eci,eold,eci-eold=                    2                   76 -0.81738524139375923      -0.81738513412953617       -1.0726422305928907E-007 F
     orb,it,eci,eold,eci-eold=                    2                   77 -0.81738528402786681      -0.81738524139375923       -4.2634107577654845E-008 F
     orb,it,eci,eold,eci-eold=                    2                   78 -0.81738551274175530      -0.81738528402786681       -2.2871388849488028E-007 F
     orb,it,eci,eold,eci-eold=                    2                   79 -0.81738561947624699      -0.81738551274175530       -1.0673449168940863E-007 F
     orb,it,eci,eold,eci-eold=                    2                   80 -0.81738565017230935      -0.81738561947624699       -3.0696062358614995E-008 F
     orb,it,eci,eold,eci-eold=                    2                   81 -0.81738581059502935      -0.81738565017230935       -1.6042271999694435E-007 F
     orb,it,eci,eold,eci-eold=                    2                   82 -0.81738587481097325      -0.81738581059502935       -6.4215943895717942E-008 F
     orb,it,eci,eold,eci-eold=                    2                   83 -0.81738590131492883      -0.81738587481097325       -2.6503955585788219E-008 F
     orb,it,eci,eold,eci-eold=                    2                   84 -0.81738603727806347      -0.81738590131492883       -1.3596313463981602E-007 F
     orb,it,eci,eold,eci-eold=                    2                   85 -0.81738609958230302      -0.81738603727806347       -6.2304239545341034E-008 F
     orb,it,eci,eold,eci-eold=                    2                   86 -0.81738612633806040      -0.81738609958230302       -2.6755757387419976E-008 F
     orb,it,eci,eold,eci-eold=                    2                   87 -0.81738623878339567      -0.81738612633806040       -1.1244533526522105E-007 F
     orb,it,eci,eold,eci-eold=                    2                   88 -0.81738627089813654      -0.81738623878339567       -3.2114740866617808E-008 F
     orb,it,eci,eold,eci-eold=                    2                   89 -0.81738628167231520      -0.81738627089813654       -1.0774178660355460E-008 F
     orb,it,eci,eold,eci-eold=                    2                   90 -0.81738637264266989      -0.81738628167231520       -9.0970354693631350E-008 F
     orb,it,eci,eold,eci-eold=                    2                   91 -0.81738641267178347      -0.81738637264266989       -4.0029113579365116E-008 F
     orb,it,eci,eold,eci-eold=                    2                   92 -0.81738642269816419      -0.81738641267178347       -1.0026380725669526E-008 F
     orb,it,eci,eold,eci-eold=                    2                   93 -0.81738649117832363      -0.81738642269816419       -6.8480159431949517E-008 F
     orb,it,eci,eold,eci-eold=                    2                   94 -0.81738652051375538      -0.81738649117832363       -2.9335431750432406E-008 F
     orb,it,eci,eold,eci-eold=                    2                   95 -0.81738653004757333      -0.81738652051375538       -9.5338179573190018E-009 F
     orb,it,eci,eold,eci-eold=                    2                   96 -0.81738658459007874      -0.81738653004757333       -5.4542505401045105E-008 F
     orb,it,eci,eold,eci-eold=                    2                   97 -0.81738660597518753      -0.81738658459007874       -2.1385108794902408E-008 F
     orb,it,eci,eold,eci-eold=                    2                   98 -0.81738661347880415      -0.81738660597518753       -7.5036166169439866E-009 F
     orb,it,eci,eold,eci-eold=                    2                   99 -0.81738665804747690      -0.81738661347880415       -4.4568672752376415E-008 F
     orb,it,eci,eold,eci-eold=                    2                  100 -0.81738667414825272      -0.81738665804747690       -1.6100775823701952E-008 F
     orb,it,eci,eold,eci-eold=                    2                  101 -0.81738667866895609      -0.81738667414825272       -4.5207033672056696E-009 F
     orb,it,eci,eold,eci-eold=                    2                  102 -0.81738671498324666      -0.81738667866895609       -3.6314290574601671E-008 F
     orb,it,eci,eold,eci-eold=                    2                  103 -0.81738673222559843      -0.81738671498324666       -1.7242351768587127E-008 F
     orb,it,eci,eold,eci-eold=                    2                  104 -0.81738673716901067      -0.81738673222559843       -4.9434122351144083E-009 F
     orb,it,eci,eold,eci-eold=                    2                  105 -0.81738676592940285      -0.81738673716901067       -2.8760392178917016E-008 F
     orb,it,eci,eold,eci-eold=                    2                  106 -0.81738677913614344      -0.81738676592940285       -1.3206740590021582E-008 F
     orb,it,eci,eold,eci-eold=                    2                  107 -0.81738678414081800      -0.81738677913614344       -5.0046745636578294E-009 F
     orb,it,eci,eold,eci-eold=                    2                  108 -0.81738680929843255      -0.81738678414081800       -2.5157614547133278E-008 F
     orb,it,eci,eold,eci-eold=                    2                  109 -0.81738682081269853      -0.81738680929843255       -1.1514265985113070E-008 F
     orb,it,eci,eold,eci-eold=                    2                  110 -0.81738682504341320      -0.81738682081269853       -4.2307146674858132E-009 F
     orb,it,eci,eold,eci-eold=                    2                  111 -0.81738684465358447      -0.81738682504341320       -1.9610171264616838E-008 F
     orb,it,eci,eold,eci-eold=                    2                  112 -0.81738685008819001      -0.81738684465358447       -5.4346055433640572E-009 F
     orb,it,eci,eold,eci-eold=                    2                  113 -0.81738685137751432      -0.81738685008819001       -1.2893243139799893E-009 F
     orb,it,eci,eold,eci-eold=                    2                  114 -0.81738686567753804      -0.81738685137751432       -1.4300023720714705E-008 F
     orb,it,eci,eold,eci-eold=                    2                  115 -0.81738687223919626      -0.81738686567753804       -6.5616582167749016E-009 F
     orb,it,eci,eold,eci-eold=                    2                  116 -0.81738687434064350      -0.81738687223919626       -2.1014472384450755E-009 F
     orb,it,eci,eold,eci-eold=                    2                  117 -0.81738688604271426      -0.81738687434064350       -1.1702070756847149E-008 F
     orb,it,eci,eold,eci-eold=                    2                  118 -0.81738689035714551      -0.81738688604271426       -4.3144312567022780E-009 F
     orb,it,eci,eold,eci-eold=                    2                  119 -0.81738689172866508      -0.81738689035714551       -1.3715195645858103E-009 F
     orb,it,eci,eold,eci-eold=                    2                  120 -0.81738690154773386      -0.81738689172866508       -9.8190687802812704E-009 F
     orb,it,eci,eold,eci-eold=                    2                  121 -0.81738690658796553      -0.81738690154773386       -5.0402316764674993E-009 F
     orbital   2 current e=  0.349719E+00 error=0.648E-01 (eci= -0.817386907E+00 error=0.504E-08) iterations 121(   0 preconditioned, Ep,Sp= 20.0  200.0)
     orb,it,eci,eold,eci-eold=                    2                    1 -0.81738690658796553      -0.81738690658796553        0.0000000000000000      F
     orbital   2 current e=  0.349714E+00 error=0.519E-05 (eci= -0.817386907E+00 error=0.000E+00) iterations   1(   0 preconditioned, Ep,Sp= 20.0  200.0)
     orb,it,eci,eold,eci-eold=                    2                    1 -0.81738694772881071      -0.81738690606989839       -4.1658912319775254E-008 F
     orb,it,eci,eold,eci-eold=                    2                    2 -0.81738695295185160      -0.81738694772881071       -5.2230408886799751E-009 F
     orb,it,eci,eold,eci-eold=                    2                    3 -0.81738695997309585      -0.81738695295185160       -7.0212442526695895E-009 F
     orb,it,eci,eold,eci-eold=                    2                    4 -0.81738696361267360      -0.81738695997309585       -3.6395777502917781E-009 F
     orb,it,eci,eold,eci-eold=                    2                    5 -0.81738696361267360      -0.81738696361267360        0.0000000000000000      F
     orbital   2 current e=  0.349706E+00 error=0.850E-05 (eci= -0.817386964E+00 error=0.000E+00) iterations   5(   0 preconditioned, Ep,Sp= 20.0  200.0)
     orb,it,eci,eold,eci-eold=                    3                    1 -0.81496300838120861      -0.81490962101510878       -5.3387366099832967E-005 F
     orb,it,eci,eold,eci-eold=                    3                    2 -0.81496470719702496      -0.81496300838120861       -1.6988158163533384E-006 F
     orb,it,eci,eold,eci-eold=                    3                    3 -0.81502386265537508      -0.81496470719702496       -5.9155458350113044E-005 F
     orb,it,eci,eold,eci-eold=                    3                    4 -0.81504234546863996      -0.81502386265537508       -1.8482813264886211E-005 F
     orb,it,eci,eold,eci-eold=                    3                    5 -0.81506614507867681      -0.81504234546863996       -2.3799610036845387E-005 F
     orb,it,eci,eold,eci-eold=                    3                    6 -0.81511647015561550      -0.81506614507867681       -5.0325076938695368E-005 F
     orb,it,eci,eold,eci-eold=                    3                    7 -0.81513947879371851      -0.81511647015561550       -2.3008638103005907E-005 F
     orb,it,eci,eold,eci-eold=                    3                    8 -0.81516612479147155      -0.81513947879371851       -2.6645997753038664E-005 F
     orb,it,eci,eold,eci-eold=                    3                    9 -0.81518538603487356      -0.81516612479147155       -1.9261243402013406E-005 F
     orb,it,eci,eold,eci-eold=                    3                   10 -0.81521612511632302      -0.81518538603487356       -3.0739081449460137E-005 F
     orb,it,eci,eold,eci-eold=                    3                   11 -0.81523171877898082      -0.81521612511632302       -1.5593662657797935E-005 F
     orb,it,eci,eold,eci-eold=                    3                   12 -0.81525092127987842      -0.81523171877898082       -1.9202500897597119E-005 F
     orb,it,eci,eold,eci-eold=                    3                   13 -0.81526258364867155      -0.81525092127987842       -1.1662368793130540E-005 F
     orb,it,eci,eold,eci-eold=                    3                   14 -0.81528153732505981      -0.81526258364867155       -1.8953676388266949E-005 F
     orb,it,eci,eold,eci-eold=                    3                   15 -0.81529213313193472      -0.81528153732505981       -1.0595806874902358E-005 F
     orb,it,eci,eold,eci-eold=                    3                   16 -0.81530571258396989      -0.81529213313193472       -1.3579452035172856E-005 F
     orb,it,eci,eold,eci-eold=                    3                   17 -0.81531332687238312      -0.81530571258396989       -7.6142884132268662E-006 F
     orb,it,eci,eold,eci-eold=                    3                   18 -0.81532497406288473      -0.81531332687238312       -1.1647190501617999E-005 F
     orb,it,eci,eold,eci-eold=                    3                   19 -0.81533152295307332      -0.81532497406288473       -6.5488901885846218E-006 F
     orb,it,eci,eold,eci-eold=                    3                   20 -0.81534072087001985      -0.81533152295307332       -9.1979169465350452E-006 F
     orb,it,eci,eold,eci-eold=                    3                   21 -0.81534089976376678      -0.81534072087001985       -1.7889374692714455E-007 F
     orb,it,eci,eold,eci-eold=                    3                   22 -0.81534264679521562      -0.81534089976376678       -1.7470314488399197E-006 F
     orb,it,eci,eold,eci-eold=                    3                   23 -0.81534998065882636      -0.81534264679521562       -7.3338636107367350E-006 F
     orb,it,eci,eold,eci-eold=                    3                   24 -0.81535040011211635      -0.81534998065882636       -4.1945328999037912E-007 F
     orb,it,eci,eold,eci-eold=                    3                   25 -0.81535098607295720      -0.81535040011211635       -5.8596084084872047E-007 F
     orb,it,eci,eold,eci-eold=                    3                   26 -0.81535727061003738      -0.81535098607295720       -6.2845370801811740E-006 F
     orb,it,eci,eold,eci-eold=                    3                   27 -0.81536066160770648      -0.81535727061003738       -3.3909976691059995E-006 F
     orb,it,eci,eold,eci-eold=                    3                   28 -0.81536397017891460      -0.81536066160770648       -3.3085712081160068E-006 F
     orb,it,eci,eold,eci-eold=                    3                   29 -0.81536565684757822      -0.81536397017891460       -1.6866686636252126E-006 F
     orb,it,eci,eold,eci-eold=                    3                   30 -0.81536881006978823      -0.81536565684757822       -3.1532222100061347E-006 F
     orb,it,eci,eold,eci-eold=                    3                   31 -0.81536914838922170      -0.81536881006978823       -3.3831943346829263E-007 F
     orb,it,eci,eold,eci-eold=                    3                   32 -0.81536957908259966      -0.81536914838922170       -4.3069337796186602E-007 F
     orb,it,eci,eold,eci-eold=                    3                   33 -0.81537218449668858      -0.81536957908259966       -2.6054140889186783E-006 F
     orb,it,eci,eold,eci-eold=                    3                   34 -0.81537307317178775      -0.81537218449668858       -8.8867509917545107E-007 F
     orb,it,eci,eold,eci-eold=                    3                   35 -0.81537330539858432      -0.81537307317178775       -2.3222679657042278E-007 F
     orb,it,eci,eold,eci-eold=                    3                   36 -0.81537515025971374      -0.81537330539858432       -1.8448611294186179E-006 F
     orb,it,eci,eold,eci-eold=                    3                   37 -0.81537583960554549      -0.81537515025971374       -6.8934583175028763E-007 F
     orb,it,eci,eold,eci-eold=                    3                   38 -0.81537606681747965      -0.81537583960554549       -2.2721193415620178E-007 F
     orb,it,eci,eold,eci-eold=                    3                   39 -0.81537758999670951      -0.81537606681747965       -1.5231792298564528E-006 F
     orb,it,eci,eold,eci-eold=                    3                   40 -0.81537829402924755      -0.81537758999670951       -7.0403253804585120E-007 F
     orb,it,eci,eold,eci-eold=                    3                   41 -0.81537860344792434      -0.81537829402924755       -3.0941867679157298E-007 F
     orb,it,eci,eold,eci-eold=                    3                   42 -0.81538006952977904      -0.81537860344792434       -1.4660818546952115E-006 F
     orb,it,eci,eold,eci-eold=                    3                   43 -0.81538061132675688      -0.81538006952977904       -5.4179697783762748E-007 F
     orb,it,eci,eold,eci-eold=                    3                   44 -0.81538076573026830      -0.81538061132675688       -1.5440351142093078E-007 F
     orb,it,eci,eold,eci-eold=                    3                   45 -0.81538186399230539      -0.81538076573026830       -1.0982620370914020E-006 F
     orb,it,eci,eold,eci-eold=                    3                   46 -0.81538235996739328      -0.81538186399230539       -4.9597508788856715E-007 F
     orb,it,eci,eold,eci-eold=                    3                   47 -0.81538253966341911      -0.81538235996739328       -1.7969602583711719E-007 F
     orb,it,eci,eold,eci-eold=                    3                   48 -0.81538340810694554      -0.81538253966341911       -8.6844352642501121E-007 F
     orb,it,eci,eold,eci-eold=                    3                   49 -0.81538368528028815      -0.81538340810694554       -2.7717334261101456E-007 F
     orb,it,eci,eold,eci-eold=                    3                   50 -0.81538379247619885      -0.81538368528028815       -1.0719591070351697E-007 F
     orb,it,eci,eold,eci-eold=                    3                   51 -0.81538446714441815      -0.81538379247619885       -6.7466821929151877E-007 F
     orb,it,eci,eold,eci-eold=                    3                   52 -0.81538472986759758      -0.81538446714441815       -2.6272317943387691E-007 F
     orb,it,eci,eold,eci-eold=                    3                   53 -0.81538484626163765      -0.81538472986759758       -1.1639404007279808E-007 F
     orb,it,eci,eold,eci-eold=                    3                   54 -0.81538544221945430      -0.81538484626163765       -5.9595781665144898E-007 F
     orb,it,eci,eold,eci-eold=                    3                   55 -0.81538558159786956      -0.81538544221945430       -1.3937841525368810E-007 F
     orb,it,eci,eold,eci-eold=                    3                   56 -0.81538560262861282      -0.81538558159786956       -2.1030743257988149E-008 F
     orb,it,eci,eold,eci-eold=                    3                   57 -0.81538606879237774      -0.81538560262861282       -4.6616376492281120E-007 F
     orb,it,eci,eold,eci-eold=                    3                   58 -0.81538630220693276      -0.81538606879237774       -2.3341455501757480E-007 F
     orb,it,eci,eold,eci-eold=                    3                   59 -0.81538635514492874      -0.81538630220693276       -5.2937995986823694E-008 F
     orb,it,eci,eold,eci-eold=                    3                   60 -0.81538672861212391      -0.81538635514492874       -3.7346719516939686E-007 F
     orb,it,eci,eold,eci-eold=                    3                   61 -0.81538690741469400      -0.81538672861212391       -1.7880257008329181E-007 F
     orb,it,eci,eold,eci-eold=                    3                   62 -0.81538697594781362      -0.81538690741469400       -6.8533119623737093E-008 F
     orb,it,eci,eold,eci-eold=                    3                   63 -0.81538731829031530      -0.81538697594781362       -3.4234250168019287E-007 F
     orb,it,eci,eold,eci-eold=                    3                   64 -0.81538744955009190      -0.81538731829031530       -1.3125977660344290E-007 F
     orb,it,eci,eold,eci-eold=                    3                   65 -0.81538749234820251      -0.81538744955009190       -4.2798110611030893E-008 F
     orb,it,eci,eold,eci-eold=                    3                   66 -0.81538776896148524      -0.81538749234820251       -2.7661328272365893E-007 F
     orb,it,eci,eold,eci-eold=                    3                   67 -0.81538784308387291      -0.81538776896148524       -7.4122387672126422E-008 F
     orb,it,eci,eold,eci-eold=                    3                   68 -0.81538784563931155      -0.81538784308387291       -2.5554386384740724E-009 F
     orb,it,eci,eold,eci-eold=                    3                   69 -0.81538803426189288      -0.81538784563931155       -1.8862258133189869E-007 F
     orb,it,eci,eold,eci-eold=                    3                   70 -0.81538814169736007      -0.81538803426189288       -1.0743546718927632E-007 F
     orb,it,eci,eold,eci-eold=                    3                   71 -0.81538818330369645      -0.81538814169736007       -4.1606336376176500E-008 F
     orb,it,eci,eold,eci-eold=                    3                   72 -0.81538837952035237      -0.81538818330369645       -1.9621665592328696E-007 F
     orb,it,eci,eold,eci-eold=                    3                   73 -0.81538845755810729      -0.81538837952035237       -7.8037754924764613E-008 F
     orb,it,eci,eold,eci-eold=                    3                   74 -0.81538848112693163      -0.81538845755810729       -2.3568824336628325E-008 F
     orb,it,eci,eold,eci-eold=                    3                   75 -0.81538864257527066      -0.81538848112693163       -1.6144833903108946E-007 F
     orb,it,eci,eold,eci-eold=                    3                   76 -0.81538870228312876      -0.81538864257527066       -5.9707858102164835E-008 F
     orb,it,eci,eold,eci-eold=                    3                   77 -0.81538871393854340      -0.81538870228312876       -1.1655414633437999E-008 F
     orb,it,eci,eold,eci-eold=                    3                   78 -0.81538883970408582      -0.81538871393854340       -1.2576554242471616E-007 F
     orb,it,eci,eold,eci-eold=                    3                   79 -0.81538889102272272      -0.81538883970408582       -5.1318636895558711E-008 F
     orb,it,eci,eold,eci-eold=                    3                   80 -0.81538890064177627      -0.81538889102272272       -9.6190535536777588E-009 F
     orb,it,eci,eold,eci-eold=                    3                   81 -0.81538899771429296      -0.81538890064177627       -9.7072516691554256E-008 F
     orb,it,eci,eold,eci-eold=                    3                   82 -0.81538904087546116      -0.81538899771429296       -4.3161168195027244E-008 F
     orb,it,eci,eold,eci-eold=                    3                   83 -0.81538905291782982      -0.81538904087546116       -1.2042368657816382E-008 F
     orb,it,eci,eold,eci-eold=                    3                   84 -0.81538913239161770      -0.81538905291782982       -7.9473787883976854E-008 F
     orb,it,eci,eold,eci-eold=                    3                   85 -0.81538916916779136      -0.81538913239161770       -3.6776173661934308E-008 F
     orb,it,eci,eold,eci-eold=                    3                   86 -0.81538918310649877      -0.81538916916779136       -1.3938707410510176E-008 F
     orb,it,eci,eold,eci-eold=                    3                   87 -0.81538925043625921      -0.81538918310649877       -6.7329760433665342E-008 F
     orb,it,eci,eold,eci-eold=                    3                   88 -0.81538927783435422      -0.81538925043625921       -2.7398095014952162E-008 F
     orb,it,eci,eold,eci-eold=                    3                   89 -0.81538928976730363      -0.81538927783435422       -1.1932949406379123E-008 F
     orb,it,eci,eold,eci-eold=                    3                   90 -0.81538934814820818      -0.81538928976730363       -5.8380904555122015E-008 F
     orb,it,eci,eold,eci-eold=                    3                   91 -0.81538936682029139      -0.81538934814820818       -1.8672083212933899E-008 F
     orb,it,eci,eold,eci-eold=                    3                   92 -0.81538937264556122      -0.81538936682029139       -5.8252698220684351E-009 F
     orb,it,eci,eold,eci-eold=                    3                   93 -0.81538941972833567      -0.81538937264556122       -4.7082774456974619E-008 F
     orb,it,eci,eold,eci-eold=                    3                   94 -0.81538943640436479      -0.81538941972833567       -1.6676029113149582E-008 F
     orb,it,eci,eold,eci-eold=                    3                   95 -0.81538943987884460      -0.81538943640436479       -3.4744798149688449E-009 F
     orb,it,eci,eold,eci-eold=                    3                   96 -0.81538947933373995      -0.81538943987884460       -3.9454895350843344E-008 F
     orb,it,eci,eold,eci-eold=                    3                   97 -0.81538949857092680      -0.81538947933373995       -1.9237186843490406E-008 F
     orb,it,eci,eold,eci-eold=                    3                   98 -0.81538950323478143      -0.81538949857092680       -4.6638546358224175E-009 F
     orb,it,eci,eold,eci-eold=                    3                   99 -0.81538953432935157      -0.81538950323478143       -3.1094570140943745E-008 F
     orb,it,eci,eold,eci-eold=                    3                  100 -0.81538954380752493      -0.81538953432935157       -9.4781733572801841E-009 F
     orb,it,eci,eold,eci-eold=                    3                  101 -0.81538954552996668      -0.81538954380752493       -1.7224417447891938E-009 F
     orb,it,eci,eold,eci-eold=                    3                  102 -0.81538957153160507      -0.81538954552996668       -2.6001638397943339E-008 F
     orb,it,eci,eold,eci-eold=                    3                  103 -0.81538958518425342      -0.81538957153160507       -1.3652648345185980E-008 F
     orb,it,eci,eold,eci-eold=                    3                  104 -0.81538958875346590      -0.81538958518425342       -3.5692124811248505E-009 F
     orb,it,eci,eold,eci-eold=                    3                  105 -0.81538960996167442      -0.81538958875346590       -2.1208208522693894E-008 F
     orb,it,eci,eold,eci-eold=                    3                  106 -0.81538961734555371      -0.81538960996167442       -7.3838792857827684E-009 F
     orb,it,eci,eold,eci-eold=                    3                  107 -0.81538961908465035      -0.81538961734555371       -1.7390966444708056E-009 F
     orb,it,eci,eold,eci-eold=                    3                  108 -0.81538963583236046      -0.81538961908465035       -1.6747710107622993E-008 F
     orb,it,eci,eold,eci-eold=                    3                  109 -0.81538964417682114      -0.81538963583236046       -8.3444606779892183E-009 F
     orb,it,eci,eold,eci-eold=                    3                  110 -0.81538964716898810      -0.81538964417682114       -2.9921669586485677E-009 F
     orb,it,eci,eold,eci-eold=                    3                  111 -0.81538966213571551      -0.81538964716898810       -1.4966727412968339E-008 F
     orb,it,eci,eold,eci-eold=                    3                  112 -0.81538966768677712      -0.81538966213571551       -5.5510616103759958E-009 F
     orb,it,eci,eold,eci-eold=                    3                  113 -0.81538966958913361      -0.81538966768677712       -1.9023564945541693E-009 F
     orb,it,eci,eold,eci-eold=                    3                  114 -0.81538968266514877      -0.81538966958913361       -1.3076015159541043E-008 F
     orb,it,eci,eold,eci-eold=                    3                  115 -0.81538968829984837      -0.81538968266514877       -5.6346995958023172E-009 F
     orb,it,eci,eold,eci-eold=                    3                  116 -0.81538968989059679      -0.81538968829984837       -1.5907484218757872E-009 F
     orb,it,eci,eold,eci-eold=                    3                  117 -0.81538970075242978      -0.81538968989059679       -1.0861832988595665E-008 F
     orb,it,eci,eold,eci-eold=                    3                  118 -0.81538970489389517      -0.81538970075242978       -4.1414653928484313E-009 F
     orb,it,eci,eold,eci-eold=                    3                  119 -0.81538970579048486      -0.81538970489389517       -8.9658969137929034E-010 F
     orbital   3 current e=  0.383351E+00 error=0.120E+00 (eci= -0.815389706E+00 error=0.897E-09) iterations 119(   0 preconditioned, Ep,Sp= 20.0  200.0)
     orb,it,eci,eold,eci-eold=                    3                    1 -0.81538973018618277      -0.81538970579048486       -2.4395697906243186E-008 F
     orb,it,eci,eold,eci-eold=                    3                    2 -0.81538973922253088      -0.81538973018618277       -9.0363481142219371E-009 F
     orb,it,eci,eold,eci-eold=                    3                    3 -0.81538974387706831      -0.81538973922253088       -4.6545374221551583E-009 F
     orb,it,eci,eold,eci-eold=                    3                    4 -0.81538975430925564      -0.81538974387706831       -1.0432187336206766E-008 F
     orb,it,eci,eold,eci-eold=                    3                    5 -0.81538975529119995      -0.81538975430925564       -9.8194430364628715E-010 F
     orbital   3 current e=  0.383448E+00 error=0.971E-04 (eci= -0.815389755E+00 error=0.982E-09) iterations   5(   0 preconditioned, Ep,Sp= 20.0  200.0)
     orb,it,eci,eold,eci-eold=                    3                    1 -0.81538976746099667      -0.81538975529119995       -1.2169796725913784E-008 F
     orb,it,eci,eold,eci-eold=                    3                    2 -0.81538976992556700      -0.81538976746099667       -2.4645703255998797E-009 F
     orb,it,eci,eold,eci-eold=                    3                    3 -0.81538977163337001      -0.81538976992556700       -1.7078030101203012E-009 F
     orb,it,eci,eold,eci-eold=                    3                    4 -0.81538977163337001      -0.81538977163337001        0.0000000000000000      F
     orbital   3 current e=  0.383469E+00 error=0.213E-04 (eci= -0.815389772E+00 error=0.000E+00) iterations   4(   0 preconditioned, Ep,Sp= 20.0  200.0)
     orb,it,eci,eold,eci-eold=                    4                    1 -0.81469318069300933      -0.81461133864488355       -8.1842048125779776E-005 F
     orb,it,eci,eold,eci-eold=                    4                    2 -0.81470175632148867      -0.81469318069300933       -8.5756284793347959E-006 F
     orb,it,eci,eold,eci-eold=                    4                    3 -0.81473218683919191      -0.81470175632148867       -3.0430517703239346E-005 F
     orb,it,eci,eold,eci-eold=                    4                    4 -0.81474193674518758      -0.81473218683919191       -9.7499059956707157E-006 F
     orb,it,eci,eold,eci-eold=                    4                    5 -0.81475359035579564      -0.81474193674518758       -1.1653610608064469E-005 F
     orb,it,eci,eold,eci-eold=                    4                    6 -0.81477429879284347      -0.81475359035579564       -2.0708437047822770E-005 F
     orb,it,eci,eold,eci-eold=                    4                    7 -0.81477700201844949      -0.81477429879284347       -2.7032256060266491E-006 F
     orb,it,eci,eold,eci-eold=                    4                    8 -0.81478513301747579      -0.81477700201844949       -8.1309990263012111E-006 F
     orb,it,eci,eold,eci-eold=                    4                    9 -0.81480540893414444      -0.81478513301747579       -2.0275916668643923E-005 F
     orb,it,eci,eold,eci-eold=                    4                   10 -0.81480999596670323      -0.81480540893414444       -4.5870325587893390E-006 F
     orb,it,eci,eold,eci-eold=                    4                   11 -0.81481655710640100      -0.81480999596670323       -6.5611396977693914E-006 F
     orb,it,eci,eold,eci-eold=                    4                   12 -0.81483354622818527      -0.81481655710640100       -1.6989121784272143E-005 F
     orb,it,eci,eold,eci-eold=                    4                   13 -0.81483965722182705      -0.81483354622818527       -6.1109936417835797E-006 F
     orb,it,eci,eold,eci-eold=                    4                   14 -0.81484558302645183      -0.81483965722182705       -5.9258046247734342E-006 F
     orb,it,eci,eold,eci-eold=                    4                   15 -0.81485899379191662      -0.81484558302645183       -1.3410765464794139E-005 F
     orb,it,eci,eold,eci-eold=                    4                   16 -0.81486304948373034      -0.81485899379191662       -4.0556918137202302E-006 F
     orb,it,eci,eold,eci-eold=                    4                   17 -0.81486697581253353      -0.81486304948373034       -3.9263288031943233E-006 F
     orb,it,eci,eold,eci-eold=                    4                   18 -0.81487658422319087      -0.81486697581253353       -9.6084106573357531E-006 F
     orb,it,eci,eold,eci-eold=                    4                   19 -0.81487760544164511      -0.81487658422319087       -1.0212184542446323E-006 F
     orb,it,eci,eold,eci-eold=                    4                   20 -0.81487913663920164      -0.81487760544164511       -1.5311975565257541E-006 F
     orb,it,eci,eold,eci-eold=                    4                   21 -0.81488526758871582      -0.81487913663920164       -6.1309495141825820E-006 F
     orb,it,eci,eold,eci-eold=                    4                   22 -0.81488675335517091      -0.81488526758871582       -1.4857664550893546E-006 F
     orb,it,eci,eold,eci-eold=                    4                   23 -0.81488804761569977      -0.81488675335517091       -1.2942605288612796E-006 F
     orb,it,eci,eold,eci-eold=                    4                   24 -0.81489215926178304      -0.81488804761569977       -4.1116460832713031E-006 F
     orb,it,eci,eold,eci-eold=                    4                   25 -0.81489321558208883      -0.81489215926178304       -1.0563203057811776E-006 F
     orb,it,eci,eold,eci-eold=                    4                   26 -0.81489430338809465      -0.81489321558208883       -1.0878060058283623E-006 F
     orb,it,eci,eold,eci-eold=                    4                   27 -0.81489771415793832      -0.81489430338809465       -3.4107698436702805E-006 F
     orb,it,eci,eold,eci-eold=                    4                   28 -0.81489855835366565      -0.81489771415793832       -8.4419572732308268E-007 F
     orb,it,eci,eold,eci-eold=                    4                   29 -0.81489920270728511      -0.81489855835366565       -6.4435361946113545E-007 F
     orb,it,eci,eold,eci-eold=                    4                   30 -0.81490181941188067      -0.81489920270728511       -2.6167045955594048E-006 F
     orb,it,eci,eold,eci-eold=                    4                   31 -0.81490271086541655      -0.81490181941188067       -8.9145353587838372E-007 F
     orb,it,eci,eold,eci-eold=                    4                   32 -0.81490324174806716      -0.81490271086541655       -5.3088265061784767E-007 F
     orb,it,eci,eold,eci-eold=                    4                   33 -0.81490517089143588      -0.81490324174806716       -1.9291433687174120E-006 F
     orb,it,eci,eold,eci-eold=                    4                   34 -0.81490569890559006      -0.81490517089143588       -5.2801415417746966E-007 F
[...]
    8    5    8    8       -0.0000497281
    8    5    9    8        0.0000075108
    8    5   10    8       -0.0000000734
    8    5   11    8        0.0268899936
    8    5    9    9       -0.0000425328
    8    5   10    9       -0.0000000147
    8    5   11    9        0.0130685791
    8    5   10   10       -0.0000579849
    8    5   11   10       -0.0005229587
    8    5   11   11        0.0000418215
    9    5    9    5        0.1257153343
    9    5   10    5       -0.0000000131
    9    5   11    5        0.0000043517
    9    5    6    6       -0.0001766425
    9    5    7    6       -0.0000294430
    9    5    8    6       -0.1015095317
    9    5    9    6       -0.0587625127
    9    5   10    6        0.0000003879
    9    5   11    6       -0.0000333265
    9    5    7    7       -0.0008531839
    9    5    8    7       -0.0000003993
    9    5    9    7       -0.0000001866
    9    5   10    7        0.0001611076
    9    5   11    7       -0.0000939148
    9    5    8    8        0.0000822511
    9    5    9    8       -0.0000038889
    9    5   10    8        0.0000001258
    9    5   11    8       -0.0483049878
    9    5    9    9        0.0000960736
    9    5   10    9        0.0000000587
    9    5   11    9       -0.0346138030
    9    5   10   10        0.0001120881
    9    5   11   10        0.0010109693
    9    5   11   11       -0.0000837355
   10    5   10    5        0.0155041907
   10    5   11    5       -0.0000001210
   10    5    6    6       -0.0000000020
   10    5    7    6        0.0000000001
   10    5    8    6       -0.0000000204
   10    5    9    6        0.0000000796
   10    5   10    6       -0.0000000006
   10    5   11    6       -0.0000000027
   10    5    7    7       -0.0000000027
   10    5    8    7       -0.0000074379
   10    5    9    7        0.0000143752
   10    5   10    7        0.0000000004
   10    5   11    7        0.0002328879
   10    5    8    8       -0.0000000150
   10    5    9    8        0.0000000096
   10    5   10    8       -0.0000089858
   10    5   11    8       -0.0000503785
   10    5    9    9        0.0000000074
   10    5   10    9        0.0000173699
   10    5   11    9        0.0000977592
   10    5   10   10       -0.0000000038
   10    5   11   10        0.0001471539
   10    5   11   11       -0.0000000428
   11    5   11    5        0.0062299176
   11    5    6    6       -0.0029143911
   11    5    7    6        0.0000000016
   11    5    8    6       -0.0000023555
   11    5    9    6       -0.0000032614
   11    5   10    6        0.0000000027
   11    5   11    6       -0.0038812220
   11    5    7    7       -0.0047795128
   11    5    8    7        0.0000007017
   11    5    9    7       -0.0000011705
   11    5   10    7       -0.0003345107
   11    5   11    7        0.0000000080
   11    5    8    8       -0.0011503223
   11    5    9    8       -0.0018617964
   11    5   10    8       -0.0000379721
   11    5   11    8       -0.0000003051
   11    5    9    9       -0.0075888883
   11    5   10    9        0.0000735061
   11    5   11    9       -0.0000040001
   11    5   10   10       -0.0039603927
   11    5   11   10       -0.0000000737
   11    5   11   11       -0.0037671872
    6    6    6    6        0.2993723090
    6    6    7    6        0.0000001732
    6    6    8    6        0.0002093721
    6    6    9    6        0.0001083703
    6    6   10    6       -0.0000000285
    6    6   11    6        0.0339317855
    6    6    7    7        0.2782264576
    6    6    8    7        0.0000058794
    6    6    9    7        0.0000029541
    6    6   10    7       -0.0027867074
    6    6   11    7       -0.0000010984
    6    6    8    8        0.3059487525
    6    6    9    8        0.0103423140
    6    6   10    8        0.0000005889
    6    6   11    8        0.0000519492
    6    6    9    9        0.2916378543
    6    6   10    9        0.0000002532
    6    6   11    9        0.0000328258
    6    6   10   10        0.3034866663
    6    6   11   10       -0.0000005090
    6    6   11   11        0.3003217216
    7    6    7    6        0.0122838782
    7    6    8    6        0.0000321687
    7    6    9    6        0.0000166219
    7    6   10    6        0.0007040309
    7    6   11    6       -0.0000002588
    7    6    7    7        0.0000003377
    7    6    8    7        0.0000899014
    7    6    9    7        0.0000465096
    7    6   10    7       -0.0000000529
    7    6   11    7        0.0047437380
    7    6    8    8        0.0000001410
    7    6    9    8        0.0000000371
    7    6   10    8       -0.0000089298
    7    6   11    8        0.0000115430
    7    6    9    9        0.0000000805
    7    6   10    9       -0.0000046202
    7    6   11    9        0.0000079284
    7    6   10   10        0.0000000716
    7    6   11   10       -0.0024862215
    7    6   11   11       -0.0000000140
    8    6    8    6        0.1256724191
    8    6    9    6        0.0587598090
    8    6   10    6       -0.0000003223
    8    6   11    6        0.0000366695
    8    6    7    7        0.0008529832
    8    6    8    7        0.0000004464
    8    6    9    7        0.0000001910
    8    6   10    7       -0.0001610800
    8    6   11    7        0.0000947006
    8    6    8    8       -0.0000961730
    8    6    9    8       -0.0000038714
    8    6   10    8       -0.0000001452
    8    6   11    8        0.0574932065
    8    6    9    9       -0.0000822638
    8    6   10    9       -0.0000000609
    8    6   11    9        0.0337779938
    8    6   10   10       -0.0001121416
    8    6   11   10       -0.0010115397
    8    6   11   11        0.0000942001
    9    6    9    6        0.0428006603
    9    6   10    6       -0.0000001815
    9    6   11    6        0.0000191776
    9    6    7    7        0.0004412617
    9    6    8    7        0.0000002268
    9    6    9    7        0.0000000991
    9    6   10    7       -0.0000833267
    9    6   11    7        0.0000491064
    9    6    8    8       -0.0000425625
    9    6    9    8       -0.0000075026
    9    6   10    8       -0.0000000725
    9    6   11    8        0.0278406725
    9    6    9    9       -0.0000497226
    9    6   10    9       -0.0000000335
    9    6   11    9        0.0223099426
    9    6   10   10       -0.0000580064
    9    6   11   10       -0.0005233322
    9    6   11   11        0.0000502259
   10    6   10    6        0.0155006754
   10    6   11    6       -0.0000001427
   10    6    7    7       -0.0000000352
   10    6    8    7       -0.0000143782
   10    6    9    7       -0.0000074375
   10    6   10    7        0.0000000049
   10    6   11    7       -0.0024108052
   10    6    8    8       -0.0000000550
   10    6    9    8       -0.0000000118
   10    6   10    8       -0.0000173876
   10    6   11    8       -0.0000978969
   10    6    9    9       -0.0000000355
   10    6   10    9       -0.0000089945
   10    6   11    9       -0.0000506324
   10    6   10   10       -0.0000000442
   10    6   11   10       -0.0015131614
   10    6   11   11        0.0000003594
   11    6   11    6        0.0457823605
   11    6    7    7        0.0494428076
   11    6    8    7        0.0000017138
   11    6    9    7        0.0000008882
   11    6   10    7        0.0034534453
   11    6   11    7       -0.0000000829
   11    6    8    8        0.0470658406
   11    6    9    8        0.0032967251
   11    6   10    8       -0.0000757942
   11    6   11    8        0.0000213602
   11    6    9    9        0.0433412997
   11    6   10    9       -0.0000394795
   11    6   11    9        0.0000134316
   11    6   10   10        0.0409824900
   11    6   11   10        0.0000007118
   11    6   11   11        0.0391947654
    7    7    7    7        0.3139709136
    7    7    8    7        0.0000006710
    7    7    9    7        0.0000002767
    7    7   10    7       -0.0019395757
    7    7   11    7        0.0000003605
    7    7    8    8        0.2944417982
    7    7    9    8        0.0000000001
    7    7   10    8        0.0000001255
    7    7   11    8        0.0003929855
    7    7    9    9        0.2944476416
    7    7   10    9        0.0000000544
    7    7   11    9        0.0002539963
    7    7   10   10        0.3103882666
    7    7   11   10       -0.0000071446
    7    7   11   11        0.2885170417
    8    7    8    7        0.0144659882
    8    7    9    7        0.0000000001
    8    7   10    7       -0.0000001314
    8    7   11    7        0.0000263519
    8    7    8    8        0.0000009622
    8    7    9    8        0.0000000611
    8    7   10    8        0.0006242516
    8    7   11    8       -0.0000000179
    8    7    9    9        0.0000007912
    8    7   10    9        0.0000000014
    8    7   11    9        0.0000001336
    8    7   10   10        0.0000008625
    8    7   11   10       -0.0000137564
    8    7   11   11        0.0000234674
    9    7    9    7        0.0144665528
    9    7   10    7       -0.0000000542
    9    7   11    7        0.0000170340
    9    7    8    8        0.0000003574
    9    7    9    8        0.0000000723
    9    7   10    8       -0.0000000015
    9    7   11    8        0.0000000929
    9    7    9    9        0.0000003672
    9    7   10    9        0.0006238216
    9    7   11    9       -0.0000001719
    9    7   10   10        0.0000003554
    9    7   11   10       -0.0000088913
    9    7   11   11        0.0000148922
   10    7   10    7        0.0153971158
   10    7   11    7       -0.0000009973
   10    7    8    8       -0.0019974498
   10    7    9    8       -0.0000000000
   10    7   10    8       -0.0000000470
   10    7   11    8       -0.0000825213
   10    7    9    9       -0.0019969021
   10    7   10    9       -0.0000000201
   10    7   11    9       -0.0000533435
   10    7   10   10       -0.0037081408
   10    7   11   10        0.0000017115
   10    7   11   11        0.0028893054
   11    7   11    7        0.0101026279
   11    7    8    8       -0.0000013431
   11    7    9    8        0.0000000146
   11    7   10    8       -0.0000162962
   11    7   11    8        0.0000785514
   11    7    9    9       -0.0000013624
   11    7   10    9       -0.0000105271
   11    7   11    9        0.0000507017
   11    7   10   10       -0.0000013499
   11    7   11   10        0.0073002784
   11    7   11   11       -0.0000012672
    8    8    8    8        0.3280987211
    8    8    9    8       -0.0000007987
    8    8   10    8        0.0000004946
    8    8   11    8       -0.0000891142
    8    8    9    9        0.3003543511
    8    8   10    9        0.0000001817
    8    8   11    9       -0.0000504323
    8    8   10   10        0.3162894443
    8    8   11   10        0.0000022502
    8    8   11   11        0.3062275733
    9    8    9    8        0.0145017397
    9    8   10    8        0.0000000476
    9    8   11    8       -0.0000036811
    9    8    9    9        0.0000007965
    9    8   10    9        0.0000000536
    9    8   11    9       -0.0000057650
    9    8   10   10       -0.0000000000
    9    8   11   10       -0.0000000034
    9    8   11   11        0.0091805557
   10    8   10    8        0.0169177253
   10    8   11    8        0.0000000832
   10    8    9    9        0.0000003731
   10    8   10    9        0.0000000000
   10    8   11    9       -0.0000000399
   10    8   10   10        0.0000005537
   10    8   11   10        0.0000057776
   10    8   11   11       -0.0002197679
   11    8   11    8        0.0441805929
   11    8    9    9       -0.0000780199
   11    8   10    9       -0.0000000257
   11    8   11    9        0.0248164697
   11    8   10   10       -0.0000950356
   11    8   11   10       -0.0006223329
   11    8   11   11       -0.0000013608
    9    9    9    9        0.3281116323
    9    9   10    9        0.0000001842
    9    9   11    9       -0.0000576797
    9    9   10   10        0.3162928414
    9    9   11   10        0.0000022545
    9    9   11   11        0.2981297008
   10    9   10    9        0.0169153997
   10    9   11    9        0.0000001288
   10    9   10   10        0.0000002301
   10    9   11   10        0.0000037297
   10    9   11   11       -0.0001422629
   11    9   11    9        0.0218968056
   11    9   10   10       -0.0000614728
   11    9   11   10       -0.0004023761
   11    9   11   11       -0.0000009563
   10   10   10   10        0.3609355815
   10   10   11   10        0.0000032458
   10   10   11   11        0.3230389275
   11   10   11   10        0.0210841581
   11   10   11   11        0.0000006486
   11   11   11   11        0.3246024680
 end_two_electron_integrals


 output epsi filename:./pspw_hf_H2.emovecs

 Total PSPW energy     :  -0.8130491716E+00


=== Spin Contamination ===

 <Sexact^2> =    0.0000000000000000     
 <S^2>      =    0.0000000000000000     



== Center of Charge ==

spin up     (    0.0000,    0.0000,    0.0013 )
spin down   (    0.0000,    0.0000,    0.0013 )
     total  (    0.0000,    0.0000,    0.0013 )
ionic       (    0.0000,    0.0000,    0.0000 )


== Molecular Dipole wrt Center of Mass ==

mu   =  (   -0.0000,   -0.0000,   -0.0025 ) au
|mu| =     0.0025 au,       0.0065 Debye

 output psi filename:./pspw_hf_H2.movecs

 Writing Crystallographic Information File:./H2.cif
   - cell not shifted (nwpw:cif_shift_cell .false.)


== Timing ==

cputime in seconds
  prologue    :   0.593121E+01
  main loop   :   0.318815E+03
  epilogue    :   0.169165E-01
  total       :   0.324763E+03
  cputime/step:   0.229363E+01       (     139 evalulations,      58 linesearches)


Time spent doing                        total          step       percent
  total time                 :   0.324773E+03  0.233650E+01       100.0 %
  i/o time                   :   0.259827E+00  0.186926E-02         0.1 %
  FFTs                       :   0.227660E+03  0.163784E+01        70.1 %
  dot products               :   0.815588E+01  0.586754E-01         2.5 %
  geodesic                   :   0.526585E-01  0.378838E-03         0.0 %
  ffm_dgemm                  :   0.712732E-02  0.512757E-04         0.0 %
  fmf_dgemm                  :   0.657647E-02  0.473128E-04         0.0 %
  mmm_dgemm                  :   0.240060E-02  0.172705E-04         0.0 %
  m_diagonalize              :   0.120257E-02  0.865159E-05         0.0 %
  local pseudopotentials     :   0.502753E+01  0.361693E-01         1.5 %
  non-local pseudopotentials :   0.758115E+01  0.545406E-01         2.3 %
  structure factors          :   0.502416E+00  0.361451E-02         0.2 %
  phase factors              :   0.591100E-05  0.425252E-07         0.0 %
  masking and packing        :   0.543821E+01  0.391238E-01         1.7 %
  queue fft                  :   0.694007E+01  0.499286E-01         2.1 %
  queue fft (serial)         :   0.258842E+01  0.186217E-01         0.8 %
  queue fft (message passing):   0.431859E+01  0.310690E-01         1.3 %
  HFX potential              :   0.320524E+01  0.230593E-01         1.0 %
  non-local psp FFM          :   0.717541E+01  0.516217E-01         2.2 %
  non-local psp FMF          :   0.890291E-01  0.640497E-03         0.0 %
  non-local psp FFM A        :   0.372842E-01  0.268232E-03         0.0 %
  non-local psp FFM B        :   0.120925E+00  0.869964E-03         0.0 %

== HFX Counters ==
  HFX Evalulations         =   139
  Lin ACE HFX Evalulations =     0


     >>>  JOB COMPLETED     AT Mon Apr 14 16:00:06 2025  <<<

 Task  times  cpu:      301.6s     wall:      324.8s


                                NWChem Input Module
                                -------------------


 Summary of allocated global arrays
-----------------------------------
  No active global arrays


MA_summarize_allocated_blocks: starting scan ...
MA_summarize_allocated_blocks: scan completed: 0 heap blocks, 0 stack blocks
MA usage statistics:

	allocation statistics:
					      heap	     stack
					      ----	     -----
	current number of blocks	         0	         0
	maximum number of blocks	       313	        36
	current total bytes		         0	         0
	maximum total bytes		  16366088	   5334712
	maximum total K-bytes		     16367	      5335
	maximum total M-bytes		        17	         6


                                     CITATION
                                     --------
                Please cite the following reference when publishing
                           results obtained with NWChem:

          E. Apra, E. J. Bylaska, W. A. de Jong, N. Govind, K. Kowalski,
       T. P. Straatsma, M. Valiev, H. J. J. van Dam, Y. Alexeev, J. Anchell,
       V. Anisimov, F. W. Aquino, R. Atta-Fynn, J. Autschbach, N. P. Bauman,
     J. C. Becca, D. E. Bernholdt, K. Bhaskaran-Nair, S. Bogatko, P. Borowski,
         J. Boschen, J. Brabec, A. Bruner, E. Cauet, Y. Chen, G. N. Chuev,
      C. J. Cramer, J. Daily, M. J. O. Deegan, T. H. Dunning Jr., M. Dupuis,
   K. G. Dyall, G. I. Fann, S. A. Fischer, A. Fonari, H. Fruchtl, L. Gagliardi,
      J. Garza, N. Gawande, S. Ghosh, K. Glaesemann, A. W. Gotz, J. Hammond,
       V. Helms, E. D. Hermes, K. Hirao, S. Hirata, M. Jacquelin, L. Jensen,
   B. G. Johnson, H. Jonsson, R. A. Kendall, M. Klemm, R. Kobayashi, V. Konkov,
      S. Krishnamoorthy, M. Krishnan, Z. Lin, R. D. Lins, R. J. Littlefield,
      A. J. Logsdail, K. Lopata, W. Ma, A. V. Marenich, J. Martin del Campo,
   D. Mejia-Rodriguez, J. E. Moore, J. M. Mullin, T. Nakajima, D. R. Nascimento,
    J. A. Nichols, P. J. Nichols, J. Nieplocha, A. Otero-de-la-Roza, B. Palmer,
    A. Panyala, T. Pirojsirikul, B. Peng, R. Peverati, J. Pittner, L. Pollack,
   R. M. Richard, P. Sadayappan, G. C. Schatz, W. A. Shelton, D. W. Silverstein,
   D. M. A. Smith, T. A. Soares, D. Song, M. Swart, H. L. Taylor, G. S. Thomas,
            V. Tipparaju, D. G. Truhlar, K. Tsemekhman, T. Van Voorhis,
      A. Vazquez-Mayagoitia, P. Verma, O. Villa, A. Vishnu, K. D. Vogiatzis,
        D. Wang, J. H. Weare, M. J. Williamson, T. L. Windus, K. Wolinski,
        A. T. Wong, Q. Wu, C. Yang, Q. Yu, M. Zacharias, Z. Zhang, Y. Zhao,
                                and R. J. Harrison
                        "NWChem: Past, present, and future
                         J. Chem. Phys. 152, 184102 (2020)
                               doi:10.1063/5.0004997

                                      AUTHORS
                                      -------
  E. Apra, E. J. Bylaska, N. Govind, K. Kowalski, M. Valiev, D. Mejia-Rodriguez,
       A. Kunitsa, N. P. Bauman, A. Panyala, W. A. de Jong, T. P. Straatsma,
   H. J. J. van Dam, D. Wang, T. L. Windus, J. Hammond, J. Autschbach, A. Woods,
    K. Bhaskaran-Nair, J. Brabec, K. Lopata, S. A. Fischer, S. Krishnamoorthy,
     M. Jacquelin, W. Ma, M. Klemm, O. Villa, Y. Chen, V. Anisimov, F. Aquino,
     S. Hirata, M. T. Hackler, E. Hermes, L. Jensen, J. E. Moore, J. C. Becca,
      V. Konjkov, T. Risthaus, M. Malagoli, A. Marenich, A. Otero-de-la-Roza,
        J. Mullin, P. Nichols, R. Peverati, J. Pittner, Y. Zhao, P.-D. Fan,
        A. Fonari, M. J. Williamson, R. J. Harrison, J. R. Rehr, M. Dupuis,
     D. Silverstein, D. M. A. Smith, J. Nieplocha, V. Tipparaju, M. Krishnan,
     B. E. Van Kuiken, A. Vazquez-Mayagoitia, M. Swart, Q. Wu, T. Van Voorhis,
     A. A. Auer, M. Nooijen, L. D. Crosby, E. Brown, G. Cisneros, G. I. Fann,
   H. Fruchtl, J. Garza, K. Hirao, R. A. Kendall, J. A. Nichols, K. Tsemekhman,
    K. Wolinski, J. Anchell, D. E. Bernholdt, P. Borowski, T. Clark, D. Clerc,
   H. Dachsel, M. J. O. Deegan, K. Dyall, D. Elwood, E. Glendening, M. Gutowski,
   A. C. Hess, J. Jaffe, B. G. Johnson, J. Ju, R. Kobayashi, R. Kutteh, Z. Lin,
   R. Littlefield, X. Long, B. Meng, T. Nakajima, S. Niu, L. Pollack, M. Rosing,
   K. Glaesemann, G. Sandrone, M. Stave, H. Taylor, G. Thomas, J. H. van Lenthe,
                               A. T. Wong, Z. Zhang.

 Total times  cpu:      301.6s     wall:      324.8s
