 argument  1 = H2-3.0.nw



============================== echo of input deck ==============================
title "swnc: e theory=pspw4 xc=hf formula=H2 charge=0 mult=1"
#machinejob:expert

echo

start pspw_hf_H2

memory heap 1200 mb stack 1200 mb global 10 mb

charge 0

geometry
H    0.00000    0.00000   -1.50000
H    0.00000    0.00000    1.50000
end

nwpw
  ### pseudopotential block begin ###
  ### pseudopotential block end   ###
  simulation_cell
     SC 15.0000
     boundary_conditions aperiodic
  end

  cutoff 50.0
  mult 1
  xc hf
  lmbfgs
  tolerances 1.0e-9 1.0e-9

  virtual 10
end
set nwpw:cif_filename H2

#set nwpw:CI_maxit_orb 15
#set nwpw:CI_maxit_linesearch 15
set pspw:HFX_screening_radius 14.0


set nwpw:2qintegrals .true.
set nwpw:3x3_virtual .true.

task pspw energy

================================================================================


                                         
                                         


             Northwest Computational Chemistry Package (NWChem) 7.2.3
             --------------------------------------------------------


                    Environmental Molecular Sciences Laboratory
                       Pacific Northwest National Laboratory
                                Richland, WA 99352

                              Copyright (c) 1994-2022
                       Pacific Northwest National Laboratory
                            Battelle Memorial Institute

             NWChem is an open-source computational chemistry package
                        distributed under the terms of the
                      Educational Community License (ECL) 2.0
             A copy of the license is included with this distribution
                              in the LICENSE.TXT file

                                  ACKNOWLEDGMENT
                                  --------------

            This software and its documentation were developed at the
            EMSL at Pacific Northwest National Laboratory, a multiprogram
            national laboratory, operated for the U.S. Department of Energy
            by Battelle under Contract Number DE-AC05-76RL01830. Support
            for this work was provided by the Department of Energy Office
            of Biological and Environmental Research, Office of Basic
            Energy Sciences, and the Office of Advanced Scientific Computing.


           Job information
           ---------------

    hostname        = mqs-al
    program         = nwchem
    date            = Mon Apr 14 15:49:19 2025

    compiled        = Thu_Oct_31_08:55:15_2024
    source          = /home/conda/feedstock_root/build_artifacts/nwchem_1730356057992/work
    nwchem branch   = 7.2.3
    nwchem revision = c400b04
    ga revision     = 5.8.0
    use scalapack   = T
    input           = H2-3.0.nw
    prefix          = pspw_hf_H2.
    data base       = ./pspw_hf_H2.db
    status          = startup
    nproc           =       24
    time left       =     -1s



           Memory information
           ------------------

    heap     =  157286396 doubles =   1200.0 Mbytes
    stack    =  157286401 doubles =   1200.0 Mbytes
    global   =    1310720 doubles =     10.0 Mbytes (distinct from heap & stack)
    total    =  315883517 doubles =   2410.0 Mbytes
    verify   = yes
    hardfail = no 


           Directory information
           ---------------------

  0 permanent = .
  0 scratch   = .




                                NWChem Input Module
                                -------------------


               swnc: e theory=pspw4 xc=hf formula=H2 charge=0 mult=1
               -----------------------------------------------------

 Scaling coordinates for geometry "geometry" by  1.889725989
 (inverse scale =  0.529177249)

  zeroes
  zeroes
  zeroes
  zeroes
  zeroes
  zeroes
  zeroes
  zeroes
  zeroes
  zeroes
  zeroes
  zeroes
  zeroes
  zeroes
  zeroes
  zeroes
  zeroes
  zeroes
  zeroes
  zeroes
  zeroes
  zeroes
  zeroes
  zeroes
  zeroes
  zeroes
  zeroes
  zeroes
  zeroes
  zeroes
  zeroes
  zeroes
  zeroes
  zeroes
  zeroes
  zeroes
  zeroes
  zeroes
  zeroes
  zeroes
  zeroes
  zeroes
  zeroes
  zeroes
  zeroes
  zeroes
  zeroes
  zeroes
 ORDER OF PRIMARY AXIS IS BEING SET TO 4
 D4H symmetry detected

          ------
          auto-z
          ------
     1 autoz failed with cvr_scaling = 1.2 changing to 1.3
     2 autoz failed with cvr_scaling = 1.3 changing to 1.4
     3 autoz failed with cvr_scaling = 1.4 changing to 1.5
     4 autoz failed with cvr_scaling = 1.5 changing to 1.6
     5 autoz failed with cvr_scaling = 1.6 changing to 1.7

 AUTOZ failed to generate good internal coordinates.
 Cartesian coordinates will be used in optimizations.



                             Geometry "geometry" -> ""
                             -------------------------

 Output coordinates in angstroms (scale by  1.889725989 to convert to a.u.)

  No.       Tag          Charge          X              Y              Z
 ---- ---------------- ---------- -------------- -------------- --------------
    1 H                    1.0000     0.00000000     0.00000000    -1.50000000
    2 H                    1.0000     0.00000000     0.00000000     1.50000000

      Atomic Mass 
      ----------- 

      H                  1.007825


 Effective nuclear repulsion energy (a.u.)       0.1763924163

            Nuclear Dipole moment (a.u.) 
            ----------------------------
        X                 Y               Z
 ---------------- ---------------- ----------------
     0.0000000000     0.0000000000     0.0000000000

      Symmetry information
      --------------------

 Group name             D4h       
 Group number             28
 Group order              16
 No. of unique centers     1

      Symmetry unique atoms

     1


            XYZ format geometry
            -------------------
     2
 geometry
 H                     0.00000000     0.00000000    -1.50000000
 H                     0.00000000     0.00000000     1.50000000

          ****************************************************
          *                                                  *
          *               NWPW PSPW Calculation              *
          *                                                  *
          * [ (Grassmann/Stiefel manifold implementation)  ] *
          *                                                  *
          *      [ NorthWest Chemistry implementation ]      *
          *                                                  *
          *            version #5.10   06/12/02              *
          *                                                  *
          *    This code was developed by Eric J. Bylaska,   *
          *    and was based upon algorithms and code        *
          *    developed by the group of Prof. John H. Weare *
          *                                                  *
          ****************************************************
     >>>  JOB STARTED       AT Mon Apr 14 15:49:19 2025  <<<
          ================ input data ========================

 input psi filename:./pspw_hf_H2.movecs

 number of processors used:        24
 processor grid           :  24 x   1
 parallel mapping         :2d-hilbert
 parallel mapping         :  balanced
 number of threads        :         1
 parallel io              :       off

 options:
      boundary conditions  = aperiodic   (version4)
      electron spin        = restricted
      exchange-correlation = Hartree-Fock
      - HFX relaxed
      - HFX restricted orbitals :    1
      - HFX free-space coulomb solver


 elements involved in the cluster:
      1: H   valence charge:  1.0000  lmax=  1
             comment    : Parameterized (Chem.Phys.Lett., vol 322, page 447) Hamman psp
             pseudpotential type            :   0
             highest angular component      :   1
             local potential used           :   1
             number of non-local projections:   1
             aperiodic cutoff radius        :  1.000
             cutoff =   0.800   0.800


 total charge:   0.000

 atomic composition:
     H   :    2

 number of electrons: spin up=     1 (   1 per task)  down=     1 (   1 per task) (Fourier space)
 number of orbitals : spin up=     1 (   1 per task)  down=     1 (   1 per task) (Fourier space)

 supercell:
      cell_name:  cell_default                                      
      lattice:    a1=<  15.000   0.000   0.000 >
                  a2=<   0.000  15.000   0.000 >
                  a3=<   0.000   0.000  15.000 >
      reciprocal: b1=<   0.419   0.000   0.000 >
                  b2=<   0.000   0.419   0.000 >
                  b3=<   0.000   0.000   0.419 >
      lattice:    a=      15.000 b=     15.000 c=      15.000
                  alpha=  90.000 beta=  90.000 gamma=  90.000
                  omega=      3375.0

      density cutoff=100.000  fft= 70x 70x 70(    80618 waves     3359 per task)
      wavefnc cutoff= 50.000  fft= 70x 70x 70(    28526 waves     1188 per task)

 technical parameters:
      time step=      5.80     fictitious mass=  400000.0
      tolerance=0.100E-08 (energy)   0.100E-08 (density)
      maximum iterations =      1000 (   10 inner    100 outer )





== Energy Calculation ==


          ============ Grassmann lmbfgs iteration ============
     >>>  ITERATION STARTED AT Mon Apr 14 15:49:25 2025  <<<
    iter.           Energy         DeltaE       DeltaRho 
    ------------------------------------------------------
      10   -0.8311717995E+00   -0.18885E-02    0.75317E-02
     -  10 steepest descent iterations performed
      20   -0.8357164938E+00   -0.11423E-03    0.59089E-04
      30   -0.8359235253E+00   -0.50834E-05    0.40521E-05
      40   -0.8359367753E+00   -0.19430E-06    0.17253E-06
      50   -0.8359373663E+00   -0.13281E-07    0.18212E-08
      60   -0.8359374052E+00   -0.81545E-09    0.97858E-10
  *** tolerance ok. iteration terminated
     >>>  ITERATION ENDED   AT Mon Apr 14 15:49:31 2025  <<<


==  Summary Of Results  ==

 number of electrons: spin up=    1.00000  down=    1.00000 (real space)

 total     energy    :  -0.8359374052E+00 (   -0.41797E+00/ion)
 total orbital energy:  -0.6691989361E+00 (   -0.66920E+00/electron)
 hartree   energy    :   0.6862617709E+00 (    0.68626E+00/electron)
 exc-corr  energy    :   0.0000000000E+00 (    0.00000E+00/electron)
 HF exchange energy  :  -0.3431308854E+00 (   -0.34313E+00/electron)
 ion-ion   energy    :   0.1763924163E+00 (    0.88196E-01/ion)

 kinetic (planewave) :   0.6122870582E+00 (    0.61229E+00/electron)
 V_local (planewave) :  -0.1821522174E+01 (   -0.18215E+01/electron)
 V_nl    (planewave) :  -0.1462255908E+00 (   -0.14623E+00/electron)
 V_Coul  (planewave) :   0.1372523542E+01 (    0.13725E+01/electron)
 V_xc.   (planewave) :   0.0000000000E+00 (    0.00000E+00/electron)
 K.S. HFX energy     :  -0.6862617709E+00 (   -0.68626E+00/electron)
 Virial Coefficient  :  -0.9721326222E+00

 orbital energies:
    -0.3345995E+00 (  -9.105eV)


== Virtual Orbital Calculation ==


 input epsi filename:./pspw_hf_H2.emovecs

 COVOs Mimimization
 ------------------
CI gradient algorithm =         3
maxit_sweeps          =         3
maxit_orb             =       120
maxit_linesearch      =        15
maxerror              = 0.100E-08

     orb,it,eci,eold,eci-eold=                    1                    1 -0.93159288629215509      -0.92665031887247618       -4.9425674196789116E-003 F
     orb,it,eci,eold,eci-eold=                    1                    2 -0.93227663756268564      -0.93159288629215509       -6.8375127053055262E-004 F
     orb,it,eci,eold,eci-eold=                    1                    3 -0.94276336262241123      -0.93227663756268564       -1.0486725059725588E-002 F
     orb,it,eci,eold,eci-eold=                    1                    4 -0.94414425458791418      -0.94276336262241123       -1.3808919655029506E-003 F
     orb,it,eci,eold,eci-eold=                    1                    5 -0.94723745355297950      -0.94414425458791418       -3.0931989650653247E-003 F
     orb,it,eci,eold,eci-eold=                    1                    6 -0.95073771512822125      -0.94723745355297950       -3.5002615752417476E-003 F
     orb,it,eci,eold,eci-eold=                    1                    7 -0.95356621719181889      -0.95073771512822125       -2.8285020635976377E-003 F
     orb,it,eci,eold,eci-eold=                    1                    8 -0.95480891006783808      -0.95356621719181889       -1.2426928760191913E-003 F
     orb,it,eci,eold,eci-eold=                    1                    9 -0.95570852364840508      -0.95480891006783808       -8.9961358056700469E-004 F
     orb,it,eci,eold,eci-eold=                    1                   10 -0.96072292173038210      -0.95570852364840508       -5.0143980819770118E-003 F
     orb,it,eci,eold,eci-eold=                    1                   11 -0.96148390255074334      -0.96072292173038210       -7.6098082036124559E-004 F
     orb,it,eci,eold,eci-eold=                    1                   12 -0.96164884311047316      -0.96148390255074334       -1.6494055972982036E-004 F
     orb,it,eci,eold,eci-eold=                    1                   13 -0.96422072838984829      -0.96164884311047316       -2.5718852793751301E-003 F
     orb,it,eci,eold,eci-eold=                    1                   14 -0.96581026455631225      -0.96422072838984829       -1.5895361664639562E-003 F
     orb,it,eci,eold,eci-eold=                    1                   15 -0.96831233429071473      -0.96581026455631225       -2.5020697344024789E-003 F
     orb,it,eci,eold,eci-eold=                    1                   16 -0.96850883647777530      -0.96831233429071473       -1.9650218706057654E-004 F
     orb,it,eci,eold,eci-eold=                    1                   17 -0.96868133178896909      -0.96850883647777530       -1.7249531119378769E-004 F
     orb,it,eci,eold,eci-eold=                    1                   18 -0.97025112455480700      -0.96868133178896909       -1.5697927658379074E-003 F
     orb,it,eci,eold,eci-eold=                    1                   19 -0.97087304500631189      -0.97025112455480700       -6.2192045150488706E-004 F
     orb,it,eci,eold,eci-eold=                    1                   20 -0.97116888834069770      -0.97087304500631189       -2.9584333438581467E-004 F
     orb,it,eci,eold,eci-eold=                    1                   21 -0.97274974493861610      -0.97116888834069770       -1.5808565979184008E-003 F
     orb,it,eci,eold,eci-eold=                    1                   22 -0.97317204474991592      -0.97274974493861610       -4.2229981129981997E-004 F
     orb,it,eci,eold,eci-eold=                    1                   23 -0.97332178958547633      -0.97317204474991592       -1.4974483556040585E-004 F
     orb,it,eci,eold,eci-eold=                    1                   24 -0.97451672050275184      -0.97332178958547633       -1.1949309172755163E-003 F
     orb,it,eci,eold,eci-eold=                    1                   25 -0.97512893147974911      -0.97451672050275184       -6.1221097699726279E-004 F
     orb,it,eci,eold,eci-eold=                    1                   26 -0.97600885528552905      -0.97512893147974911       -8.7992380577994744E-004 F
     orb,it,eci,eold,eci-eold=                    1                   27 -0.97605215718599980      -0.97600885528552905       -4.3301900470749111E-005 F
     orb,it,eci,eold,eci-eold=                    1                   28 -0.97611636595698870      -0.97605215718599980       -6.4208770988893882E-005 F
     orb,it,eci,eold,eci-eold=                    1                   29 -0.97663882349001918      -0.97611636595698870       -5.2245753303048481E-004 F
     orb,it,eci,eold,eci-eold=                    1                   30 -0.97684944157183262      -0.97663882349001918       -2.1061808181344066E-004 F
     orb,it,eci,eold,eci-eold=                    1                   31 -0.97698021246915212      -0.97684944157183262       -1.3077089731949876E-004 F
     orb,it,eci,eold,eci-eold=                    1                   32 -0.97756507283015504      -0.97698021246915212       -5.8486036100291461E-004 F
     orb,it,eci,eold,eci-eold=                    1                   33 -0.97780889310332841      -0.97756507283015504       -2.4382027317337851E-004 F
     orb,it,eci,eold,eci-eold=                    1                   34 -0.97787017527620068      -0.97780889310332841       -6.1282172872267893E-005 F
     orb,it,eci,eold,eci-eold=                    1                   35 -0.97820415405701411      -0.97787017527620068       -3.3397878081342647E-004 F
     orb,it,eci,eold,eci-eold=                    1                   36 -0.97832016309820191      -0.97820415405701411       -1.1600904118780342E-004 F
     orb,it,eci,eold,eci-eold=                    1                   37 -0.97840477462005382      -0.97832016309820191       -8.4611521851907234E-005 F
     orb,it,eci,eold,eci-eold=                    1                   38 -0.97882839501034546      -0.97840477462005382       -4.2362039029164578E-004 F
     orb,it,eci,eold,eci-eold=                    1                   39 -0.97898487517655064      -0.97882839501034546       -1.5648016620517513E-004 F
     orb,it,eci,eold,eci-eold=                    1                   40 -0.97899524689846407      -0.97898487517655064       -1.0371721913426946E-005 F
     orb,it,eci,eold,eci-eold=                    1                   41 -0.97921373840091386      -0.97899524689846407       -2.1849150244979132E-004 F
     orb,it,eci,eold,eci-eold=                    1                   42 -0.97934983632846262      -0.97921373840091386       -1.3609792754876171E-004 F
     orb,it,eci,eold,eci-eold=                    1                   43 -0.97943163901276376      -0.97934983632846262       -8.1802684301135464E-005 F
     orb,it,eci,eold,eci-eold=                    1                   44 -0.97968110503333206      -0.97943163901276376       -2.4946602056830081E-004 F
     orb,it,eci,eold,eci-eold=                    1                   45 -0.97971399791327851      -0.97968110503333206       -3.2892879946455622E-005 F
     orb,it,eci,eold,eci-eold=                    1                   46 -0.97973663856166238      -0.97971399791327851       -2.2640648383864814E-005 F
     orb,it,eci,eold,eci-eold=                    1                   47 -0.97995033505190787      -0.97973663856166238       -2.1369649024549631E-004 F
     orb,it,eci,eold,eci-eold=                    1                   48 -0.98006991467173887      -0.97995033505190787       -1.1957961983100063E-004 F
     orb,it,eci,eold,eci-eold=                    1                   49 -0.98020580693293313      -0.98006991467173887       -1.3589226119425923E-004 F
     orb,it,eci,eold,eci-eold=                    1                   50 -0.98027903327120269      -0.98020580693293313       -7.3226338269560820E-005 F
     orb,it,eci,eold,eci-eold=                    1                   51 -0.98039930606957482      -0.98027903327120269       -1.2027279837212301E-004 F
     orb,it,eci,eold,eci-eold=                    1                   52 -0.98046517158696256      -0.98039930606957482       -6.5865517387742045E-005 F
     orb,it,eci,eold,eci-eold=                    1                   53 -0.98053796408427196      -0.98046517158696256       -7.2792497309404069E-005 F
     orb,it,eci,eold,eci-eold=                    1                   54 -0.98057814286785039      -0.98053796408427196       -4.0178783578426192E-005 F
     orb,it,eci,eold,eci-eold=                    1                   55 -0.98066279444677418      -0.98057814286785039       -8.4651578923788939E-005 F
     orb,it,eci,eold,eci-eold=                    1                   56 -0.98066857437075039      -0.98066279444677418       -5.7799239762124088E-006 F
     orb,it,eci,eold,eci-eold=                    1                   57 -0.98067574611367303      -0.98066857437075039       -7.1717429226403340E-006 F
     orb,it,eci,eold,eci-eold=                    1                   58 -0.98075036764763057      -0.98067574611367303       -7.4621533957541786E-005 F
     orb,it,eci,eold,eci-eold=                    1                   59 -0.98078931292304972      -0.98075036764763057       -3.8945275419144387E-005 F
     orb,it,eci,eold,eci-eold=                    1                   60 -0.98082392047500799      -0.98078931292304972       -3.4607551958276694E-005 F
     orb,it,eci,eold,eci-eold=                    1                   61 -0.98084291505620258      -0.98082392047500799       -1.8994581194586857E-005 F
     orb,it,eci,eold,eci-eold=                    1                   62 -0.98088254917179918      -0.98084291505620258       -3.9634115596598463E-005 F
     orb,it,eci,eold,eci-eold=                    1                   63 -0.98088292392775034      -0.98088254917179918       -3.7475595116021054E-007 F
     orb,it,eci,eold,eci-eold=                    1                   64 -0.98088613589704754      -0.98088292392775034       -3.2119692972010228E-006 F
     orb,it,eci,eold,eci-eold=                    1                   65 -0.98092036200375798      -0.98088613589704754       -3.4226106710444348E-005 F
     orb,it,eci,eold,eci-eold=                    1                   66 -0.98094005335248258      -0.98092036200375798       -1.9691348724593105E-005 F
     orb,it,eci,eold,eci-eold=                    1                   67 -0.98096415027524730      -0.98094005335248258       -2.4096922764726969E-005 F
     orb,it,eci,eold,eci-eold=                    1                   68 -0.98097798184104046      -0.98096415027524730       -1.3831565793154255E-005 F
     orb,it,eci,eold,eci-eold=                    1                   69 -0.98099738067723630      -0.98097798184104046       -1.9398836195838598E-005 F
     orb,it,eci,eold,eci-eold=                    1                   70 -0.98100613328258679      -0.98099738067723630       -8.7526053504927148E-006 F
     orb,it,eci,eold,eci-eold=                    1                   71 -0.98101776548712594      -0.98100613328258679       -1.1632204539147040E-005 F
     orb,it,eci,eold,eci-eold=                    1                   72 -0.98102504243297017      -0.98101776548712594       -7.2769458442367707E-006 F
     orb,it,eci,eold,eci-eold=                    1                   73 -0.98103739938404355      -0.98102504243297017       -1.2356951073377864E-005 F
     orb,it,eci,eold,eci-eold=                    1                   74 -0.98103811767282134      -0.98103739938404355       -7.1828877779012146E-007 F
     orb,it,eci,eold,eci-eold=                    1                   75 -0.98103877563754760      -0.98103811767282134       -6.5796472625834213E-007 F
     orb,it,eci,eold,eci-eold=                    1                   76 -0.98104605887884722      -0.98103877563754760       -7.2832412996159945E-006 F
     orb,it,eci,eold,eci-eold=                    1                   77 -0.98104854554861853      -0.98104605887884722       -2.4866697713177288E-006 F
     orb,it,eci,eold,eci-eold=                    1                   78 -0.98104917835223548      -0.98104854554861853       -6.3280361695117193E-007 F
     orb,it,eci,eold,eci-eold=                    1                   79 -0.98105531783868705      -0.98104917835223548       -6.1394864515618153E-006 F
     orb,it,eci,eold,eci-eold=                    1                   80 -0.98106072869630034      -0.98105531783868705       -5.4108576132971820E-006 F
     orb,it,eci,eold,eci-eold=                    1                   81 -0.98106349830667672      -0.98106072869630034       -2.7696103763741320E-006 F
     orb,it,eci,eold,eci-eold=                    1                   82 -0.98106910005860470      -0.98106349830667672       -5.6017519279860650E-006 F
     orb,it,eci,eold,eci-eold=                    1                   83 -0.98107272079196028      -0.98106910005860470       -3.6207333555804411E-006 F
     orb,it,eci,eold,eci-eold=                    1                   84 -0.98107718295385715      -0.98107272079196028       -4.4621618968676557E-006 F
     orb,it,eci,eold,eci-eold=                    1                   85 -0.98107951361604750      -0.98107718295385715       -2.3306621903529390E-006 F
     orb,it,eci,eold,eci-eold=                    1                   86 -0.98108384431657192      -0.98107951361604750       -4.3307005244130892E-006 F
     orb,it,eci,eold,eci-eold=                    1                   87 -0.98108480482470306      -0.98108384431657192       -9.6050813114256783E-007 F
     orb,it,eci,eold,eci-eold=                    1                   88 -0.98108528457965982      -0.98108480482470306       -4.7975495676144675E-007 F
     orb,it,eci,eold,eci-eold=                    1                   89 -0.98108765289103161      -0.98108528457965982       -2.3683113717920534E-006 F
     orb,it,eci,eold,eci-eold=                    1                   90 -0.98108829953546339      -0.98108765289103161       -6.4664443177875341E-007 F
     orb,it,eci,eold,eci-eold=                    1                   91 -0.98108876257307753      -0.98108829953546339       -4.6303761414012712E-007 F
     orb,it,eci,eold,eci-eold=                    1                   92 -0.98109158423863452      -0.98108876257307753       -2.8216655569845983E-006 F
     orb,it,eci,eold,eci-eold=                    1                   93 -0.98109315264738073      -0.98109158423863452       -1.5684087462108920E-006 F
     orb,it,eci,eold,eci-eold=                    1                   94 -0.98109358671521019      -0.98109315264738073       -4.3406782945787370E-007 F
     orb,it,eci,eold,eci-eold=                    1                   95 -0.98109566856524988      -0.98109358671521019       -2.0818500396924122E-006 F
     orb,it,eci,eold,eci-eold=                    1                   96 -0.98109635043627952      -0.98109566856524988       -6.8187102963968016E-007 F
     orb,it,eci,eold,eci-eold=                    1                   97 -0.98109646114623383      -0.98109635043627952       -1.1070995431516906E-007 F
     orb,it,eci,eold,eci-eold=                    1                   98 -0.98109808663802345      -0.98109646114623383       -1.6254917896141308E-006 F
     orb,it,eci,eold,eci-eold=                    1                   99 -0.98109963358919572      -0.98109808663802345       -1.5469511722709939E-006 F
     orb,it,eci,eold,eci-eold=                    1                  100 -0.98110037464171096      -0.98109963358919572       -7.4105251524070326E-007 F
     orb,it,eci,eold,eci-eold=                    1                  101 -0.98110185491670843      -0.98110037464171096       -1.4802749974673901E-006 F
     orb,it,eci,eold,eci-eold=                    1                  102 -0.98110283817393507      -0.98110185491670843       -9.8325722663883397E-007 F
     orb,it,eci,eold,eci-eold=                    1                  103 -0.98110386714514486      -0.98110283817393507       -1.0289712097932835E-006 F
     orb,it,eci,eold,eci-eold=                    1                  104 -0.98110432093532385      -0.98110386714514486       -4.5379017898916629E-007 F
     orb,it,eci,eold,eci-eold=                    1                  105 -0.98110535100530316      -0.98110432093532385       -1.0300699793130974E-006 F
     orb,it,eci,eold,eci-eold=                    1                  106 -0.98110558061244690      -0.98110535100530316       -2.2960714374242741E-007 F
     orb,it,eci,eold,eci-eold=                    1                  107 -0.98110564998162242      -0.98110558061244690       -6.9369175514921722E-008 F
     orb,it,eci,eold,eci-eold=                    1                  108 -0.98110631788514246      -0.98110564998162242       -6.6790352004630904E-007 F
     orb,it,eci,eold,eci-eold=                    1                  109 -0.98110668500855835      -0.98110631788514246       -3.6712341588973629E-007 F
     orb,it,eci,eold,eci-eold=                    1                  110 -0.98110683102609886      -0.98110668500855835       -1.4601754050325155E-007 F
     orb,it,eci,eold,eci-eold=                    1                  111 -0.98110746686072337      -0.98110683102609886       -6.3583462450722550E-007 F
     orb,it,eci,eold,eci-eold=                    1                  112 -0.98110792308688088      -0.98110746686072337       -4.5622615751916840E-007 F
     orb,it,eci,eold,eci-eold=                    1                  113 -0.98110815830465858      -0.98110792308688088       -2.3521777769985874E-007 F
     orb,it,eci,eold,eci-eold=                    1                  114 -0.98110871394001697      -0.98110815830465858       -5.5563535839020517E-007 F
     orb,it,eci,eold,eci-eold=                    1                  115 -0.98110876090650745      -0.98110871394001697       -4.6966490474531497E-008 F
     orb,it,eci,eold,eci-eold=                    1                  116 -0.98110877902088456      -0.98110876090650745       -1.8114377109412771E-008 F
     orb,it,eci,eold,eci-eold=                    1                  117 -0.98110919716662726      -0.98110877902088456       -4.1814574269771754E-007 F
     orb,it,eci,eold,eci-eold=                    1                  118 -0.98110955229385188      -0.98110919716662726       -3.5512722462716084E-007 F
     orb,it,eci,eold,eci-eold=                    1                  119 -0.98110971594842111      -0.98110955229385188       -1.6365456922962096E-007 F
     orb,it,eci,eold,eci-eold=                    1                  120 -0.98111009272088667      -0.98110971594842111       -3.7677246556011568E-007 F
     orb,it,eci,eold,eci-eold=                    1                  121 -0.98111034660024787      -0.98111009272088667       -2.5387936120058185E-007 F
     orbital   1 current e= -0.114219E+00 error=0.945E-01 (eci= -0.981110347E+00 error=0.254E-06) iterations 121(   0 preconditioned, Ep,Sp= 20.0  200.0)
     orb,it,eci,eold,eci-eold=                    1                    1 -0.98111143357354091      -0.98111034660024787       -1.0869732930407494E-006 F
     orb,it,eci,eold,eci-eold=                    1                    2 -0.98111173063959245      -0.98111143357354091       -2.9706605153556609E-007 F
     orb,it,eci,eold,eci-eold=                    1                    3 -0.98111210289001360      -0.98111173063959245       -3.7225042115451856E-007 F
     orb,it,eci,eold,eci-eold=                    1                    4 -0.98111216814262714      -0.98111210289001360       -6.5252613534738657E-008 F
     orb,it,eci,eold,eci-eold=                    1                    5 -0.98111218096821484      -0.98111216814262714       -1.2825587702991470E-008 F
     orb,it,eci,eold,eci-eold=                    1                    6 -0.98111246580711775      -0.98111218096821484       -2.8483890290864622E-007 F
     orb,it,eci,eold,eci-eold=                    1                    7 -0.98111260234207776      -0.98111246580711775       -1.3653496000465282E-007 F
     orb,it,eci,eold,eci-eold=                    1                    8 -0.98111269044301497      -0.98111260234207776       -8.8100937212232111E-008 F
     orb,it,eci,eold,eci-eold=                    1                    9 -0.98111273361563656      -0.98111269044301497       -4.3172621588816185E-008 F
     orb,it,eci,eold,eci-eold=                    1                   10 -0.98111279803205531      -0.98111273361563656       -6.4416418754653648E-008 F
     orb,it,eci,eold,eci-eold=                    1                   11 -0.98111283713856878      -0.98111279803205531       -3.9106513471942606E-008 F
     orb,it,eci,eold,eci-eold=                    1                   12 -0.98111286907027828      -0.98111283713856878       -3.1931709498778105E-008 F
     orb,it,eci,eold,eci-eold=                    1                   13 -0.98111288227051685      -0.98111286907027828       -1.3200238568877865E-008 F
     orb,it,eci,eold,eci-eold=                    1                   14 -0.98111291623956098      -0.98111288227051685       -3.3969044133108639E-008 F
     orb,it,eci,eold,eci-eold=                    1                   15 -0.98111293401659672      -0.98111291623956098       -1.7777035732358115E-008 F
     orb,it,eci,eold,eci-eold=                    1                   16 -0.98111294160258411      -0.98111293401659672       -7.5859873938100009E-009 F
     orb,it,eci,eold,eci-eold=                    1                   17 -0.98111294484179024      -0.98111294160258411       -3.2392061255492877E-009 F
     orb,it,eci,eold,eci-eold=                    1                   18 -0.98111295475532700      -0.98111294484179024       -9.9135367692682053E-009 F
     orb,it,eci,eold,eci-eold=                    1                   19 -0.98111295528974174      -0.98111295475532700       -5.3441473468751610E-010 F
     orbital   1 current e= -0.114247E+00 error=0.274E-04 (eci= -0.981112955E+00 error=0.534E-09) iterations  19(   0 preconditioned, Ep,Sp= 20.0  200.0)
     orb,it,eci,eold,eci-eold=                    1                    1 -0.98111296551521987      -0.98111295528974174       -1.0225478130898580E-008 F
     orb,it,eci,eold,eci-eold=                    1                    2 -0.98111296551521987      -0.98111296551521987        0.0000000000000000      F
     orbital   1 current e= -0.114247E+00 error=0.172E-06 (eci= -0.981112966E+00 error=0.000E+00) iterations   2(   0 preconditioned, Ep,Sp= 20.0  200.0)
     orb,it,eci,eold,eci-eold=                    2                    1 -0.83903315872683681      -0.83892581113046116       -1.0734759637565094E-004 F
     orb,it,eci,eold,eci-eold=                    2                    2 -0.83908742371216560      -0.83903315872683681       -5.4264985328789095E-005 F
     orb,it,eci,eold,eci-eold=                    2                    3 -0.83928712364195357      -0.83908742371216560       -1.9969992978796647E-004 F
     orb,it,eci,eold,eci-eold=                    2                    4 -0.83938659452478603      -0.83928712364195357       -9.9470882832464191E-005 F
     orb,it,eci,eold,eci-eold=                    2                    5 -0.83957206360338188      -0.83938659452478603       -1.8546907859584572E-004 F
     orb,it,eci,eold,eci-eold=                    2                    6 -0.83967444228490662      -0.83957206360338188       -1.0237868152473961E-004 F
     orb,it,eci,eold,eci-eold=                    2                    7 -0.83975076859146758      -0.83967444228490662       -7.6326306560958734E-005 F
     orb,it,eci,eold,eci-eold=                    2                    8 -0.83979980709005897      -0.83975076859146758       -4.9038498591391644E-005 F
     orb,it,eci,eold,eci-eold=                    2                    9 -0.83982310888481493      -0.83979980709005897       -2.3301794755958838E-005 F
     orb,it,eci,eold,eci-eold=                    2                   10 -0.83988282905878786      -0.83982310888481493       -5.9720173972932500E-005 F
     orb,it,eci,eold,eci-eold=                    2                   11 -0.83991280285512770      -0.83988282905878786       -2.9973796339843872E-005 F
     orb,it,eci,eold,eci-eold=                    2                   12 -0.83993507157565817      -0.83991280285512770       -2.2268720530460584E-005 F
     orb,it,eci,eold,eci-eold=                    2                   13 -0.83994889954013363      -0.83993507157565817       -1.3827964475465748E-005 F
     orb,it,eci,eold,eci-eold=                    2                   14 -0.83999094823048870      -0.83994889954013363       -4.2048690355067642E-005 F
     orb,it,eci,eold,eci-eold=                    2                   15 -0.83999807052417808      -0.83999094823048870       -7.1222936893766686E-006 F
     orb,it,eci,eold,eci-eold=                    2                   16 -0.84000004681932894      -0.83999807052417808       -1.9762951508628390E-006 F
     orb,it,eci,eold,eci-eold=                    2                   17 -0.84002047980589345      -0.84000004681932894       -2.0432986564511424E-005 F
     orb,it,eci,eold,eci-eold=                    2                   18 -0.84003182559332745      -0.84002047980589345       -1.1345787434002830E-005 F
     orb,it,eci,eold,eci-eold=                    2                   19 -0.84005038871226700      -0.84003182559332745       -1.8563118939551870E-005 F
     orb,it,eci,eold,eci-eold=                    2                   20 -0.84005182111635324      -0.84005038871226700       -1.4324040862323528E-006 F
     orb,it,eci,eold,eci-eold=                    2                   21 -0.84005246852091731      -0.84005182111635324       -6.4740456406919833E-007 F
     orb,it,eci,eold,eci-eold=                    2                   22 -0.84006238956440016      -0.84005246852091731       -9.9210434828522764E-006 F
     orb,it,eci,eold,eci-eold=                    2                   23 -0.84006816090783420      -0.84006238956440016       -5.7713434340467273E-006 F
     orb,it,eci,eold,eci-eold=                    2                   24 -0.84007209710206765      -0.84006816090783420       -3.9361942334448230E-006 F
     orb,it,eci,eold,eci-eold=                    2                   25 -0.84008453980370468      -0.84007209710206765       -1.2442701637027653E-005 F
     orb,it,eci,eold,eci-eold=                    2                   26 -0.84008680929615198      -0.84008453980370468       -2.2694924473043443E-006 F
     orb,it,eci,eold,eci-eold=                    2                   27 -0.84008800524198124      -0.84008680929615198       -1.1959458292576386E-006 F
     orb,it,eci,eold,eci-eold=                    2                   28 -0.84009830237565053      -0.84008800524198124       -1.0297133669290304E-005 F
     orb,it,eci,eold,eci-eold=                    2                   29 -0.84010401138825352      -0.84009830237565053       -5.7090126029946120E-006 F
     orb,it,eci,eold,eci-eold=                    2                   30 -0.84011147467205594      -0.84010401138825352       -7.4632838024113468E-006 F
     orb,it,eci,eold,eci-eold=                    2                   31 -0.84011582311661681      -0.84011147467205594       -4.3484445608754640E-006 F
     orb,it,eci,eold,eci-eold=                    2                   32 -0.84012094225522693      -0.84011582311661681       -5.1191386101212544E-006 F
     orb,it,eci,eold,eci-eold=                    2                   33 -0.84012308551038672      -0.84012094225522693       -2.1432551597921901E-006 F
     orb,it,eci,eold,eci-eold=                    2                   34 -0.84012702643803028      -0.84012308551038672       -3.9409276435531382E-006 F
     orb,it,eci,eold,eci-eold=                    2                   35 -0.84012826655576478      -0.84012702643803028       -1.2401177345022774E-006 F
     orb,it,eci,eold,eci-eold=                    2                   36 -0.84012934102959913      -0.84012826655576478       -1.0744738343504423E-006 F
     orb,it,eci,eold,eci-eold=                    2                   37 -0.84013238063852269      -0.84012934102959913       -3.0396089235606993E-006 F
     orb,it,eci,eold,eci-eold=                    2                   38 -0.84013440366215597      -0.84013238063852269       -2.0230236332796636E-006 F
     orb,it,eci,eold,eci-eold=                    2                   39 -0.84013674131790816      -0.84013440366215597       -2.3376557521936903E-006 F
     orb,it,eci,eold,eci-eold=                    2                   40 -0.84013802461382669      -0.84013674131790816       -1.2832959185304915E-006 F
     orb,it,eci,eold,eci-eold=                    2                   41 -0.84014037861728763      -0.84013802461382669       -2.3540034609359495E-006 F
     orb,it,eci,eold,eci-eold=                    2                   42 -0.84014049356455844      -0.84014037861728763       -1.1494727081284850E-007 F
     orb,it,eci,eold,eci-eold=                    2                   43 -0.84014051496180020      -0.84014049356455844       -2.1397241756204721E-008 F
     orb,it,eci,eold,eci-eold=                    2                   44 -0.84014177583657323      -0.84014051496180020       -1.2608747730347147E-006 F
     orb,it,eci,eold,eci-eold=                    2                   45 -0.84014252279968882      -0.84014177583657323       -7.4696311558319906E-007 F
     orb,it,eci,eold,eci-eold=                    2                   46 -0.84014291502540850      -0.84014252279968882       -3.9222571968089426E-007 F
     orb,it,eci,eold,eci-eold=                    2                   47 -0.84014431770561826      -0.84014291502540850       -1.4026802097610869E-006 F
     orb,it,eci,eold,eci-eold=                    2                   48 -0.84014455059114823      -0.84014431770561826       -2.3288552997158263E-007 F
     orb,it,eci,eold,eci-eold=                    2                   49 -0.84014465602837696      -0.84014455059114823       -1.0543722872569106E-007 F
     orb,it,eci,eold,eci-eold=                    2                   50 -0.84014590638428976      -0.84014465602837696       -1.2503559128074215E-006 F
     orb,it,eci,eold,eci-eold=                    2                   51 -0.84014610770084963      -0.84014590638428976       -2.0131655986688202E-007 F
     orb,it,eci,eold,eci-eold=                    2                   52 -0.84014611694412755      -0.84014610770084963       -9.2432779208451166E-009 F
     orb,it,eci,eold,eci-eold=                    2                   53 -0.84014679577369833      -0.84014611694412755       -6.7882957077713968E-007 F
     orb,it,eci,eold,eci-eold=                    2                   54 -0.84014712784982859      -0.84014679577369833       -3.3207613026053906E-007 F
     orb,it,eci,eold,eci-eold=                    2                   55 -0.84014722431073086      -0.84014712784982859       -9.6460902265782522E-008 F
     orb,it,eci,eold,eci-eold=                    2                   56 -0.84014780989801996      -0.84014722431073086       -5.8558728910362845E-007 F
     orb,it,eci,eold,eci-eold=                    2                   57 -0.84014818704828231      -0.84014780989801996       -3.7715026235396465E-007 F
     orb,it,eci,eold,eci-eold=                    2                   58 -0.84014837384362306      -0.84014818704828231       -1.8679534075083382E-007 F
     orb,it,eci,eold,eci-eold=                    2                   59 -0.84014893455368966      -0.84014837384362306       -5.6071006659941247E-007 F
     orb,it,eci,eold,eci-eold=                    2                   60 -0.84014900028067974      -0.84014893455368966       -6.5726990072789704E-008 F
     orb,it,eci,eold,eci-eold=                    2                   61 -0.84014904784906097      -0.84014900028067974       -4.7568381233986656E-008 F
     orb,it,eci,eold,eci-eold=                    2                   62 -0.84014959833231984      -0.84014904784906097       -5.5048325886541960E-007 F
     orb,it,eci,eold,eci-eold=                    2                   63 -0.84014972703376545      -0.84014959833231984       -1.2870144561194508E-007 F
     orb,it,eci,eold,eci-eold=                    2                   64 -0.84014976089111348      -0.84014972703376545       -3.3857348036292478E-008 F
     orb,it,eci,eold,eci-eold=                    2                   65 -0.84015009766976312      -0.84014976089111348       -3.3677864963443938E-007 F
     orb,it,eci,eold,eci-eold=                    2                   66 -0.84015023147627554      -0.84015009766976312       -1.3380651242567154E-007 F
     orb,it,eci,eold,eci-eold=                    2                   67 -0.84015026127223380      -0.84015023147627554       -2.9795958256251254E-008 F
     orb,it,eci,eold,eci-eold=                    2                   68 -0.84015052338747132      -0.84015026127223380       -2.6211523751484833E-007 F
     orb,it,eci,eold,eci-eold=                    2                   69 -0.84015066203775290      -0.84015052338747132       -1.3865028158921433E-007 F
     orb,it,eci,eold,eci-eold=                    2                   70 -0.84015070484679522      -0.84015066203775290       -4.2809042311020562E-008 F
     orb,it,eci,eold,eci-eold=                    2                   71 -0.84015089263984266      -0.84015070484679522       -1.8779304744587222E-007 F
     orb,it,eci,eold,eci-eold=                    2                   72 -0.84015095132220807      -0.84015089263984266       -5.8682365411399928E-008 F
     orb,it,eci,eold,eci-eold=                    2                   73 -0.84015097979833397      -0.84015095132220807       -2.8476125901732985E-008 F
     orb,it,eci,eold,eci-eold=                    2                   74 -0.84015116338718832      -0.84015097979833397       -1.8358885434111016E-007 F
     orb,it,eci,eold,eci-eold=                    2                   75 -0.84015127122075883      -0.84015116338718832       -1.0783357051735720E-007 F
     orb,it,eci,eold,eci-eold=                    2                   76 -0.84015131170490953      -0.84015127122075883       -4.0484150698461008E-008 F
     orb,it,eci,eold,eci-eold=                    2                   77 -0.84015146220704806      -0.84015131170490953       -1.5050213852951799E-007 F
     orb,it,eci,eold,eci-eold=                    2                   78 -0.84015150863425858      -0.84015146220704806       -4.6427210520505469E-008 F
     orb,it,eci,eold,eci-eold=                    2                   79 -0.84015152462712384      -0.84015150863425858       -1.5992865254332855E-008 F
     orb,it,eci,eold,eci-eold=                    2                   80 -0.84015165428356609      -0.84015152462712384       -1.2965644224927075E-007 F
     orb,it,eci,eold,eci-eold=                    2                   81 -0.84015173989038117      -0.84015165428356609       -8.5606815081185061E-008 F
     orb,it,eci,eold,eci-eold=                    2                   82 -0.84015176928015012      -0.84015173989038117       -2.9389768951837425E-008 F
     orb,it,eci,eold,eci-eold=                    2                   83 -0.84015185613596255      -0.84015176928015012       -8.6855812431174684E-008 F
     orb,it,eci,eold,eci-eold=                    2                   84 -0.84015187385658585      -0.84015185613596255       -1.7720623302075467E-008 F
     orb,it,eci,eold,eci-eold=                    2                   85 -0.84015188761030868      -0.84015187385658585       -1.3753722827303250E-008 F
     orb,it,eci,eold,eci-eold=                    2                   86 -0.84015197292362676      -0.84015188761030868       -8.5313318076707390E-008 F
     orb,it,eci,eold,eci-eold=                    2                   87 -0.84015200778332821      -0.84015197292362676       -3.4859701458778147E-008 F
     orb,it,eci,eold,eci-eold=                    2                   88 -0.84015201563529307      -0.84015200778332821       -7.8519648560870792E-009 F
     orb,it,eci,eold,eci-eold=                    2                   89 -0.84015207446733675      -0.84015201563529307       -5.8832043681178448E-008 F
     orb,it,eci,eold,eci-eold=                    2                   90 -0.84015210316758504      -0.84015207446733675       -2.8700248289048602E-008 F
     orb,it,eci,eold,eci-eold=                    2                   91 -0.84015211391175249      -0.84015210316758504       -1.0744167444620700E-008 F
     orb,it,eci,eold,eci-eold=                    2                   92 -0.84015216101047907      -0.84015211391175249       -4.7098726585481643E-008 F
     orb,it,eci,eold,eci-eold=                    2                   93 -0.84015217809433507      -0.84015216101047907       -1.7083855996524733E-008 F
     orb,it,eci,eold,eci-eold=                    2                   94 -0.84015218617149467      -0.84015217809433507       -8.0771596078221819E-009 F
     orb,it,eci,eold,eci-eold=                    2                   95 -0.84015223024955077      -0.84015218617149467       -4.4078056093965756E-008 F
     orb,it,eci,eold,eci-eold=                    2                   96 -0.84015225024727913      -0.84015223024955077       -1.9997728362142198E-008 F
     orb,it,eci,eold,eci-eold=                    2                   97 -0.84015225717607267      -0.84015225024727913       -6.9287935389183986E-009 F
     orb,it,eci,eold,eci-eold=                    2                   98 -0.84015229592373186      -0.84015225717607267       -3.8747659192317485E-008 F
     orb,it,eci,eold,eci-eold=                    2                   99 -0.84015231272588353      -0.84015229592373186       -1.6802151669992327E-008 F
     orb,it,eci,eold,eci-eold=                    2                  100 -0.84015231614967412      -0.84015231272588353       -3.4237905843781391E-009 F
     orb,it,eci,eold,eci-eold=                    2                  101 -0.84015234150802920      -0.84015231614967412       -2.5358355082438777E-008 F
     orb,it,eci,eold,eci-eold=                    2                  102 -0.84015235378113640      -0.84015234150802920       -1.2273107197202648E-008 F
     orb,it,eci,eold,eci-eold=                    2                  103 -0.84015235970370594      -0.84015235378113640       -5.9225695459019789E-009 F
     orb,it,eci,eold,eci-eold=                    2                  104 -0.84015238641849999      -0.84015235970370594       -2.6714794043591894E-008 F
     orb,it,eci,eold,eci-eold=                    2                  105 -0.84015239665086927      -0.84015238641849999       -1.0232369285212428E-008 F
     orb,it,eci,eold,eci-eold=                    2                  106 -0.84015239902477756      -0.84015239665086927       -2.3739082921636623E-009 F
     orb,it,eci,eold,eci-eold=                    2                  107 -0.84015241771853832      -0.84015239902477756       -1.8693760761578915E-008 F
     orb,it,eci,eold,eci-eold=                    2                  108 -0.84015242566131443      -0.84015241771853832       -7.9427761034978062E-009 F
     orb,it,eci,eold,eci-eold=                    2                  109 -0.84015242787519329      -0.84015242566131443       -2.2138788580150504E-009 F
     orb,it,eci,eold,eci-eold=                    2                  110 -0.84015244310751658      -0.84015242787519329       -1.5232323291591854E-008 F
     orb,it,eci,eold,eci-eold=                    2                  111 -0.84015245155568974      -0.84015244310751658       -8.4481731610352995E-009 F
     orb,it,eci,eold,eci-eold=                    2                  112 -0.84015245478186473      -0.84015245155568974       -3.2261749938200524E-009 F
     orb,it,eci,eold,eci-eold=                    2                  113 -0.84015246694973267      -0.84015245478186473       -1.2167867935453103E-008 F
     orb,it,eci,eold,eci-eold=                    2                  114 -0.84015247077564781      -0.84015246694973267       -3.8259151402542102E-009 F
     orb,it,eci,eold,eci-eold=                    2                  115 -0.84015247253434411      -0.84015247077564781       -1.7586962997029332E-009 F
     orb,it,eci,eold,eci-eold=                    2                  116 -0.84015248349716032      -0.84015247253434411       -1.0962816210380311E-008 F
     orb,it,eci,eold,eci-eold=                    2                  117 -0.84015248832492828      -0.84015248349716032       -4.8277679631780757E-009 F
     orb,it,eci,eold,eci-eold=                    2                  118 -0.84015248957281075      -0.84015248832492828       -1.2478824640282937E-009 F
     orb,it,eci,eold,eci-eold=                    2                  119 -0.84015249779162438      -0.84015248957281075       -8.2188136296679204E-009 F
     orb,it,eci,eold,eci-eold=                    2                  120 -0.84015250245819351      -0.84015249779162438       -4.6665691311176261E-009 F
     orb,it,eci,eold,eci-eold=                    2                  121 -0.84015250456933677      -0.84015250245819351       -2.1111432602083369E-009 F
     orbital   2 current e=  0.396218E+00 error=0.752E-01 (eci= -0.840152505E+00 error=0.211E-08) iterations 121(   0 preconditioned, Ep,Sp= 20.0  200.0)
     orb,it,eci,eold,eci-eold=                    2                    1 -0.84015251438795457      -0.84015250456933677       -9.8186178076886677E-009 F
     orb,it,eci,eold,eci-eold=                    2                    2 -0.84015251674503522      -0.84015251438795457       -2.3570806417794188E-009 F
     orb,it,eci,eold,eci-eold=                    2                    3 -0.84015253528430356      -0.84015251674503522       -1.8539268342721016E-008 F
     orb,it,eci,eold,eci-eold=                    2                    4 -0.84015253737220186      -0.84015253528430356       -2.0878982986971550E-009 F
     orb,it,eci,eold,eci-eold=                    2                    5 -0.84015253960352387      -0.84015253737220186       -2.2313220160441460E-009 F
     orb,it,eci,eold,eci-eold=                    2                    6 -0.84015254780400150      -0.84015253960352387       -8.2004776302824212E-009 F
     orb,it,eci,eold,eci-eold=                    2                    7 -0.84015254780400150      -0.84015254780400150        0.0000000000000000      F
     orbital   2 current e=  0.396198E+00 error=0.198E-04 (eci= -0.840152548E+00 error=0.000E+00) iterations   7(   0 preconditioned, Ep,Sp= 20.0  200.0)
     orb,it,eci,eold,eci-eold=                    2                    1 -0.84015255441294512      -0.84015254709827580       -7.3146693146952657E-009 F
     orb,it,eci,eold,eci-eold=                    2                    2 -0.84015255739174122      -0.84015255441294512       -2.9787960986737971E-009 F
     orb,it,eci,eold,eci-eold=                    2                    3 -0.84015255934896582      -0.84015255739174122       -1.9572246046095643E-009 F
     orb,it,eci,eold,eci-eold=                    2                    4 -0.84015256057049204      -0.84015255934896582       -1.2215262135129024E-009 F
     orb,it,eci,eold,eci-eold=                    2                    5 -0.84015256096820801      -0.84015256057049204       -3.9771597126758707E-010 F
     orbital   2 current e=  0.396192E+00 error=0.620E-05 (eci= -0.840152561E+00 error=0.398E-09) iterations   5(   0 preconditioned, Ep,Sp= 20.0  200.0)
     orb,it,eci,eold,eci-eold=                    3                    1 -0.83797180680272532      -0.83796522338881707       -6.5834139082454612E-006 F
     orb,it,eci,eold,eci-eold=                    3                    2 -0.83797237170491867      -0.83797180680272532       -5.6490219335625369E-007 F
     orb,it,eci,eold,eci-eold=                    3                    3 -0.83809012268008132      -0.83797237170491867       -1.1775097516264488E-004 F
     orb,it,eci,eold,eci-eold=                    3                    4 -0.83813993035643541      -0.83809012268008132       -4.9807676354096664E-005 F
     orb,it,eci,eold,eci-eold=                    3                    5 -0.83817076587422024      -0.83813993035643541       -3.0835517784821853E-005 F
     orb,it,eci,eold,eci-eold=                    3                    6 -0.83817241391541297      -0.83817076587422024       -1.6480411927366490E-006 F
     orb,it,eci,eold,eci-eold=                    3                    7 -0.83818788569418445      -0.83817241391541297       -1.5471778771480871E-005 F
     orb,it,eci,eold,eci-eold=                    3                    8 -0.83822003787648092      -0.83818788569418445       -3.2152182296463216E-005 F
     orb,it,eci,eold,eci-eold=                    3                    9 -0.83823847947106900      -0.83822003787648092       -1.8441594588081145E-005 F
     orb,it,eci,eold,eci-eold=                    3                   10 -0.83826836565386964      -0.83823847947106900       -2.9886182800642480E-005 F
     orb,it,eci,eold,eci-eold=                    3                   11 -0.83827379709941330      -0.83826836565386964       -5.4314455436577092E-006 F
     orb,it,eci,eold,eci-eold=                    3                   12 -0.83827933429683710      -0.83827379709941330       -5.5371974237994337E-006 F
     orb,it,eci,eold,eci-eold=                    3                   13 -0.83830138822696521      -0.83827933429683710       -2.2053930128107524E-005 F
     orb,it,eci,eold,eci-eold=                    3                   14 -0.83830504832437436      -0.83830138822696521       -3.6600974091527405E-006 F
     orb,it,eci,eold,eci-eold=                    3                   15 -0.83830703147624985      -0.83830504832437436       -1.9831518754953592E-006 F
     orb,it,eci,eold,eci-eold=                    3                   16 -0.83832826259170545      -0.83830703147624985       -2.1231115455599969E-005 F
     orb,it,eci,eold,eci-eold=                    3                   17 -0.83834282248279368      -0.83832826259170545       -1.4559891088228305E-005 F
     orb,it,eci,eold,eci-eold=                    3                   18 -0.83834772099584653      -0.83834282248279368       -4.8985130528533816E-006 F
     orb,it,eci,eold,eci-eold=                    3                   19 -0.83836296455354586      -0.83834772099584653       -1.5243557699329280E-005 F
     orb,it,eci,eold,eci-eold=                    3                   20 -0.83836902981552874      -0.83836296455354586       -6.0652619828793775E-006 F
     orb,it,eci,eold,eci-eold=                    3                   21 -0.83837390992806538      -0.83836902981552874       -4.8801125366315645E-006 F
     orb,it,eci,eold,eci-eold=                    3                   22 -0.83839300434566877      -0.83837390992806538       -1.9094417603393588E-005 F
     orb,it,eci,eold,eci-eold=                    3                   23 -0.83839947860409614      -0.83839300434566877       -6.4742584273691506E-006 F
     orb,it,eci,eold,eci-eold=                    3                   24 -0.83840081249425835      -0.83839947860409614       -1.3338901622139687E-006 F
     orb,it,eci,eold,eci-eold=                    3                   25 -0.83841268082380693      -0.83840081249425835       -1.1868329548581080E-005 F
     orb,it,eci,eold,eci-eold=                    3                   26 -0.83841869366777444      -0.83841268082380693       -6.0128439675066758E-006 F
     orb,it,eci,eold,eci-eold=                    3                   27 -0.83842160425184520      -0.83841869366777444       -2.9105840707588371E-006 F
     orb,it,eci,eold,eci-eold=                    3                   28 -0.83843231572539723      -0.83842160425184520       -1.0711473552027506E-005 F
     orb,it,eci,eold,eci-eold=                    3                   29 -0.83843458761645184      -0.83843231572539723       -2.2718910546171145E-006 F
     orb,it,eci,eold,eci-eold=                    3                   30 -0.83843535873942709      -0.83843458761645184       -7.7112297525161466E-007 F
     orb,it,eci,eold,eci-eold=                    3                   31 -0.83844308782574972      -0.83843535873942709       -7.7290863226275874E-006 F
     orb,it,eci,eold,eci-eold=                    3                   32 -0.83844676277453067      -0.83844308782574972       -3.6749487809517589E-006 F
     orb,it,eci,eold,eci-eold=                    3                   33 -0.83844834970835036      -0.83844676277453067       -1.5869338196861094E-006 F
     orb,it,eci,eold,eci-eold=                    3                   34 -0.83845479846351945      -0.83844834970835036       -6.4487551690861622E-006 F
     orb,it,eci,eold,eci-eold=                    3                   35 -0.83845667832754811      -0.83845479846351945       -1.8798640286643575E-006 F
     orb,it,eci,eold,eci-eold=                    3                   36 -0.83845751908073818      -0.83845667832754811       -8.4075319006782223E-007 F
     orb,it,eci,eold,eci-eold=                    3                   37 -0.83846260301463205      -0.83845751908073818       -5.0839338938679646E-006 F
     orb,it,eci,eold,eci-eold=                    3                   38 -0.83846473599687577      -0.83846260301463205       -2.1329822437188284E-006 F
     orb,it,eci,eold,eci-eold=                    3                   39 -0.83846568363375074      -0.83846473599687577       -9.4763687497056992E-007 F
     orb,it,eci,eold,eci-eold=                    3                   40 -0.83846992353683747      -0.83846568363375074       -4.2399030867334986E-006 F
     orb,it,eci,eold,eci-eold=                    3                   41 -0.83847132143567360      -0.83846992353683747       -1.3978988361307287E-006 F
     orb,it,eci,eold,eci-eold=                    3                   42 -0.83847189314084447      -0.83847132143567360       -5.7170517087090644E-007 F
     orb,it,eci,eold,eci-eold=                    3                   43 -0.83847515038886944      -0.83847189314084447       -3.2572480249681846E-006 F
     orb,it,eci,eold,eci-eold=                    3                   44 -0.83847615537385090      -0.83847515038886944       -1.0049849814564027E-006 F
     orb,it,eci,eold,eci-eold=                    3                   45 -0.83847647272007653      -0.83847615537385090       -3.1734622563117654E-007 F
     orb,it,eci,eold,eci-eold=                    3                   46 -0.83847886694548468      -0.83847647272007653       -2.3942254081532610E-006 F
     orb,it,eci,eold,eci-eold=                    3                   47 -0.83847977092999781      -0.83847886694548468       -9.0398451313422612E-007 F
     orb,it,eci,eold,eci-eold=                    3                   48 -0.83848013252619191      -0.83847977092999781       -3.6159619409836807E-007 F
     orb,it,eci,eold,eci-eold=                    3                   49 -0.83848218370045147      -0.83848013252619191       -2.0511742595541449E-006 F
     orb,it,eci,eold,eci-eold=                    3                   50 -0.83848292258148305      -0.83848218370045147       -7.3888103158115115E-007 F
     orb,it,eci,eold,eci-eold=                    3                   51 -0.83848319003900496      -0.83848292258148305       -2.6745752190748817E-007 F
     orb,it,eci,eold,eci-eold=                    3                   52 -0.83848490859538305      -0.83848319003900496       -1.7185563780941493E-006 F
     orb,it,eci,eold,eci-eold=                    3                   53 -0.83848546205079499      -0.83848490859538305       -5.5345541194462555E-007 F
     orb,it,eci,eold,eci-eold=                    3                   54 -0.83848558706253529      -0.83848546205079499       -1.2501174029289075E-007 F
     orb,it,eci,eold,eci-eold=                    3                   55 -0.83848697087527724      -0.83848558706253529       -1.3838127419507629E-006 F
     orb,it,eci,eold,eci-eold=                    3                   56 -0.83848752828344097      -0.83848697087527724       -5.5740816373717195E-007 F
     orb,it,eci,eold,eci-eold=                    3                   57 -0.83848764641106621      -0.83848752828344097       -1.1812762523710774E-007 F
     orb,it,eci,eold,eci-eold=                    3                   58 -0.83848879795906750      -0.83848764641106621       -1.1515480012880275E-006 F
     orb,it,eci,eold,eci-eold=                    3                   59 -0.83848919871351235      -0.83848879795906750       -4.0075444485143663E-007 F
     orb,it,eci,eold,eci-eold=                    3                   60 -0.83848923643428119      -0.83848919871351235       -3.7720768841786878E-008 F
     orb,it,eci,eold,eci-eold=                    3                   61 -0.83849010683100866      -0.83848923643428119       -8.7039672747035723E-007 F
     orb,it,eci,eold,eci-eold=                    3                   62 -0.83849051468977365      -0.83849010683100866       -4.0785876498361517E-007 F
     orb,it,eci,eold,eci-eold=                    3                   63 -0.83849061018909410      -0.83849051468977365       -9.5499320451608583E-008 F
     orb,it,eci,eold,eci-eold=                    3                   64 -0.83849133075480553      -0.83849061018909410       -7.2056571143175319E-007 F
     orb,it,eci,eold,eci-eold=                    3                   65 -0.83849156283629478      -0.83849133075480553       -2.3208148924869221E-007 F
     orb,it,eci,eold,eci-eold=                    3                   66 -0.83849159921465355      -0.83849156283629478       -3.6378358769795227E-008 F
     orb,it,eci,eold,eci-eold=                    3                   67 -0.83849215908970809      -0.83849159921465355       -5.5987505453991560E-007 F
     orb,it,eci,eold,eci-eold=                    3                   68 -0.83849241358901061      -0.83849215908970809       -2.5449930252108288E-007 F
     orb,it,eci,eold,eci-eold=                    3                   69 -0.83849248107354568      -0.83849241358901061       -6.7484535071216101E-008 F
     orb,it,eci,eold,eci-eold=                    3                   70 -0.83849293878196074      -0.83849248107354568       -4.5770841505810012E-007 F
     orb,it,eci,eold,eci-eold=                    3                   71 -0.83849307737195156      -0.83849293878196074       -1.3858999081683976E-007 F
     orb,it,eci,eold,eci-eold=                    3                   72 -0.83849309672158978      -0.83849307737195156       -1.9349638225030219E-008 F
     orb,it,eci,eold,eci-eold=                    3                   73 -0.83849341113728415      -0.83849309672158978       -3.1441569436907457E-007 F
     orb,it,eci,eold,eci-eold=                    3                   74 -0.83849352665800891      -0.83849341113728415       -1.1552072476384012E-007 F
     orb,it,eci,eold,eci-eold=                    3                   75 -0.83849355916248280      -0.83849352665800891       -3.2504473890249130E-008 F
     orb,it,eci,eold,eci-eold=                    3                   76 -0.83849383588033510      -0.83849355916248280       -2.7671785229888002E-007 F
     orb,it,eci,eold,eci-eold=                    3                   77 -0.83849396208587768      -0.83849383588033510       -1.2620554257214422E-007 F
     orb,it,eci,eold,eci-eold=                    3                   78 -0.83849400234342542      -0.83849396208587768       -4.0257547739841471E-008 F
     orb,it,eci,eold,eci-eold=                    3                   79 -0.83849423457375805      -0.83849400234342542       -2.3223033263075621E-007 F
     orb,it,eci,eold,eci-eold=                    3                   80 -0.83849430449609108      -0.83849423457375805       -6.9922333034710960E-008 F
     orb,it,eci,eold,eci-eold=                    3                   81 -0.83849431716554490      -0.83849430449609108       -1.2669453819391663E-008 F
     orb,it,eci,eold,eci-eold=                    3                   82 -0.83849448989810882      -0.83849431716554490       -1.7273256391892033E-007 F
     orb,it,eci,eold,eci-eold=                    3                   83 -0.83849455964459219      -0.83849448989810882       -6.9746483366550649E-008 F
     orb,it,eci,eold,eci-eold=                    3                   84 -0.83849457547049189      -0.83849455964459219       -1.5825899701837898E-008 F
     orb,it,eci,eold,eci-eold=                    3                   85 -0.83849471055490699      -0.83849457547049189       -1.3508441509824110E-007 F
     orb,it,eci,eold,eci-eold=                    3                   86 -0.83849474968142323      -0.83849471055490699       -3.9126516249154975E-008 F
     orb,it,eci,eold,eci-eold=                    3                   87 -0.83849475492845205      -0.83849474968142323       -5.2470288114392361E-009 F
     orb,it,eci,eold,eci-eold=                    3                   88 -0.83849486222219238      -0.83849475492845205       -1.0729374033680017E-007 F
     orb,it,eci,eold,eci-eold=                    3                   89 -0.83849490783034852      -0.83849486222219238       -4.5608156140630740E-008 F
     orb,it,eci,eold,eci-eold=                    3                   90 -0.83849491639774498      -0.83849490783034852       -8.5673964589361162E-009 F
     orb,it,eci,eold,eci-eold=                    3                   91 -0.83849500393461951      -0.83849491639774498       -8.7536874526783492E-008 F
     orb,it,eci,eold,eci-eold=                    3                   92 -0.83849503516683455      -0.83849500393461951       -3.1232215036425259E-008 F
     orb,it,eci,eold,eci-eold=                    3                   93 -0.83849503943701875      -0.83849503516683455       -4.2701842062342621E-009 F
     orb,it,eci,eold,eci-eold=                    3                   94 -0.83849510857263199      -0.83849503943701875       -6.9135613234294624E-008 F
     orb,it,eci,eold,eci-eold=                    3                   95 -0.83849513873665005      -0.83849510857263199       -3.0164018061107356E-008 F
     orb,it,eci,eold,eci-eold=                    3                   96 -0.83849514508535838      -0.83849513873665005       -6.3487083368229946E-009 F
     orb,it,eci,eold,eci-eold=                    3                   97 -0.83849520154182899      -0.83849514508535838       -5.6456470609589360E-008 F
     orb,it,eci,eold,eci-eold=                    3                   98 -0.83849522318774539      -0.83849520154182899       -2.1645916392643016E-008 F
     orb,it,eci,eold,eci-eold=                    3                   99 -0.83849522798079867      -0.83849522318774539       -4.7930532875994913E-009 F
     orb,it,eci,eold,eci-eold=                    3                  100 -0.83849527235457977      -0.83849522798079867       -4.4373781094009246E-008 F
     orb,it,eci,eold,eci-eold=                    3                  101 -0.83849528649865634      -0.83849527235457977       -1.4144076576627640E-008 F
     orb,it,eci,eold,eci-eold=                    3                  102 -0.83849528857712685      -0.83849528649865634       -2.0784705068166431E-009 F
     orb,it,eci,eold,eci-eold=                    3                  103 -0.83849532243733793      -0.83849528857712685       -3.3860211079428382E-008 F
     orb,it,eci,eold,eci-eold=                    3                  104 -0.83849533546173738      -0.83849532243733793       -1.3024399447836288E-008 F
     orb,it,eci,eold,eci-eold=                    3                  105 -0.83849533782241381      -0.83849533546173738       -2.3606764321115747E-009 F
     orb,it,eci,eold,eci-eold=                    3                  106 -0.83849536408165859      -0.83849533782241381       -2.6259244778614743E-008 F
     orb,it,eci,eold,eci-eold=                    3                  107 -0.83849537561027754      -0.83849536408165859       -1.1528618948375424E-008 F
     orb,it,eci,eold,eci-eold=                    3                  108 -0.83849537942859720      -0.83849537561027754       -3.8183196604535397E-009 F
     orb,it,eci,eold,eci-eold=                    3                  109 -0.83849540291091551      -0.83849537942859720       -2.3482318312062489E-008 F
     orb,it,eci,eold,eci-eold=                    3                  110 -0.83849540926459465      -0.83849540291091551       -6.3536791383711488E-009 F
     orb,it,eci,eold,eci-eold=                    3                  111 -0.83849540949026768      -0.83849540926459465       -2.2567303581411124E-010 F
     orbital   3 current e=  0.404016E+00 error=0.180E+00 (eci= -0.838495409E+00 error=0.226E-09) iterations 111(   0 preconditioned, Ep,Sp= 20.0  200.0)
     orb,it,eci,eold,eci-eold=                    3                    1 -0.83849546431510635      -0.83849540949026768       -5.4824838668920961E-008 F
     orb,it,eci,eold,eci-eold=                    3                    2 -0.83849547979316963      -0.83849546431510635       -1.5478063275509157E-008 F
     orb,it,eci,eold,eci-eold=                    3                    3 -0.83849549061812911      -0.83849547979316963       -1.0824959484345698E-008 F
     orb,it,eci,eold,eci-eold=                    3                    4 -0.83849549389659650      -0.83849549061812911       -3.2784673864583169E-009 F
     orb,it,eci,eold,eci-eold=                    3                    5 -0.83849549389659650      -0.83849549389659650        0.0000000000000000      F
     orbital   3 current e=  0.403839E+00 error=0.177E-03 (eci= -0.838495494E+00 error=0.000E+00) iterations   5(   0 preconditioned, Ep,Sp= 20.0  200.0)
     orb,it,eci,eold,eci-eold=                    3                    1 -0.83849551290519009      -0.83849549364368736       -1.9261502726131141E-008 F
     orb,it,eci,eold,eci-eold=                    3                    2 -0.83849551299082403      -0.83849551290519009       -8.5633944379992499E-011 F
     orbital   3 current e=  0.403800E+00 error=0.390E-04 (eci= -0.838495513E+00 error=0.856E-10) iterations   2(   0 preconditioned, Ep,Sp= 20.0  200.0)
     orb,it,eci,eold,eci-eold=                    4                    1 -0.83780374971339389      -0.83771241202837510       -9.1337685018788584E-005 F
     orb,it,eci,eold,eci-eold=                    4                    2 -0.83781014951058985      -0.83780374971339389       -6.3997971959661726E-006 F
     orb,it,eci,eold,eci-eold=                    4                    3 -0.83784242884148019      -0.83781014951058985       -3.2279330890339075E-005 F
     orb,it,eci,eold,eci-eold=                    4                    4 -0.83784983738800334      -0.83784242884148019       -7.4085465231465975E-006 F
     orb,it,eci,eold,eci-eold=                    4                    5 -0.83785990170228908      -0.83784983738800334       -1.0064314285740394E-005 F
     orb,it,eci,eold,eci-eold=                    4                    6 -0.83788162520818221      -0.83785990170228908       -2.1723505893134210E-005 F
     orb,it,eci,eold,eci-eold=                    4                    7 -0.83788369634194393      -0.83788162520818221       -2.0711337617163039E-006 F
     orb,it,eci,eold,eci-eold=                    4                    8 -0.83789204549011043      -0.83788369634194393       -8.3491481664976774E-006 F
     orb,it,eci,eold,eci-eold=                    4                    9 -0.83791338564566664      -0.83789204549011043       -2.1340155556215379E-005 F
     orb,it,eci,eold,eci-eold=                    4                   10 -0.83792123003321928      -0.83791338564566664       -7.8443875526357232E-006 F
     orb,it,eci,eold,eci-eold=                    4                   11 -0.83793033383116733      -0.83792123003321928       -9.1037979480512732E-006 F
     orb,it,eci,eold,eci-eold=                    4                   12 -0.83795069513010079      -0.83793033383116733       -2.0361298933457839E-005 F
     orb,it,eci,eold,eci-eold=                    4                   13 -0.83795698889833936      -0.83795069513010079       -6.2937682385744154E-006 F
     orb,it,eci,eold,eci-eold=                    4                   14 -0.83796294647542968      -0.83795698889833936       -5.9575770903208536E-006 F
     orb,it,eci,eold,eci-eold=                    4                   15 -0.83797794283788174      -0.83796294647542968       -1.4996362452057710E-005 F
     orb,it,eci,eold,eci-eold=                    4                   16 -0.83798022607947520      -0.83797794283788174       -2.2832415934592731E-006 F
     orb,it,eci,eold,eci-eold=                    4                   17 -0.83798297452050696      -0.83798022607947520       -2.7484410317635266E-006 F
     orb,it,eci,eold,eci-eold=                    4                   18 -0.83799304958402143      -0.83798297452050696       -1.0075063514469740E-005 F
     orb,it,eci,eold,eci-eold=                    4                   19 -0.83799481514328333      -0.83799304958402143       -1.7655592619014726E-006 F
     orb,it,eci,eold,eci-eold=                    4                   20 -0.83799631629433669      -0.83799481514328333       -1.5011510533513572E-006 F
     orb,it,eci,eold,eci-eold=                    4                   21 -0.83800284810262149      -0.83799631629433669       -6.5318082848042636E-006 F
     orb,it,eci,eold,eci-eold=                    4                   22 -0.83800486927403472      -0.83800284810262149       -2.0211714132356562E-006 F
     orb,it,eci,eold,eci-eold=                    4                   23 -0.83800646312435934      -0.83800486927403472       -1.5938503246104574E-006 F
     orb,it,eci,eold,eci-eold=                    4                   24 -0.83801133360681868      -0.83800646312435934       -4.8704824593404084E-006 F
     orb,it,eci,eold,eci-eold=                    4                   25 -0.83801261370696867      -0.83801133360681868       -1.2801001499918030E-006 F
     orb,it,eci,eold,eci-eold=                    4                   26 -0.83801378468212873      -0.83801261370696867       -1.1709751600585960E-006 F
     orb,it,eci,eold,eci-eold=                    4                   27 -0.83801779426297651      -0.83801378468212873       -4.0095808477857986E-006 F
     orb,it,eci,eold,eci-eold=                    4                   28 -0.83801902759396829      -0.83801779426297651       -1.2333309917789137E-006 F
     orb,it,eci,eold,eci-eold=                    4                   29 -0.83801985645720678      -0.83801902759396829       -8.2886323848896382E-007 F
     orb,it,eci,eold,eci-eold=                    4                   30 -0.83802284608417987      -0.83801985645720678       -2.9896269730933511E-006 F
     orb,it,eci,eold,eci-eold=                    4                   31 -0.83802397898682257      -0.83802284608417987       -1.1329026426976085E-006 F
     orb,it,eci,eold,eci-eold=                    4                   32 -0.83802472269349670      -0.83802397898682257       -7.4370667413337088E-007 F
     orb,it,eci,eold,eci-eold=                    4                   33 -0.83802687576546031      -0.83802472269349670       -2.1530719636064788E-006 F
     orb,it,eci,eold,eci-eold=                    4                   34 -0.83802742328215141      -0.83802687576546031       -5.4751669109620593E-007 F
     orb,it,eci,eold,eci-eold=                    4                   35 -0.83802792050959352      -0.83802742328215141       -4.9722744210889402E-007 F
     orb,it,eci,eold,eci-eold=                    4                   36 -0.83802961828799383      -0.83802792050959352       -1.6977784003113783E-006 F
     orb,it,eci,eold,eci-eold=                    4                   37 -0.83802988306092563      -0.83802961828799383       -2.6477293180171557E-007 F
     orb,it,eci,eold,eci-eold=                    4                   38 -0.83803008154998859      -0.83802988306092563       -1.9848906296360269E-007 F
     orb,it,eci,eold,eci-eold=                    4                   39 -0.83803144651016626      -0.83803008154998859       -1.3649601776632991E-006 F
     orb,it,eci,eold,eci-eold=                    4                   40 -0.83803180363742880      -0.83803144651016626       -3.5712726254022442E-007 F
     orb,it,eci,eold,eci-eold=                    4                   41 -0.83803187481527841      -0.83803180363742880       -7.1177849614301181E-008 F
     orb,it,eci,eold,eci-eold=                    4                   42 -0.83803285863243215      -0.83803187481527841       -9.8381715374351586E-007 F
     orb,it,eci,eold,eci-eold=                    4                   43 -0.83803329331006093      -0.83803285863243215       -4.3467762878002247E-007 F
     orb,it,eci,eold,eci-eold=                    4                   44 -0.83803342138289905      -0.83803329331006093       -1.2807283811255843E-007 F
     orb,it,eci,eold,eci-eold=                    4                   45 -0.83803413292193796      -0.83803342138289905       -7.1153903891119086E-007 F
     orb,it,eci,eold,eci-eold=                    4                   46 -0.83803439585373762      -0.83803413292193796       -2.6293179966607738E-007 F
[...]
    8    5    8    8       -0.0000203238
    8    5    9    8       -0.0000008746
    8    5   10    8       -0.0000000289
    8    5   11    8        0.0624315842
    8    5    9    9       -0.0000169973
    8    5   10    9       -0.0000000029
    8    5   11    9        0.0364322885
    8    5   10   10       -0.0000175585
    8    5   11   10       -0.0001494541
    8    5   11   11        0.0000243418
    9    5    9    5        0.0386071010
    9    5   10    5        0.0000007235
    9    5   11    5        0.0000067689
    9    5    6    6        0.0000256254
    9    5    7    6       -0.0000015467
    9    5    8    6        0.0149381371
    9    5    9    6       -0.0517326506
    9    5   10    6        0.0000000442
    9    5   11    6       -0.0000014421
    9    5    7    7        0.0001487026
    9    5    8    7        0.0000000492
    9    5    9    7        0.0000000225
    9    5   10    7       -0.0000039505
    9    5   11    7        0.0000503772
    9    5    8    8       -0.0000087856
    9    5    9    8       -0.0000017734
    9    5   10    8       -0.0000000138
    9    5   11    8        0.0300697898
    9    5    9    9       -0.0000104919
    9    5   10    9       -0.0000000009
    9    5   11    9        0.0245298240
    9    5   10   10       -0.0000090813
    9    5   11   10       -0.0000773000
    9    5   11   11        0.0000129387
   10    5   10    5        0.0163728990
   10    5   11    5       -0.0000000291
   10    5    6    6       -0.0000000007
   10    5    7    6        0.0000000001
   10    5    8    6        0.0000007098
   10    5    9    6       -0.0000013377
   10    5   10    6       -0.0000000003
   10    5   11    6        0.0000000000
   10    5    7    7       -0.0000000045
   10    5    8    7        0.0000016148
   10    5    9    7        0.0000008353
   10    5   10    7        0.0000000030
   10    5   11    7       -0.0012542320
   10    5    8    8       -0.0000000117
   10    5    9    8       -0.0000000019
   10    5   10    8       -0.0000037803
   10    5   11    8       -0.0000152857
   10    5    9    9       -0.0000000070
   10    5   10    9       -0.0000019577
   10    5   11    9       -0.0000076514
   10    5   10   10       -0.0000000109
   10    5   11   10       -0.0017951181
   10    5   11   11        0.0000000187
   11    5   11    5        0.0481939638
   11    5    6    6        0.0184515680
   11    5    7    6       -0.0000000005
   11    5    8    6        0.0000056274
   11    5    9    6       -0.0000111146
   11    5   10    6       -0.0000000056
   11    5   11    6       -0.0040695565
   11    5    7    7        0.0426016454
   11    5    8    7        0.0000062056
   11    5    9    7        0.0000033909
   11    5   10    7        0.0052450459
   11    5   11    7        0.0000000777
   11    5    8    8        0.0421165229
   11    5    9    8        0.0034782156
   11    5   10    8       -0.0000124334
   11    5   11    8        0.0000055052
   11    5    9    9        0.0381798301
   11    5   10    9       -0.0000065299
   11    5   11    9        0.0000034490
   11    5   10   10        0.0363469268
   11    5   11   10        0.0000000569
   11    5   11   11        0.0284489072
    6    6    6    6        0.3131236337
    6    6    7    6        0.0000000066
    6    6    8    6        0.0000306353
    6    6    9    6       -0.0000591831
    6    6   10    6       -0.0000000032
    6    6   11    6       -0.0019263012
    6    6    7    7        0.2871728814
    6    6    8    7        0.0000004927
    6    6    9    7       -0.0000003989
    6    6   10    7       -0.0093444815
    6    6   11    7       -0.0000001726
    6    6    8    8        0.3046086972
    6    6    9    8       -0.0102740205
    6    6   10    8       -0.0000000307
    6    6   11    8        0.0000191998
    6    6    9    9        0.3188186457
    6    6   10    9       -0.0000000586
    6    6   11    9        0.0000127593
    6    6   10   10        0.3206073540
    6    6   11   10        0.0000000006
    6    6   11   11        0.3001018499
    7    6    7    6        0.0109444293
    7    6    8    6        0.0000014500
    7    6    9    6       -0.0000029336
    7    6   10    6        0.0001440612
    7    6   11    6       -0.0000000236
    7    6    7    7        0.0000000122
    7    6    8    7        0.0000173739
    7    6    9    7       -0.0000335796
    7    6   10    7       -0.0000000019
    7    6   11    7       -0.0005936763
    7    6    8    8        0.0000000127
    7    6    9    8       -0.0000000074
    7    6   10    8        0.0000027602
    7    6   11    8        0.0000045909
    7    6    9    9       -0.0000000046
    7    6   10    9       -0.0000053402
    7    6   11    9       -0.0000044998
    7    6   10   10        0.0000000042
    7    6   11   10        0.0001082896
    7    6   11   11        0.0000000033
    8    6    8    6        0.0385742717
    8    6    9    6       -0.0517130999
    8    6   10    6        0.0000000111
    8    6   11    6        0.0000002882
    8    6    7    7        0.0001486308
    8    6    8    7        0.0000000501
    8    6    9    7        0.0000000098
    8    6   10    7       -0.0000039509
    8    6   11    7        0.0000493972
    8    6    8    8       -0.0000105013
    8    6    9    8        0.0000018233
    8    6   10    8       -0.0000000156
    8    6   11    8        0.0289350499
    8    6    9    9       -0.0000087955
    8    6   10    9        0.0000000026
    8    6   11    9        0.0136663692
    8    6   10   10       -0.0000090748
    8    6   11   10       -0.0000771885
    8    6   11   11        0.0000109162
    9    6    9    6        0.1114759340
    9    6   10    6       -0.0000001215
    9    6   11    6        0.0000016693
    9    6    7    7       -0.0002873143
    9    6    8    7       -0.0000000860
    9    6    9    7       -0.0000000400
    9    6   10    7        0.0000076303
    9    6   11    7       -0.0000951060
    9    6    8    8        0.0000169924
    9    6    9    8       -0.0000009841
    9    6   10    8        0.0000000251
    9    6   11    8       -0.0516309144
    9    6    9    9        0.0000202556
    9    6   10    9        0.0000000007
    9    6   11    9       -0.0373953493
    9    6   10   10        0.0000175394
    9    6   11   10        0.0001492147
    9    6   11   11       -0.0000217759
   10    6   10    6        0.0163770991
   10    6   11    6       -0.0000000195
   10    6    7    7       -0.0000000065
   10    6    8    7        0.0000008361
   10    6    9    7       -0.0000016166
   10    6   10    7        0.0000000001
   10    6   11    7        0.0001225464
   10    6    8    8       -0.0000000083
   10    6    9    8        0.0000000023
   10    6   10    8       -0.0000019553
   10    6   11    8       -0.0000086126
   10    6    9    9       -0.0000000049
   10    6   10    9        0.0000037835
   10    6   11    9        0.0000171128
   10    6   10   10       -0.0000000059
   10    6   11   10        0.0001739187
   10    6   11   11       -0.0000000068
   11    6   11    6        0.0070938902
   11    6    7    7       -0.0041495875
   11    6    8    7        0.0000024531
   11    6    9    7       -0.0000045386
   11    6   10    7       -0.0005099015
   11    6   11    7       -0.0000000070
   11    6    8    8       -0.0005237304
   11    6    9    8       -0.0019583254
   11    6   10    8       -0.0000059149
   11    6   11    8       -0.0000001496
   11    6    9    9       -0.0072959985
   11    6   10    9        0.0000113006
   11    6   11    9       -0.0000008482
   11    6   10   10       -0.0035410809
   11    6   11   10       -0.0000000065
   11    6   11   11       -0.0027430988
    7    7    7    7        0.3254796119
    7    7    8    7        0.0000005150
    7    7    9    7        0.0000002139
    7    7   10    7       -0.0075526566
    7    7   11    7        0.0000002540
    7    7    8    8        0.3090045776
    7    7    9    8       -0.0000000012
    7    7   10    8        0.0000001027
    7    7   11    8        0.0001649035
    7    7    9    9        0.3089911036
    7    7   10    9        0.0000000426
    7    7   11    9        0.0001066973
    7    7   10   10        0.3301935009
    7    7   11   10       -0.0000003421
    7    7   11   11        0.3039897401
    8    7    8    7        0.0144413588
    8    7    9    7        0.0000000001
    8    7   10    7       -0.0000000987
    8    7   11    7        0.0000126189
    8    7    8    8        0.0000006726
    8    7    9    8        0.0000000341
    8    7   10    8        0.0001637339
    8    7   11    8        0.0000000325
    8    7    9    9        0.0000005749
    8    7   10    9        0.0000000018
    8    7   11    9        0.0000000352
    8    7   10   10        0.0000006245
    8    7   11   10       -0.0000045777
    8    7   11   11        0.0000256083
    9    7    9    7        0.0144424347
    9    7   10    7       -0.0000000408
    9    7   11    7        0.0000081652
    9    7    8    8        0.0000002557
    9    7    9    8        0.0000000414
    9    7   10    8       -0.0000000014
    9    7   11    8        0.0000000242
    9    7    9    9        0.0000002635
    9    7   10    9        0.0001616077
    9    7   11    9       -0.0000000081
    9    7   10   10        0.0000002589
    9    7   11   10       -0.0000029606
    9    7   11   11        0.0000164017
   10    7   10    7        0.0170172991
   10    7   11    7       -0.0000000225
   10    7    8    8       -0.0070769885
   10    7    9    8        0.0000000000
   10    7   10    8       -0.0000000862
   10    7   11    8       -0.0000049334
   10    7    9    9       -0.0070822483
   10    7   10    9       -0.0000000353
   10    7   11    9       -0.0000031971
   10    7   10   10       -0.0089123195
   10    7   11   10       -0.0000000115
   10    7   11   11       -0.0056470527
   11    7   11    7        0.0081289058
   11    7    8    8       -0.0000002135
   11    7    9    8        0.0000000039
   11    7   10    8       -0.0000064434
   11    7   11    8        0.0000813774
   11    7    9    9       -0.0000002184
   11    7   10    9       -0.0000041678
   11    7   11    9        0.0000526534
   11    7   10   10       -0.0000002581
   11    7   11   10        0.0034148575
   11    7   11   11       -0.0000001933
    8    8    8    8        0.3473540199
    8    8    9    8       -0.0000006632
    8    8   10    8        0.0000003899
    8    8   11    8       -0.0000245956
    8    8    9    9        0.3183198342
    8    8   10    9        0.0000001384
    8    8   11    9       -0.0000137638
    8    8   10   10        0.3388795564
    8    8   11   10        0.0000001340
    8    8   11   11        0.3277826292
    9    8    9    8        0.0151593916
    9    8   10    8        0.0000000338
    9    8   11    8       -0.0000011102
    9    8    9    9        0.0000006606
    9    8   10    9        0.0000000432
    9    8   11    9       -0.0000017401
    9    8   10   10       -0.0000000016
    9    8   11   10        0.0000000001
    9    8   11   11        0.0099265631
   10    8   10    8        0.0186802068
   10    8   11    8       -0.0000000200
   10    8    9    9        0.0000002958
   10    8   10    9        0.0000000000
   10    8   11    9       -0.0000000090
   10    8   10   10        0.0000004154
   10    8   11   10        0.0000007014
   10    8   11   11       -0.0000403489
   11    8   11    8        0.0517921096
   11    8    9    9       -0.0000211947
   11    8   10    9        0.0000000007
   11    8   11    9        0.0293588241
   11    8   10   10       -0.0000220964
   11    8   11   10       -0.0001114864
   11    8   11   11        0.0000027849
    9    9    9    9        0.3473168696
    9    9   10    9        0.0000001454
    9    9   11    9       -0.0000159547
    9    9   10   10        0.3388662260
    9    9   11   10        0.0000001370
    9    9   11   11        0.3190413860
   10    9   10    9        0.0186855241
   10    9   11    9       -0.0000000041
   10    9   10   10        0.0000001717
   10    9   11   10        0.0000004502
   10    9   11   11       -0.0000262863
   11    9   11    9        0.0255099602
   11    9   10   10       -0.0000143433
   11    9   11   10       -0.0000722081
   11    9   11   11        0.0000017675
   10   10   10   10        0.3897478007
   10   10   11   10        0.0000001970
   10   10   11   11        0.3476615249
   11   10   11   10        0.0193873917
   11   10   11   11        0.0000001033
   11   11   11   11        0.3500631859
 end_two_electron_integrals


 output epsi filename:./pspw_hf_H2.emovecs

 Total PSPW energy     :  -0.8359374052E+00


=== Spin Contamination ===

 <Sexact^2> =    0.0000000000000000     
 <S^2>      =    0.0000000000000000     



== Center of Charge ==

spin up     (    0.0000,    0.0000,    0.0004 )
spin down   (    0.0000,    0.0000,    0.0004 )
     total  (    0.0000,    0.0000,    0.0004 )
ionic       (    0.0000,    0.0000,    0.0000 )


== Molecular Dipole wrt Center of Mass ==

mu   =  (   -0.0000,   -0.0000,   -0.0008 ) au
|mu| =     0.0008 au,       0.0021 Debye

 output psi filename:./pspw_hf_H2.movecs

 Writing Crystallographic Information File:./H2.cif
   - cell not shifted (nwpw:cif_shift_cell .false.)


== Timing ==

cputime in seconds
  prologue    :   0.592148E+01
  main loop   :   0.300399E+03
  epilogue    :   0.165829E-01
  total       :   0.306337E+03
  cputime/step:   0.210069E+01       (     143 evalulations,      60 linesearches)


Time spent doing                        total          step       percent
  total time                 :   0.306348E+03  0.214229E+01       100.0 %
  i/o time                   :   0.258358E+00  0.180670E-02         0.1 %
  FFTs                       :   0.212899E+03  0.148880E+01        69.5 %
  dot products               :   0.893795E+01  0.625032E-01         2.9 %
  geodesic                   :   0.543819E-01  0.380293E-03         0.0 %
  ffm_dgemm                  :   0.737422E-02  0.515680E-04         0.0 %
  fmf_dgemm                  :   0.668942E-02  0.467792E-04         0.0 %
  mmm_dgemm                  :   0.250724E-02  0.175331E-04         0.0 %
  m_diagonalize              :   0.125857E-02  0.880122E-05         0.0 %
  local pseudopotentials     :   0.475776E+01  0.332710E-01         1.6 %
  non-local pseudopotentials :   0.830381E+01  0.580686E-01         2.7 %
  structure factors          :   0.492425E+00  0.344353E-02         0.2 %
  phase factors              :   0.731900E-05  0.511818E-07         0.0 %
  masking and packing        :   0.529057E+01  0.369970E-01         1.7 %
  queue fft                  :   0.657938E+01  0.460096E-01         2.1 %
  queue fft (serial)         :   0.248848E+01  0.174020E-01         0.8 %
  queue fft (message passing):   0.405791E+01  0.283770E-01         1.3 %
  HFX potential              :   0.317133E+01  0.221771E-01         1.0 %
  non-local psp FFM          :   0.791377E+01  0.553411E-01         2.6 %
  non-local psp FMF          :   0.843749E-01  0.590034E-03         0.0 %
  non-local psp FFM A        :   0.349411E-01  0.244343E-03         0.0 %
  non-local psp FFM B        :   0.117165E+00  0.819336E-03         0.0 %

== HFX Counters ==
  HFX Evalulations         =   143
  Lin ACE HFX Evalulations =     0


     >>>  JOB COMPLETED     AT Mon Apr 14 15:54:26 2025  <<<

 Task  times  cpu:      284.0s     wall:      306.4s


                                NWChem Input Module
                                -------------------


 Summary of allocated global arrays
-----------------------------------
  No active global arrays


MA_summarize_allocated_blocks: starting scan ...
MA_summarize_allocated_blocks: scan completed: 0 heap blocks, 0 stack blocks
MA usage statistics:

	allocation statistics:
					      heap	     stack
					      ----	     -----
	current number of blocks	         0	         0
	maximum number of blocks	       313	        36
	current total bytes		         0	         0
	maximum total bytes		  16366104	   5334696
	maximum total K-bytes		     16367	      5335
	maximum total M-bytes		        17	         6


                                     CITATION
                                     --------
                Please cite the following reference when publishing
                           results obtained with NWChem:

          E. Apra, E. J. Bylaska, W. A. de Jong, N. Govind, K. Kowalski,
       T. P. Straatsma, M. Valiev, H. J. J. van Dam, Y. Alexeev, J. Anchell,
       V. Anisimov, F. W. Aquino, R. Atta-Fynn, J. Autschbach, N. P. Bauman,
     J. C. Becca, D. E. Bernholdt, K. Bhaskaran-Nair, S. Bogatko, P. Borowski,
         J. Boschen, J. Brabec, A. Bruner, E. Cauet, Y. Chen, G. N. Chuev,
      C. J. Cramer, J. Daily, M. J. O. Deegan, T. H. Dunning Jr., M. Dupuis,
   K. G. Dyall, G. I. Fann, S. A. Fischer, A. Fonari, H. Fruchtl, L. Gagliardi,
      J. Garza, N. Gawande, S. Ghosh, K. Glaesemann, A. W. Gotz, J. Hammond,
       V. Helms, E. D. Hermes, K. Hirao, S. Hirata, M. Jacquelin, L. Jensen,
   B. G. Johnson, H. Jonsson, R. A. Kendall, M. Klemm, R. Kobayashi, V. Konkov,
      S. Krishnamoorthy, M. Krishnan, Z. Lin, R. D. Lins, R. J. Littlefield,
      A. J. Logsdail, K. Lopata, W. Ma, A. V. Marenich, J. Martin del Campo,
   D. Mejia-Rodriguez, J. E. Moore, J. M. Mullin, T. Nakajima, D. R. Nascimento,
    J. A. Nichols, P. J. Nichols, J. Nieplocha, A. Otero-de-la-Roza, B. Palmer,
    A. Panyala, T. Pirojsirikul, B. Peng, R. Peverati, J. Pittner, L. Pollack,
   R. M. Richard, P. Sadayappan, G. C. Schatz, W. A. Shelton, D. W. Silverstein,
   D. M. A. Smith, T. A. Soares, D. Song, M. Swart, H. L. Taylor, G. S. Thomas,
            V. Tipparaju, D. G. Truhlar, K. Tsemekhman, T. Van Voorhis,
      A. Vazquez-Mayagoitia, P. Verma, O. Villa, A. Vishnu, K. D. Vogiatzis,
        D. Wang, J. H. Weare, M. J. Williamson, T. L. Windus, K. Wolinski,
        A. T. Wong, Q. Wu, C. Yang, Q. Yu, M. Zacharias, Z. Zhang, Y. Zhao,
                                and R. J. Harrison
                        "NWChem: Past, present, and future
                         J. Chem. Phys. 152, 184102 (2020)
                               doi:10.1063/5.0004997

                                      AUTHORS
                                      -------
  E. Apra, E. J. Bylaska, N. Govind, K. Kowalski, M. Valiev, D. Mejia-Rodriguez,
       A. Kunitsa, N. P. Bauman, A. Panyala, W. A. de Jong, T. P. Straatsma,
   H. J. J. van Dam, D. Wang, T. L. Windus, J. Hammond, J. Autschbach, A. Woods,
    K. Bhaskaran-Nair, J. Brabec, K. Lopata, S. A. Fischer, S. Krishnamoorthy,
     M. Jacquelin, W. Ma, M. Klemm, O. Villa, Y. Chen, V. Anisimov, F. Aquino,
     S. Hirata, M. T. Hackler, E. Hermes, L. Jensen, J. E. Moore, J. C. Becca,
      V. Konjkov, T. Risthaus, M. Malagoli, A. Marenich, A. Otero-de-la-Roza,
        J. Mullin, P. Nichols, R. Peverati, J. Pittner, Y. Zhao, P.-D. Fan,
        A. Fonari, M. J. Williamson, R. J. Harrison, J. R. Rehr, M. Dupuis,
     D. Silverstein, D. M. A. Smith, J. Nieplocha, V. Tipparaju, M. Krishnan,
     B. E. Van Kuiken, A. Vazquez-Mayagoitia, M. Swart, Q. Wu, T. Van Voorhis,
     A. A. Auer, M. Nooijen, L. D. Crosby, E. Brown, G. Cisneros, G. I. Fann,
   H. Fruchtl, J. Garza, K. Hirao, R. A. Kendall, J. A. Nichols, K. Tsemekhman,
    K. Wolinski, J. Anchell, D. E. Bernholdt, P. Borowski, T. Clark, D. Clerc,
   H. Dachsel, M. J. O. Deegan, K. Dyall, D. Elwood, E. Glendening, M. Gutowski,
   A. C. Hess, J. Jaffe, B. G. Johnson, J. Ju, R. Kobayashi, R. Kutteh, Z. Lin,
   R. Littlefield, X. Long, B. Meng, T. Nakajima, S. Niu, L. Pollack, M. Rosing,
   K. Glaesemann, G. Sandrone, M. Stave, H. Taylor, G. Thomas, J. H. van Lenthe,
                               A. T. Wong, Z. Zhang.

 Total times  cpu:      284.0s     wall:      306.4s
