 argument  1 = H2-4.5.nw



============================== echo of input deck ==============================
title "swnc: e theory=pspw4 xc=hf formula=H2 charge=0 mult=1"
#machinejob:expert

echo

start pspw_hf_H2

memory heap 1200 mb stack 1200 mb global 10 mb

charge 0

geometry
H    0.00000    0.00000   -2.25000
H    0.00000    0.00000    2.25000
end

nwpw
  ### pseudopotential block begin ###
  ### pseudopotential block end   ###
  simulation_cell
     SC 20.0000
     boundary_conditions aperiodic
  end

  cutoff 50.0
  mult 1
  xc hf
  lmbfgs
  tolerances 1.0e-9 1.0e-9

  virtual 10
end
set nwpw:cif_filename H2

#set nwpw:CI_maxit_orb 15
#set nwpw:CI_maxit_linesearch 15
set pspw:HFX_screening_radius 14.0


set nwpw:2qintegrals .true.
set nwpw:3x3_virtual .true.

task pspw energy

================================================================================


                                         
                                         


             Northwest Computational Chemistry Package (NWChem) 7.2.3
             --------------------------------------------------------


                    Environmental Molecular Sciences Laboratory
                       Pacific Northwest National Laboratory
                                Richland, WA 99352

                              Copyright (c) 1994-2022
                       Pacific Northwest National Laboratory
                            Battelle Memorial Institute

             NWChem is an open-source computational chemistry package
                        distributed under the terms of the
                      Educational Community License (ECL) 2.0
             A copy of the license is included with this distribution
                              in the LICENSE.TXT file

                                  ACKNOWLEDGMENT
                                  --------------

            This software and its documentation were developed at the
            EMSL at Pacific Northwest National Laboratory, a multiprogram
            national laboratory, operated for the U.S. Department of Energy
            by Battelle under Contract Number DE-AC05-76RL01830. Support
            for this work was provided by the Department of Energy Office
            of Biological and Environmental Research, Office of Basic
            Energy Sciences, and the Office of Advanced Scientific Computing.


           Job information
           ---------------

    hostname        = mqs-al
    program         = nwchem
    date            = Wed Apr 23 09:35:47 2025

    compiled        = Thu_Oct_31_08:55:15_2024
    source          = /home/conda/feedstock_root/build_artifacts/nwchem_1730356057992/work
    nwchem branch   = 7.2.3
    nwchem revision = c400b04
    ga revision     = 5.8.0
    use scalapack   = T
    input           = H2-4.5.nw
    prefix          = pspw_hf_H2.
    data base       = ./pspw_hf_H2.db
    status          = startup
    nproc           =       24
    time left       =     -1s



           Memory information
           ------------------

    heap     =  157286394 doubles =   1200.0 Mbytes
    stack    =  157286399 doubles =   1200.0 Mbytes
    global   =    1310720 doubles =     10.0 Mbytes (distinct from heap & stack)
    total    =  315883513 doubles =   2410.0 Mbytes
    verify   = yes
    hardfail = no 


           Directory information
           ---------------------

  0 permanent = .
  0 scratch   = .




                                NWChem Input Module
                                -------------------


               swnc: e theory=pspw4 xc=hf formula=H2 charge=0 mult=1
               -----------------------------------------------------

 Scaling coordinates for geometry "geometry" by  1.889725989
 (inverse scale =  0.529177249)

  zeroes
  zeroes
  zeroes
  zeroes
  zeroes
  zeroes
  zeroes
  zeroes
  zeroes
  zeroes
  zeroes
  zeroes
  zeroes
  zeroes
  zeroes
  zeroes
  zeroes
  zeroes
  zeroes
  zeroes
  zeroes
  zeroes
  zeroes
  zeroes
  zeroes
  zeroes
  zeroes
  zeroes
  zeroes
  zeroes
  zeroes
  zeroes
  zeroes
  zeroes
  zeroes
  zeroes
  zeroes
  zeroes
  zeroes
  zeroes
  zeroes
  zeroes
  zeroes
  zeroes
  zeroes
  zeroes
  zeroes
  zeroes
 ORDER OF PRIMARY AXIS IS BEING SET TO 4
 D4H symmetry detected

          ------
          auto-z
          ------
     1 autoz failed with cvr_scaling = 1.2 changing to 1.3
     2 autoz failed with cvr_scaling = 1.3 changing to 1.4
     3 autoz failed with cvr_scaling = 1.4 changing to 1.5
     4 autoz failed with cvr_scaling = 1.5 changing to 1.6
     5 autoz failed with cvr_scaling = 1.6 changing to 1.7

 AUTOZ failed to generate good internal coordinates.
 Cartesian coordinates will be used in optimizations.



                             Geometry "geometry" -> ""
                             -------------------------

 Output coordinates in angstroms (scale by  1.889725989 to convert to a.u.)

  No.       Tag          Charge          X              Y              Z
 ---- ---------------- ---------- -------------- -------------- --------------
    1 H                    1.0000     0.00000000     0.00000000    -2.25000000
    2 H                    1.0000     0.00000000     0.00000000     2.25000000

      Atomic Mass 
      ----------- 

      H                  1.007825


 Effective nuclear repulsion energy (a.u.)       0.1175949442

            Nuclear Dipole moment (a.u.) 
            ----------------------------
        X                 Y               Z
 ---------------- ---------------- ----------------
     0.0000000000     0.0000000000     0.0000000000

      Symmetry information
      --------------------

 Group name             D4h       
 Group number             28
 Group order              16
 No. of unique centers     1

      Symmetry unique atoms

     1


            XYZ format geometry
            -------------------
     2
 geometry
 H                     0.00000000     0.00000000    -2.25000000
 H                     0.00000000     0.00000000     2.25000000

          ****************************************************
          *                                                  *
          *               NWPW PSPW Calculation              *
          *                                                  *
          * [ (Grassmann/Stiefel manifold implementation)  ] *
          *                                                  *
          *      [ NorthWest Chemistry implementation ]      *
          *                                                  *
          *            version #5.10   06/12/02              *
          *                                                  *
          *    This code was developed by Eric J. Bylaska,   *
          *    and was based upon algorithms and code        *
          *    developed by the group of Prof. John H. Weare *
          *                                                  *
          ****************************************************
     >>>  JOB STARTED       AT Wed Apr 23 09:35:47 2025  <<<
          ================ input data ========================

 input psi filename:./pspw_hf_H2.movecs

 number of processors used:        24
 processor grid           :  24 x   1
 parallel mapping         :2d-hilbert
 parallel mapping         :  balanced
 number of threads        :         1
 parallel io              :       off

 options:
      boundary conditions  = aperiodic   (version4)
      electron spin        = restricted
      exchange-correlation = Hartree-Fock
      - HFX relaxed
      - HFX restricted orbitals :    1
      - HFX free-space coulomb solver


 elements involved in the cluster:
      1: H   valence charge:  1.0000  lmax=  1
             comment    : Parameterized (Chem.Phys.Lett., vol 322, page 447) Hamman psp
             pseudpotential type            :   0
             highest angular component      :   1
             local potential used           :   1
             number of non-local projections:   1
             aperiodic cutoff radius        :  1.000
             cutoff =   0.800   0.800


 total charge:   0.000

 atomic composition:
     H   :    2

 number of electrons: spin up=     1 (   1 per task)  down=     1 (   1 per task) (Fourier space)
 number of orbitals : spin up=     1 (   1 per task)  down=     1 (   1 per task) (Fourier space)

 supercell:
      cell_name:  cell_default                                      
      lattice:    a1=<  20.000   0.000   0.000 >
                  a2=<   0.000  20.000   0.000 >
                  a3=<   0.000   0.000  20.000 >
      reciprocal: b1=<   0.314   0.000   0.000 >
                  b2=<   0.000   0.314   0.000 >
                  b3=<   0.000   0.000   0.314 >
      lattice:    a=      20.000 b=     20.000 c=      20.000
                  alpha=  90.000 beta=  90.000 gamma=  90.000
                  omega=      8000.0

      density cutoff=100.000  fft= 96x 96x 96(   191162 waves     7965 per task)
      wavefnc cutoff= 50.000  fft= 96x 96x 96(    67522 waves     2813 per task)

 technical parameters:
      time step=      5.80     fictitious mass=  400000.0
      tolerance=0.100E-08 (energy)   0.100E-08 (density)
      maximum iterations =      1000 (   10 inner    100 outer )





== Energy Calculation ==


          ============ Grassmann lmbfgs iteration ============
     >>>  ITERATION STARTED AT Wed Apr 23 09:35:54 2025  <<<
    iter.           Energy         DeltaE       DeltaRho 
    ------------------------------------------------------
      10   -0.7755627555E+00   -0.14689E-02    0.71989E-02
     -  10 steepest descent iterations performed
      20   -0.7801790595E+00   -0.12802E-03    0.54639E-04
      30   -0.7804460162E+00   -0.68594E-05    0.48686E-05
      40   -0.7804676179E+00   -0.43347E-06    0.11201E-06
      50   -0.7804691179E+00   -0.24140E-07    0.85885E-08
      60   -0.7804692002E+00   -0.21691E-08    0.12057E-09
      70   -0.7804692043E+00   -0.85167E-09    0.57534E-11
  *** tolerance ok. iteration terminated
     >>>  ITERATION ENDED   AT Wed Apr 23 09:36:16 2025  <<<


==  Summary Of Results  ==

 number of electrons: spin up=    1.00000  down=    1.00000 (real space)

 total     energy    :  -0.7804692043E+00 (   -0.39023E+00/ion)
 total orbital energy:  -0.5876429165E+00 (   -0.58764E+00/electron)
 hartree   energy    :   0.6208424640E+00 (    0.62084E+00/electron)
 exc-corr  energy    :   0.0000000000E+00 (    0.00000E+00/electron)
 HF exchange energy  :  -0.3104212320E+00 (   -0.31042E+00/electron)
 ion-ion   energy    :   0.1175949442E+00 (    0.58797E-01/ion)

 kinetic (planewave) :   0.6544696980E+00 (    0.65447E+00/electron)
 V_local (planewave) :  -0.1711106907E+01 (   -0.17111E+01/electron)
 V_nl    (planewave) :  -0.1518481717E+00 (   -0.15185E+00/electron)
 V_Coul  (planewave) :   0.1241684928E+01 (    0.12417E+01/electron)
 V_xc.   (planewave) :   0.0000000000E+00 (    0.00000E+00/electron)
 K.S. HFX energy     :  -0.6208424640E+00 (   -0.62084E+00/electron)
 Virial Coefficient  :  -0.9492725980E+00

 orbital energies:
    -0.2938215E+00 (  -7.995eV)


== Virtual Orbital Calculation ==


 input epsi filename:./pspw_hf_H2.emovecs

 COVOs Mimimization
 ------------------
CI gradient algorithm =         3
maxit_sweeps          =         3
maxit_orb             =       120
maxit_linesearch      =        15
maxerror              = 0.100E-08

     orb,it,eci,eold,eci-eold=                    1                    1 -0.93365364244217275      -0.91263700925209124       -2.1016633190081513E-002 F
     orb,it,eci,eold,eci-eold=                    1                    2 -0.94678972051977439      -0.93365364244217275       -1.3136078077601643E-002 F
     orb,it,eci,eold,eci-eold=                    1                    3 -0.94912376498444040      -0.94678972051977439       -2.3340444646660075E-003 F
     orb,it,eci,eold,eci-eold=                    1                    4 -0.95382766073710579      -0.94912376498444040       -4.7038957526653880E-003 F
     orb,it,eci,eold,eci-eold=                    1                    5 -0.95872235317926369      -0.95382766073710579       -4.8946924421578997E-003 F
     orb,it,eci,eold,eci-eold=                    1                    6 -0.95903593200893844      -0.95872235317926369       -3.1357882967475437E-004 F
     orb,it,eci,eold,eci-eold=                    1                    7 -0.95908211232939933      -0.95903593200893844       -4.6180320460886826E-005 F
     orb,it,eci,eold,eci-eold=                    1                    8 -0.96395593439154770      -0.95908211232939933       -4.8738220621483697E-003 F
     orb,it,eci,eold,eci-eold=                    1                    9 -0.96620380480598145      -0.96395593439154770       -2.2478704144337502E-003 F
     orb,it,eci,eold,eci-eold=                    1                   10 -0.96705973757288555      -0.96620380480598145       -8.5593276690409947E-004 F
     orb,it,eci,eold,eci-eold=                    1                   11 -0.96787805377277658      -0.96705973757288555       -8.1831619989103377E-004 F
     orb,it,eci,eold,eci-eold=                    1                   12 -0.96992390185207966      -0.96787805377277658       -2.0458480793030809E-003 F
     orb,it,eci,eold,eci-eold=                    1                   13 -0.97100611675240822      -0.96992390185207966       -1.0822149003285597E-003 F
     orb,it,eci,eold,eci-eold=                    1                   14 -0.97186226141772358      -0.97100611675240822       -8.5614466531536149E-004 F
     orb,it,eci,eold,eci-eold=                    1                   15 -0.97224507724504583      -0.97186226141772358       -3.8281582732224706E-004 F
     orb,it,eci,eold,eci-eold=                    1                   16 -0.97317878175720285      -0.97224507724504583       -9.3370451215701866E-004 F
     orb,it,eci,eold,eci-eold=                    1                   17 -0.97349540880233998      -0.97317878175720285       -3.1662704513713003E-004 F
     orb,it,eci,eold,eci-eold=                    1                   18 -0.97370409701380944      -0.97349540880233998       -2.0868821146946548E-004 F
     orb,it,eci,eold,eci-eold=                    1                   19 -0.97411970509435553      -0.97370409701380944       -4.1560808054608156E-004 F
     orb,it,eci,eold,eci-eold=                    1                   20 -0.97441081328925860      -0.97411970509435553       -2.9110819490307804E-004 F
     orb,it,eci,eold,eci-eold=                    1                   21 -0.97499682044959035      -0.97441081328925860       -5.8600716033174738E-004 F
     orb,it,eci,eold,eci-eold=                    1                   22 -0.97516333055994853      -0.97499682044959035       -1.6651011035817564E-004 F
     orb,it,eci,eold,eci-eold=                    1                   23 -0.97525414118804976      -0.97516333055994853       -9.0810628101234414E-005 F
     orb,it,eci,eold,eci-eold=                    1                   24 -0.97554735369064727      -0.97525414118804976       -2.9321250259750631E-004 F
     orb,it,eci,eold,eci-eold=                    1                   25 -0.97560590867877561      -0.97554735369064727       -5.8554988128345364E-005 F
     orb,it,eci,eold,eci-eold=                    1                   26 -0.97568066278311028      -0.97560590867877561       -7.4754104334662230E-005 F
     orb,it,eci,eold,eci-eold=                    1                   27 -0.97597793098377661      -0.97568066278311028       -2.9726820066633408E-004 F
     orb,it,eci,eold,eci-eold=                    1                   28 -0.97613114827797376      -0.97597793098377661       -1.5321729419714991E-004 F
     orb,it,eci,eold,eci-eold=                    1                   29 -0.97622628153773205      -0.97613114827797376       -9.5133259758295452E-005 F
     orb,it,eci,eold,eci-eold=                    1                   30 -0.97645922106633454      -0.97622628153773205       -2.3293952860248268E-004 F
     orb,it,eci,eold,eci-eold=                    1                   31 -0.97660214559810710      -0.97645922106633454       -1.4292453177255915E-004 F
     orb,it,eci,eold,eci-eold=                    1                   32 -0.97675328649747439      -0.97660214559810710       -1.5114089936729691E-004 F
     orb,it,eci,eold,eci-eold=                    1                   33 -0.97683631677788751      -0.97675328649747439       -8.3030280413121105E-005 F
     orb,it,eci,eold,eci-eold=                    1                   34 -0.97702068926426011      -0.97683631677788751       -1.8437248637259707E-004 F
     orb,it,eci,eold,eci-eold=                    1                   35 -0.97703443125422007      -0.97702068926426011       -1.3741989959958900E-005 F
     orb,it,eci,eold,eci-eold=                    1                   36 -0.97704669673576916      -0.97703443125422007       -1.2265481549089685E-005 F
     orb,it,eci,eold,eci-eold=                    1                   37 -0.97717671104050252      -0.97704669673576916       -1.3001430473336129E-004 F
     orb,it,eci,eold,eci-eold=                    1                   38 -0.97725162855581860      -0.97717671104050252       -7.4917515316075267E-005 F
     orb,it,eci,eold,eci-eold=                    1                   39 -0.97732945534099636      -0.97725162855581860       -7.7826785177759206E-005 F
     orb,it,eci,eold,eci-eold=                    1                   40 -0.97736684240424598      -0.97732945534099636       -3.7387063249627595E-005 F
     orb,it,eci,eold,eci-eold=                    1                   41 -0.97744092969640395      -0.97736684240424598       -7.4087292157964946E-005 F
     orb,it,eci,eold,eci-eold=                    1                   42 -0.97746075017320977      -0.97744092969640395       -1.9820476805820775E-005 F
     orb,it,eci,eold,eci-eold=                    1                   43 -0.97747290307212320      -0.97746075017320977       -1.2152898913431187E-005 F
     orb,it,eci,eold,eci-eold=                    1                   44 -0.97751490424511189      -0.97747290307212320       -4.2001172988692659E-005 F
     orb,it,eci,eold,eci-eold=                    1                   45 -0.97751958551981388      -0.97751490424511189       -4.6812747019897571E-006 F
     orb,it,eci,eold,eci-eold=                    1                   46 -0.97752660905886291      -0.97751958551981388       -7.0235390490225313E-006 F
     orb,it,eci,eold,eci-eold=                    1                   47 -0.97757608982258437      -0.97752660905886291       -4.9480763721465593E-005 F
     orb,it,eci,eold,eci-eold=                    1                   48 -0.97760312634982627      -0.97757608982258437       -2.7036527241897090E-005 F
     orb,it,eci,eold,eci-eold=                    1                   49 -0.97761073274811072      -0.97760312634982627       -7.6063982844543077E-006 F
     orb,it,eci,eold,eci-eold=                    1                   50 -0.97764216694210171      -0.97761073274811072       -3.1434193990986792E-005 F
     orb,it,eci,eold,eci-eold=                    1                   51 -0.97764705374455596      -0.97764216694210171       -4.8868024542514377E-006 F
     orb,it,eci,eold,eci-eold=                    1                   52 -0.97764915825786269      -0.97764705374455596       -2.1045133067332245E-006 F
     orb,it,eci,eold,eci-eold=                    1                   53 -0.97767829698028075      -0.97764915825786269       -2.9138722418053931E-005 F
     orb,it,eci,eold,eci-eold=                    1                   54 -0.97769178093109099      -0.97767829698028075       -1.3483950810244671E-005 F
     orb,it,eci,eold,eci-eold=                    1                   55 -0.97769421582936444      -0.97769178093109099       -2.4348982734512248E-006 F
     orb,it,eci,eold,eci-eold=                    1                   56 -0.97771761316931105      -0.97769421582936444       -2.3397339946606976E-005 F
     orb,it,eci,eold,eci-eold=                    1                   57 -0.97773158873287458      -0.97771761316931105       -1.3975563563528581E-005 F
     orb,it,eci,eold,eci-eold=                    1                   58 -0.97773559968011914      -0.97773158873287458       -4.0109472445593042E-006 F
     orb,it,eci,eold,eci-eold=                    1                   59 -0.97775149635995362      -0.97773559968011914       -1.5896679834481731E-005 F
     orb,it,eci,eold,eci-eold=                    1                   60 -0.97775798784425905      -0.97775149635995362       -6.4914843054264537E-006 F
     orb,it,eci,eold,eci-eold=                    1                   61 -0.97776263336059255      -0.97775798784425905       -4.6455163335012983E-006 F
     orb,it,eci,eold,eci-eold=                    1                   62 -0.97778105038672170      -0.97776263336059255       -1.8417026129147196E-005 F
     orb,it,eci,eold,eci-eold=                    1                   63 -0.97778579992079084      -0.97778105038672170       -4.7495340691483534E-006 F
     orb,it,eci,eold,eci-eold=                    1                   64 -0.97778639810268508      -0.97778579992079084       -5.9818189424021284E-007 F
     orb,it,eci,eold,eci-eold=                    1                   65 -0.97779868385097024      -0.97778639810268508       -1.2285748285156828E-005 F
     orb,it,eci,eold,eci-eold=                    1                   66 -0.97780486374957598      -0.97779868385097024       -6.1798986057404193E-006 F
     orb,it,eci,eold,eci-eold=                    1                   67 -0.97780664474898804      -0.97780486374957598       -1.7809994120598915E-006 F
     orb,it,eci,eold,eci-eold=                    1                   68 -0.97781715095512733      -0.97780664474898804       -1.0506206139293539E-005 F
     orb,it,eci,eold,eci-eold=                    1                   69 -0.97782159189512630      -0.97781715095512733       -4.4409399989620013E-006 F
     orb,it,eci,eold,eci-eold=                    1                   70 -0.97782330838565978      -0.97782159189512630       -1.7164905334876579E-006 F
     orb,it,eci,eold,eci-eold=                    1                   71 -0.97783409787220821      -0.97782330838565978       -1.0789486548423710E-005 F
     orb,it,eci,eold,eci-eold=                    1                   72 -0.97783845584075113      -0.97783409787220821       -4.3579685429229187E-006 F
     orb,it,eci,eold,eci-eold=                    1                   73 -0.97783870795973704      -0.97783845584075113       -2.5211898591059878E-007 F
     orb,it,eci,eold,eci-eold=                    1                   74 -0.97784499557483884      -0.97783870795973704       -6.2876151017965398E-006 F
     orb,it,eci,eold,eci-eold=                    1                   75 -0.97784907391423137      -0.97784499557483884       -4.0783393925325484E-006 F
     orb,it,eci,eold,eci-eold=                    1                   76 -0.97785113922058320      -0.97784907391423137       -2.0653063518283332E-006 F
     orb,it,eci,eold,eci-eold=                    1                   77 -0.97785803889628198      -0.97785113922058320       -6.8996756987793617E-006 F
     orb,it,eci,eold,eci-eold=                    1                   78 -0.97785973928239822      -0.97785803889628198       -1.7003861162434575E-006 F
     orb,it,eci,eold,eci-eold=                    1                   79 -0.97786016188009317      -0.97785973928239822       -4.2259769494901178E-007 F
     orb,it,eci,eold,eci-eold=                    1                   80 -0.97786506502985970      -0.97786016188009317       -4.9031497665330548E-006 F
     orb,it,eci,eold,eci-eold=                    1                   81 -0.97786728641336107      -0.97786506502985970       -2.2213835013662475E-006 F
     orb,it,eci,eold,eci-eold=                    1                   82 -0.97786788616124265      -0.97786728641336107       -5.9974788158001502E-007 F
     orb,it,eci,eold,eci-eold=                    1                   83 -0.97787174882349714      -0.97786788616124265       -3.8626622544946088E-006 F
     orb,it,eci,eold,eci-eold=                    1                   84 -0.97787378057447782      -0.97787174882349714       -2.0317509806799805E-006 F
     orb,it,eci,eold,eci-eold=                    1                   85 -0.97787472728930525      -0.97787378057447782       -9.4671482742114677E-007 F
     orb,it,eci,eold,eci-eold=                    1                   86 -0.97787822425226556      -0.97787472728930525       -3.4969629603143204E-006 F
     orb,it,eci,eold,eci-eold=                    1                   87 -0.97787864049583750      -0.97787822425226556       -4.1624357194347539E-007 F
     orb,it,eci,eold,eci-eold=                    1                   88 -0.97787894179991419      -0.97787864049583750       -3.0130407668860215E-007 F
     orb,it,eci,eold,eci-eold=                    1                   89 -0.97788285477236336      -0.97787894179991419       -3.9129724491715479E-006 F
     orb,it,eci,eold,eci-eold=                    1                   90 -0.97788339538518554      -0.97788285477236336       -5.4061282217521267E-007 F
     orb,it,eci,eold,eci-eold=                    1                   91 -0.97788359699372829      -0.97788339538518554       -2.0160854274919870E-007 F
     orb,it,eci,eold,eci-eold=                    1                   92 -0.97788678272204610      -0.97788359699372829       -3.1857283178116091E-006 F
     orb,it,eci,eold,eci-eold=                    1                   93 -0.97788678925009187      -0.97788678272204610       -6.5280457706151651E-009 F
     orb,it,eci,eold,eci-eold=                    1                   94 -0.97788683204886362      -0.97788678925009187       -4.2798771748842057E-008 F
     orb,it,eci,eold,eci-eold=                    1                   95 -0.97788928165347100      -0.97788683204886362       -2.4496046073796407E-006 F
     orb,it,eci,eold,eci-eold=                    1                   96 -0.97789070739211648      -0.97788928165347100       -1.4257386454774590E-006 F
     orb,it,eci,eold,eci-eold=                    1                   97 -0.97789189511198016      -0.97789070739211648       -1.1877198636822683E-006 F
     orb,it,eci,eold,eci-eold=                    1                   98 -0.97789245733318897      -0.97789189511198016       -5.6222120881077586E-007 F
     orb,it,eci,eold,eci-eold=                    1                   99 -0.97789379493222739      -0.97789245733318897       -1.3375990384201231E-006 F
     orb,it,eci,eold,eci-eold=                    1                  100 -0.97789404658107970      -0.97789379493222739       -2.5164885231188094E-007 F
     orb,it,eci,eold,eci-eold=                    1                  101 -0.97789412262070241      -0.97789404658107970       -7.6039622709522803E-008 F
     orb,it,eci,eold,eci-eold=                    1                  102 -0.97789491352804525      -0.97789412262070241       -7.9090734284026354E-007 F
     orb,it,eci,eold,eci-eold=                    1                  103 -0.97789525289693868      -0.97789491352804525       -3.3936889343166854E-007 F
     orb,it,eci,eold,eci-eold=                    1                  104 -0.97789541548706915      -0.97789525289693868       -1.6259013047026372E-007 F
     orb,it,eci,eold,eci-eold=                    1                  105 -0.97789627275317503      -0.97789541548706915       -8.5726610588032770E-007 F
     orb,it,eci,eold,eci-eold=                    1                  106 -0.97789667806497060      -0.97789627275317503       -4.0531179557046215E-007 F
     orb,it,eci,eold,eci-eold=                    1                  107 -0.97789680243744082      -0.97789667806497060       -1.2437247021157560E-007 F
     orb,it,eci,eold,eci-eold=                    1                  108 -0.97789750081790205      -0.97789680243744082       -6.9838046123926745E-007 F
     orb,it,eci,eold,eci-eold=                    1                  109 -0.97789775653740396      -0.97789750081790205       -2.5571950190705905E-007 F
     orb,it,eci,eold,eci-eold=                    1                  110 -0.97789779957743839      -0.97789775653740396       -4.3040034425345652E-008 F
     orb,it,eci,eold,eci-eold=                    1                  111 -0.97789831192372390      -0.97789779957743839       -5.1234628550833605E-007 F
     orb,it,eci,eold,eci-eold=                    1                  112 -0.97789863976388935      -0.97789831192372390       -3.2784016545939210E-007 F
     orb,it,eci,eold,eci-eold=                    1                  113 -0.97789877689324223      -0.97789863976388935       -1.3712935287291117E-007 F
     orb,it,eci,eold,eci-eold=                    1                  114 -0.97789928827456396      -0.97789877689324223       -5.1138132173278450E-007 F
     orb,it,eci,eold,eci-eold=                    1                  115 -0.97789945277212054      -0.97789928827456396       -1.6449755657621523E-007 F
     orb,it,eci,eold,eci-eold=                    1                  116 -0.97789948021850359      -0.97789945277212054       -2.7446383055185208E-008 F
     orb,it,eci,eold,eci-eold=                    1                  117 -0.97789979789751347      -0.97789948021850359       -3.1767900987578201E-007 F
     orb,it,eci,eold,eci-eold=                    1                  118 -0.97789999192399990      -0.97789979789751347       -1.9402648643307430E-007 F
     orb,it,eci,eold,eci-eold=                    1                  119 -0.97790009254775900      -0.97789999192399990       -1.0062375910280252E-007 F
     orb,it,eci,eold,eci-eold=                    1                  120 -0.97790044049587999      -0.97790009254775900       -3.4794812098226657E-007 F
     orb,it,eci,eold,eci-eold=                    1                  121 -0.97790054911085922      -0.97790044049587999       -1.0861497923286834E-007 F
     orbital   1 current e= -0.161833E+00 error=0.742E-01 (eci= -0.977900549E+00 error=0.109E-06) iterations 121(   0 preconditioned, Ep,Sp= 20.0  200.0)
     orb,it,eci,eold,eci-eold=                    1                    1 -0.97790102049522099      -0.97790054911085922       -4.7138436176652476E-007 F
     orb,it,eci,eold,eci-eold=                    1                    2 -0.97790126642134778      -0.97790102049522099       -2.4592612679619208E-007 F
     orb,it,eci,eold,eci-eold=                    1                    3 -0.97790186429854697      -0.97790126642134778       -5.9787719919324189E-007 F
     orb,it,eci,eold,eci-eold=                    1                    4 -0.97790188260991051      -0.97790186429854697       -1.8311363536582803E-008 F
     orb,it,eci,eold,eci-eold=                    1                    5 -0.97790206504196120      -0.97790188260991051       -1.8243205068824153E-007 F
     orb,it,eci,eold,eci-eold=                    1                    6 -0.97790232432867519      -0.97790206504196120       -2.5928671398833814E-007 F
     orb,it,eci,eold,eci-eold=                    1                    7 -0.97790247639405681      -0.97790232432867519       -1.5206538162004790E-007 F
     orb,it,eci,eold,eci-eold=                    1                    8 -0.97790258422984999      -0.97790247639405681       -1.0783579318385250E-007 F
     orb,it,eci,eold,eci-eold=                    1                    9 -0.97790263487834173      -0.97790258422984999       -5.0648491733973344E-008 F
     orb,it,eci,eold,eci-eold=                    1                   10 -0.97790273354457602      -0.97790263487834173       -9.8666234293887101E-008 F
     orb,it,eci,eold,eci-eold=                    1                   11 -0.97790278871128744      -0.97790273354457602       -5.5166711421250625E-008 F
     orb,it,eci,eold,eci-eold=                    1                   12 -0.97790281036267601      -0.97790278871128744       -2.1651388570909091E-008 F
     orb,it,eci,eold,eci-eold=                    1                   13 -0.97790281772568188      -0.97790281036267601       -7.3630058716744884E-009 F
     orb,it,eci,eold,eci-eold=                    1                   14 -0.97790285995767556      -0.97790281772568188       -4.2231993679919810E-008 F
     orb,it,eci,eold,eci-eold=                    1                   15 -0.97790288241965895      -0.97790285995767556       -2.2461983384403084E-008 F
     orb,it,eci,eold,eci-eold=                    1                   16 -0.97790288400082392      -0.97790288241965895       -1.5811649767272229E-009 F
     orb,it,eci,eold,eci-eold=                    1                   17 -0.97790288413034010      -0.97790288400082392       -1.2951617556211659E-010 F
     orbital   1 current e= -0.161838E+00 error=0.521E-05 (eci= -0.977902884E+00 error=0.130E-09) iterations  17(   0 preconditioned, Ep,Sp= 20.0  200.0)
     orb,it,eci,eold,eci-eold=                    1                    1 -0.97790290272943026      -0.97790288413034010       -1.8599090156889986E-008 F
     orb,it,eci,eold,eci-eold=                    1                    2 -0.97790290934596313      -0.97790290272943026       -6.6165328771461418E-009 F
     orb,it,eci,eold,eci-eold=                    1                    3 -0.97790291115617056      -0.97790290934596313       -1.8102074283987690E-009 F
     orb,it,eci,eold,eci-eold=                    1                    4 -0.97790291197986401      -0.97790291115617056       -8.2369344678312473E-010 F
     orbital   1 current e= -0.161838E+00 error=0.668E-07 (eci= -0.977902912E+00 error=0.824E-09) iterations   4(   0 preconditioned, Ep,Sp= 20.0  200.0)
     orb,it,eci,eold,eci-eold=                    2                    1 -0.78389538291060723      -0.78339180770596117       -5.0357520464605621E-004 F
     orb,it,eci,eold,eci-eold=                    2                    2 -0.78393045699249608      -0.78389538291060723       -3.5074081888852859E-005 F
     orb,it,eci,eold,eci-eold=                    2                    3 -0.78397750974137115      -0.78393045699249608       -4.7052748875064943E-005 F
     orb,it,eci,eold,eci-eold=                    2                    4 -0.78408901535692233      -0.78397750974137115       -1.1150561555117733E-004 F
     orb,it,eci,eold,eci-eold=                    2                    5 -0.78415113960940286      -0.78408901535692233       -6.2124252480533215E-005 F
     orb,it,eci,eold,eci-eold=                    2                    6 -0.78423969820048545      -0.78415113960940286       -8.8558591082588123E-005 F
     orb,it,eci,eold,eci-eold=                    2                    7 -0.78430011631147611      -0.78423969820048545       -6.0418110990667628E-005 F
     orb,it,eci,eold,eci-eold=                    2                    8 -0.78435437094632776      -0.78430011631147611       -5.4254634851647054E-005 F
     orb,it,eci,eold,eci-eold=                    2                    9 -0.78438156961821104      -0.78435437094632776       -2.7198671883277292E-005 F
     orb,it,eci,eold,eci-eold=                    2                   10 -0.78440442075822836      -0.78438156961821104       -2.2851140017321470E-005 F
     orb,it,eci,eold,eci-eold=                    2                   11 -0.78441382088188372      -0.78440442075822836       -9.4001236553564738E-006 F
     orb,it,eci,eold,eci-eold=                    2                   12 -0.78442043542088236      -0.78441382088188372       -6.6145389986393965E-006 F
     orb,it,eci,eold,eci-eold=                    2                   13 -0.78445802043634671      -0.78442043542088236       -3.7585015464358662E-005 F
     orb,it,eci,eold,eci-eold=                    2                   14 -0.78447575690414562      -0.78445802043634671       -1.7736467798901145E-005 F
     orb,it,eci,eold,eci-eold=                    2                   15 -0.78449102527849313      -0.78447575690414562       -1.5268374347510161E-005 F
     orb,it,eci,eold,eci-eold=                    2                   16 -0.78450157754683025      -0.78449102527849313       -1.0552268337127302E-005 F
     orb,it,eci,eold,eci-eold=                    2                   17 -0.78453427172340029      -0.78450157754683025       -3.2694176570036149E-005 F
     orb,it,eci,eold,eci-eold=                    2                   18 -0.78454382700045500      -0.78453427172340029       -9.5552770547069343E-006 F
     orb,it,eci,eold,eci-eold=                    2                   19 -0.78454664642363947      -0.78454382700045500       -2.8194231844747009E-006 F
     orb,it,eci,eold,eci-eold=                    2                   20 -0.78456541910402167      -0.78454664642363947       -1.8772680382195261E-005 F
     orb,it,eci,eold,eci-eold=                    2                   21 -0.78457009778750031      -0.78456541910402167       -4.6786834786427534E-006 F
     orb,it,eci,eold,eci-eold=                    2                   22 -0.78457257327015351      -0.78457009778750031       -2.4754826531969698E-006 F
     orb,it,eci,eold,eci-eold=                    2                   23 -0.78459101848914536      -0.78457257327015351       -1.8445218991858248E-005 F
     orb,it,eci,eold,eci-eold=                    2                   24 -0.78459911802908711      -0.78459101848914536       -8.0995399417416181E-006 F
     orb,it,eci,eold,eci-eold=                    2                   25 -0.78460100379705922      -0.78459911802908711       -1.8857679721095977E-006 F
     orb,it,eci,eold,eci-eold=                    2                   26 -0.78461171679488140      -0.78460100379705922       -1.0712997822182047E-005 F
     orb,it,eci,eold,eci-eold=                    2                   27 -0.78461437726116134      -0.78461171679488140       -2.6604662799467604E-006 F
     orb,it,eci,eold,eci-eold=                    2                   28 -0.78461625881374564      -0.78461437726116134       -1.8815525842930114E-006 F
     orb,it,eci,eold,eci-eold=                    2                   29 -0.78462716380015729      -0.78461625881374564       -1.0904986411652828E-005 F
     orb,it,eci,eold,eci-eold=                    2                   30 -0.78462883320584575      -0.78462716380015729       -1.6694056884647424E-006 F
     orb,it,eci,eold,eci-eold=                    2                   31 -0.78462946696169245      -0.78462883320584575       -6.3375584669067564E-007 F
     orb,it,eci,eold,eci-eold=                    2                   32 -0.78463808285111147      -0.78462946696169245       -8.6158894190280222E-006 F
     orb,it,eci,eold,eci-eold=                    2                   33 -0.78463911387036611      -0.78463808285111147       -1.0310192546381103E-006 F
     orb,it,eci,eold,eci-eold=                    2                   34 -0.78463955218601111      -0.78463911387036611       -4.3831564500163012E-007 F
     orb,it,eci,eold,eci-eold=                    2                   35 -0.78464589159884501      -0.78463955218601111       -6.3394128339000488E-006 F
     orb,it,eci,eold,eci-eold=                    2                   36 -0.78464788301055832      -0.78464589159884501       -1.9914117133090770E-006 F
     orb,it,eci,eold,eci-eold=                    2                   37 -0.78464848394154374      -0.78464788301055832       -6.0093098541713630E-007 F
     orb,it,eci,eold,eci-eold=                    2                   38 -0.78465441162415961      -0.78464848394154374       -5.9276826158694007E-006 F
     orb,it,eci,eold,eci-eold=                    2                   39 -0.78465504606755643      -0.78465441162415961       -6.3444339681861806E-007 F
     orb,it,eci,eold,eci-eold=                    2                   40 -0.78465532413255634      -0.78465504606755643       -2.7806499991456235E-007 F
     orb,it,eci,eold,eci-eold=                    2                   41 -0.78465912312958874      -0.78465532413255634       -3.7989970324003863E-006 F
     orb,it,eci,eold,eci-eold=                    2                   42 -0.78466003630921932      -0.78465912312958874       -9.1317963057946372E-007 F
     orb,it,eci,eold,eci-eold=                    2                   43 -0.78466005184015786      -0.78466003630921932       -1.5530938535235350E-008 F
     orb,it,eci,eold,eci-eold=                    2                   44 -0.78466326077561277      -0.78466005184015786       -3.2089354549125204E-006 F
     orb,it,eci,eold,eci-eold=                    2                   45 -0.78466547972466372      -0.78466326077561277       -2.2189490509472165E-006 F
     orb,it,eci,eold,eci-eold=                    2                   46 -0.78466620385559271      -0.78466547972466372       -7.2413092899736853E-007 F
     orb,it,eci,eold,eci-eold=                    2                   47 -0.78466902918173509      -0.78466620385559271       -2.8253261423749620E-006 F
     orb,it,eci,eold,eci-eold=                    2                   48 -0.78466940812418984      -0.78466902918173509       -3.7894245474845434E-007 F
     orb,it,eci,eold,eci-eold=                    2                   49 -0.78466964472469325      -0.78466940812418984       -2.3660050341156591E-007 F
     orb,it,eci,eold,eci-eold=                    2                   50 -0.78467270992010807      -0.78466964472469325       -3.0651954148197547E-006 F
     orb,it,eci,eold,eci-eold=                    2                   51 -0.78467448428388886      -0.78467270992010807       -1.7743637807932089E-006 F
     orb,it,eci,eold,eci-eold=                    2                   52 -0.78467582068599184      -0.78467448428388886       -1.3364021029804718E-006 F
     orb,it,eci,eold,eci-eold=                    2                   53 -0.78467645064718061      -0.78467582068599184       -6.2996118876945673E-007 F
     orb,it,eci,eold,eci-eold=                    2                   54 -0.78467798076933937      -0.78467645064718061       -1.5301221587549207E-006 F
     orb,it,eci,eold,eci-eold=                    2                   55 -0.78467892255612293      -0.78467798076933937       -9.4178678355927303E-007 F
     orb,it,eci,eold,eci-eold=                    2                   56 -0.78467984690576187      -0.78467892255612293       -9.2434963894216793E-007 F
     orb,it,eci,eold,eci-eold=                    2                   57 -0.78468029919726323      -0.78467984690576187       -4.5229150136272267E-007 F
     orb,it,eci,eold,eci-eold=                    2                   58 -0.78468122147757302      -0.78468029919726323       -9.2228030978969144E-007 F
     orb,it,eci,eold,eci-eold=                    2                   59 -0.78468134507279319      -0.78468122147757302       -1.2359522016947011E-007 F
     orb,it,eci,eold,eci-eold=                    2                   60 -0.78468140348267634      -0.78468134507279319       -5.8409883152421571E-008 F
     orb,it,eci,eold,eci-eold=                    2                   61 -0.78468188514772008      -0.78468140348267634       -4.8166504373892138E-007 F
     orb,it,eci,eold,eci-eold=                    2                   62 -0.78468202890095373      -0.78468188514772008       -1.4375323365012349E-007 F
     orb,it,eci,eold,eci-eold=                    2                   63 -0.78468213939293807      -0.78468202890095373       -1.1049198433976670E-007 F
     orb,it,eci,eold,eci-eold=                    2                   64 -0.78468273136647537      -0.78468213939293807       -5.9197353730056079E-007 F
     orb,it,eci,eold,eci-eold=                    2                   65 -0.78468288935695663      -0.78468273136647537       -1.5799048125320070E-007 F
     orb,it,eci,eold,eci-eold=                    2                   66 -0.78468293647957932      -0.78468288935695663       -4.7122622692796767E-008 F
     orb,it,eci,eold,eci-eold=                    2                   67 -0.78468345148991703      -0.78468293647957932       -5.1501033770939841E-007 F
     orb,it,eci,eold,eci-eold=                    2                   68 -0.78468375321760697      -0.78468345148991703       -3.0172768994418675E-007 F
     orb,it,eci,eold,eci-eold=                    2                   69 -0.78468405448681289      -0.78468375321760697       -3.0126920591566630E-007 F
     orb,it,eci,eold,eci-eold=                    2                   70 -0.78468421123873311      -0.78468405448681289       -1.5675192022168716E-007 F
     orb,it,eci,eold,eci-eold=                    2                   71 -0.78468450041497340      -0.78468421123873311       -2.8917624028679256E-007 F
     orb,it,eci,eold,eci-eold=                    2                   72 -0.78468466099837531      -0.78468450041497340       -1.6058340190916454E-007 F
     orb,it,eci,eold,eci-eold=                    2                   73 -0.78468485503910779      -0.78468466099837531       -1.9404073248185938E-007 F
     orb,it,eci,eold,eci-eold=                    2                   74 -0.78468496388444020      -0.78468485503910779       -1.0884533241384275E-007 F
     orb,it,eci,eold,eci-eold=                    2                   75 -0.78468513557815589      -0.78468496388444020       -1.7169371568925840E-007 F
     orb,it,eci,eold,eci-eold=                    2                   76 -0.78468523391680467      -0.78468513557815589       -9.8338648779616733E-008 F
     orb,it,eci,eold,eci-eold=                    2                   77 -0.78468537878724642      -0.78468523391680467       -1.4487044175393038E-007 F
     orb,it,eci,eold,eci-eold=                    2                   78 -0.78468545799244960      -0.78468537878724642       -7.9205203173948746E-008 F
     orb,it,eci,eold,eci-eold=                    2                   79 -0.78468556090078190      -0.78468545799244960       -1.0290833230008900E-007 F
     orb,it,eci,eold,eci-eold=                    2                   80 -0.78468561871018738      -0.78468556090078190       -5.7809405484832155E-008 F
     orb,it,eci,eold,eci-eold=                    2                   81 -0.78468571765998818      -0.78468561871018738       -9.8949800797498710E-008 F
     orb,it,eci,eold,eci-eold=                    2                   82 -0.78468577444005350      -0.78468571765998818       -5.6780065316175410E-008 F
     orb,it,eci,eold,eci-eold=                    2                   83 -0.78468584517489459      -0.78468577444005350       -7.0734841095543288E-008 F
     orb,it,eci,eold,eci-eold=                    2                   84 -0.78468588400910466      -0.78468584517489459       -3.8834210069893516E-008 F
     orb,it,eci,eold,eci-eold=                    2                   85 -0.78468594824221860      -0.78468588400910466       -6.4233113938882980E-008 F
     orb,it,eci,eold,eci-eold=                    2                   86 -0.78468598263286116      -0.78468594824221860       -3.4390642555948148E-008 F
     orb,it,eci,eold,eci-eold=                    2                   87 -0.78468602365056372      -0.78468598263286116       -4.1017702567813785E-008 F
     orb,it,eci,eold,eci-eold=                    2                   88 -0.78468604658770036      -0.78468602365056372       -2.2937136634482158E-008 F
     orb,it,eci,eold,eci-eold=                    2                   89 -0.78468608706475007      -0.78468604658770036       -4.0477049711995505E-008 F
     orb,it,eci,eold,eci-eold=                    2                   90 -0.78468608715326338      -0.78468608706475007       -8.8513307794357843E-011 F
     orbital   2 current e=  0.347999E+00 error=0.470E-01 (eci= -0.784686087E+00 error=0.885E-10) iterations  90(   0 preconditioned, Ep,Sp= 20.0  200.0)
     orb,it,eci,eold,eci-eold=                    2                    1 -0.78468620240832532      -0.78468608715326338       -1.1525506193876822E-007 F
     orb,it,eci,eold,eci-eold=                    2                    2 -0.78468623462460485      -0.78468620240832532       -3.2216279532981673E-008 F
     orb,it,eci,eold,eci-eold=                    2                    3 -0.78468624346428717      -0.78468623462460485       -8.8396823194614171E-009 F
     orb,it,eci,eold,eci-eold=                    2                    4 -0.78468627124295409      -0.78468624346428717       -2.7778666922273487E-008 F
     orb,it,eci,eold,eci-eold=                    2                    5 -0.78468628636336157      -0.78468627124295409       -1.5120407481639120E-008 F
     orb,it,eci,eold,eci-eold=                    2                    6 -0.78468629091143494      -0.78468628636336157       -4.5480733623648462E-009 F
     orb,it,eci,eold,eci-eold=                    2                    7 -0.78468629568896198      -0.78468629091143494       -4.7775270406447135E-009 F
     orb,it,eci,eold,eci-eold=                    2                    8 -0.78468629605990992      -0.78468629568896198       -3.7094793903236223E-010 F
     orbital   2 current e=  0.348173E+00 error=0.175E-03 (eci= -0.784686296E+00 error=0.371E-09) iterations   8(   0 preconditioned, Ep,Sp= 20.0  200.0)
     orb,it,eci,eold,eci-eold=                    2                    1 -0.78468631577564296      -0.78468629605990992       -1.9715733046155037E-008 F
     orb,it,eci,eold,eci-eold=                    2                    2 -0.78468631577564296      -0.78468631577564296        0.0000000000000000      F
     orbital   2 current e=  0.348178E+00 error=0.510E-05 (eci= -0.784686316E+00 error=0.000E+00) iterations   2(   0 preconditioned, Ep,Sp= 20.0  200.0)
     orb,it,eci,eold,eci-eold=                    3                    1 -0.78212942045758549      -0.78202318356373146       -1.0623689385402812E-004 F
     orb,it,eci,eold,eci-eold=                    3                    2 -0.78214921299017415      -0.78212942045758549       -1.9792532588658318E-005 F
     orb,it,eci,eold,eci-eold=                    3                    3 -0.78218194233810756      -0.78214921299017415       -3.2729347933413422E-005 F
     orb,it,eci,eold,eci-eold=                    3                    4 -0.78220597488959953      -0.78218194233810756       -2.4032551491970366E-005 F
     orb,it,eci,eold,eci-eold=                    3                    5 -0.78224466124812175      -0.78220597488959953       -3.8686358522221909E-005 F
     orb,it,eci,eold,eci-eold=                    3                    6 -0.78226219564243682      -0.78224466124812175       -1.7534394315066315E-005 F
     orb,it,eci,eold,eci-eold=                    3                    7 -0.78228432926629421      -0.78226219564243682       -2.2133623857389928E-005 F
     orb,it,eci,eold,eci-eold=                    3                    8 -0.78229914546002577      -0.78228432926629421       -1.4816193731559402E-005 F
     orb,it,eci,eold,eci-eold=                    3                    9 -0.78231720377009961      -0.78229914546002577       -1.8058310073842954E-005 F
     orb,it,eci,eold,eci-eold=                    3                   10 -0.78232666110120141      -0.78231720377009961       -9.4573311018031347E-006 F
     orb,it,eci,eold,eci-eold=                    3                   11 -0.78234211001276066      -0.78232666110120141       -1.5448911559245992E-005 F
     orb,it,eci,eold,eci-eold=                    3                   12 -0.78234373574697436      -0.78234211001276066       -1.6257342136949404E-006 F
     orb,it,eci,eold,eci-eold=                    3                   13 -0.78234861224436303      -0.78234373574697436       -4.8764973886727958E-006 F
     orb,it,eci,eold,eci-eold=                    3                   14 -0.78235815116174434      -0.78234861224436303       -9.5389173813131833E-006 F
     orb,it,eci,eold,eci-eold=                    3                   15 -0.78235955742143393      -0.78235815116174434       -1.4062596895847435E-006 F
     orb,it,eci,eold,eci-eold=                    3                   16 -0.78236358661688743      -0.78235955742143393       -4.0291954535032204E-006 F
     orb,it,eci,eold,eci-eold=                    3                   17 -0.78237244108650550      -0.78236358661688743       -8.8544696180692384E-006 F
     orb,it,eci,eold,eci-eold=                    3                   18 -0.78237326445647115      -0.78237244108650550       -8.2336996565235410E-007 F
     orb,it,eci,eold,eci-eold=                    3                   19 -0.78237517969430126      -0.78237326445647115       -1.9152378301079409E-006 F
     orb,it,eci,eold,eci-eold=                    3                   20 -0.78238278459551003      -0.78237517969430126       -7.6049012087686663E-006 F
     orb,it,eci,eold,eci-eold=                    3                   21 -0.78238420090086092      -0.78238278459551003       -1.4163053508875478E-006 F
     orb,it,eci,eold,eci-eold=                    3                   22 -0.78238489488015484      -0.78238420090086092       -6.9397929391978863E-007 F
     orb,it,eci,eold,eci-eold=                    3                   23 -0.78239078732093570      -0.78238489488015484       -5.8924407808635948E-006 F
     orb,it,eci,eold,eci-eold=                    3                   24 -0.78239304913026619      -0.78239078732093570       -2.2618093304949127E-006 F
     orb,it,eci,eold,eci-eold=                    3                   25 -0.78239375243297715      -0.78239304913026619       -7.0330271095819796E-007 F
     orb,it,eci,eold,eci-eold=                    3                   26 -0.78239802843239381      -0.78239375243297715       -4.2759994166585713E-006 F
     orb,it,eci,eold,eci-eold=                    3                   27 -0.78239953832283649      -0.78239802843239381       -1.5098904426746884E-006 F
     orb,it,eci,eold,eci-eold=                    3                   28 -0.78240033938335274      -0.78239953832283649       -8.0106051625339347E-007 F
     orb,it,eci,eold,eci-eold=                    3                   29 -0.78240431463844096      -0.78240033938335274       -3.9752550882177218E-006 F
     orb,it,eci,eold,eci-eold=                    3                   30 -0.78240480953473268      -0.78240431463844096       -4.9489629172505545E-007 F
     orb,it,eci,eold,eci-eold=                    3                   31 -0.78240508972199363      -0.78240480953473268       -2.8018726094813928E-007 F
     orb,it,eci,eold,eci-eold=                    3                   32 -0.78240912487032699      -0.78240508972199363       -4.0351483333589400E-006 F
     orb,it,eci,eold,eci-eold=                    3                   33 -0.78241121521182477      -0.78240912487032699       -2.0903414977846424E-006 F
     orb,it,eci,eold,eci-eold=                    3                   34 -0.78241230036639109      -0.78241121521182477       -1.0851545663159712E-006 F
     orb,it,eci,eold,eci-eold=                    3                   35 -0.78241283075103440      -0.78241230036639109       -5.3038464331578439E-007 F
     orb,it,eci,eold,eci-eold=                    3                   36 -0.78241469040681100      -0.78241283075103440       -1.8596557765926391E-006 F
     orb,it,eci,eold,eci-eold=                    3                   37 -0.78241486507041624      -0.78241469040681100       -1.7466360524576174E-007 F
     orb,it,eci,eold,eci-eold=                    3                   38 -0.78241497631008694      -0.78241486507041624       -1.1123967069703866E-007 F
     orb,it,eci,eold,eci-eold=                    3                   39 -0.78241675727251170      -0.78241497631008694       -1.7809624247577815E-006 F
     orb,it,eci,eold,eci-eold=                    3                   40 -0.78241684527795408      -0.78241675727251170       -8.8005442377969700E-008 F
     orb,it,eci,eold,eci-eold=                    3                   41 -0.78241686804847155      -0.78241684527795408       -2.2770517471570884E-008 F
     orb,it,eci,eold,eci-eold=                    3                   42 -0.78241827162680477      -0.78241686804847155       -1.4035783332255747E-006 F
     orb,it,eci,eold,eci-eold=                    3                   43 -0.78241867769521245      -0.78241827162680477       -4.0606840767676289E-007 F
     orb,it,eci,eold,eci-eold=                    3                   44 -0.78241875650298653      -0.78241867769521245       -7.8807774084310722E-008 F
     orb,it,eci,eold,eci-eold=                    3                   45 -0.78241989007325341      -0.78241875650298653       -1.1335702668757719E-006 F
     orb,it,eci,eold,eci-eold=                    3                   46 -0.78241998763838305      -0.78241989007325341       -9.7565129641985493E-008 F
     orb,it,eci,eold,eci-eold=                    3                   47 -0.78242004108632401      -0.78241998763838305       -5.3447940961959262E-008 F
     orb,it,eci,eold,eci-eold=                    3                   48 -0.78242097022281742      -0.78242004108632401       -9.2913649341053173E-007 F
     orb,it,eci,eold,eci-eold=                    3                   49 -0.78242098426554219      -0.78242097022281742       -1.4042724760798819E-008 F
     orb,it,eci,eold,eci-eold=                    3                   50 -0.78242099199086934      -0.78242098426554219       -7.7253271557609082E-009 F
     orb,it,eci,eold,eci-eold=                    3                   51 -0.78242161167797375      -0.78242099199086934       -6.1968710440840624E-007 F
     orb,it,eci,eold,eci-eold=                    3                   52 -0.78242186524824486      -0.78242161167797375       -2.5357027111372332E-007 F
     orb,it,eci,eold,eci-eold=                    3                   53 -0.78242213546405182      -0.78242186524824486       -2.7021580695230085E-007 F
     orb,it,eci,eold,eci-eold=                    3                   54 -0.78242234378643094      -0.78242213546405182       -2.0832237912493667E-007 F
     orb,it,eci,eold,eci-eold=                    3                   55 -0.78242275112816495      -0.78242234378643094       -4.0734173401002494E-007 F
     orb,it,eci,eold,eci-eold=                    3                   56 -0.78242298835629387      -0.78242275112816495       -2.3722812891868728E-007 F
     orb,it,eci,eold,eci-eold=                    3                   57 -0.78242328255049476      -0.78242298835629387       -2.9419420088938608E-007 F
     orb,it,eci,eold,eci-eold=                    3                   58 -0.78242344790072627      -0.78242328255049476       -1.6535023150687778E-007 F
     orb,it,eci,eold,eci-eold=                    3                   59 -0.78242371171096581      -0.78242344790072627       -2.6381023954247240E-007 F
     orb,it,eci,eold,eci-eold=                    3                   60 -0.78242386183071611      -0.78242371171096581       -1.5011975029732838E-007 F
     orb,it,eci,eold,eci-eold=                    3                   61 -0.78242405745226151      -0.78242386183071611       -1.9562154540686549E-007 F
     orb,it,eci,eold,eci-eold=                    3                   62 -0.78242415898391715      -0.78242405745226151       -1.0153165563853150E-007 F
     orb,it,eci,eold,eci-eold=                    3                   63 -0.78242430712746591      -0.78242415898391715       -1.4814354876158120E-007 F
     orb,it,eci,eold,eci-eold=                    3                   64 -0.78242439073881376      -0.78242430712746591       -8.3611347845291561E-008 F
     orb,it,eci,eold,eci-eold=                    3                   65 -0.78242450769238303      -0.78242439073881376       -1.1695356927354794E-007 F
     orb,it,eci,eold,eci-eold=                    3                   66 -0.78242457070675364      -0.78242450769238303       -6.3014370610403603E-008 F
     orb,it,eci,eold,eci-eold=                    3                   67 -0.78242465028058339      -0.78242457070675364       -7.9573829747658920E-008 F
     orb,it,eci,eold,eci-eold=                    3                   68 -0.78242469252869939      -0.78242465028058339       -4.2248116005616509E-008 F
     orb,it,eci,eold,eci-eold=                    3                   69 -0.78242476432073760      -0.78242469252869939       -7.1792038203177810E-008 F
     orb,it,eci,eold,eci-eold=                    3                   70 -0.78242480700640449      -0.78242476432073760       -4.2685666890029950E-008 F
     orb,it,eci,eold,eci-eold=                    3                   71 -0.78242485437954301      -0.78242480700640449       -4.7373138523099101E-008 F
     orb,it,eci,eold,eci-eold=                    3                   72 -0.78242487886908008      -0.78242485437954301       -2.4489537064908973E-008 F
     orb,it,eci,eold,eci-eold=                    3                   73 -0.78242492654136830      -0.78242487886908008       -4.7672288228106652E-008 F
     orb,it,eci,eold,eci-eold=                    3                   74 -0.78242495460993078      -0.78242492654136830       -2.8068562474281578E-008 F
     orb,it,eci,eold,eci-eold=                    3                   75 -0.78242498354070289      -0.78242495460993078       -2.8930772111301906E-008 F
     orb,it,eci,eold,eci-eold=                    3                   76 -0.78242499831944645      -0.78242498354070289       -1.4778743562260388E-008 F
     orb,it,eci,eold,eci-eold=                    3                   77 -0.78242502742754350      -0.78242499831944645       -2.9108097043817338E-008 F
     orb,it,eci,eold,eci-eold=                    3                   78 -0.78242502742754350      -0.78242502742754350        0.0000000000000000      F
     orbital   3 current e=  0.479922E+00 error=0.545E-01 (eci= -0.782425027E+00 error=0.000E+00) iterations  78(   0 preconditioned, Ep,Sp= 20.0  200.0)
     orb,it,eci,eold,eci-eold=                    3                    1 -0.78242506513171095      -0.78242502653623158       -3.8595479368019880E-008 F
     orb,it,eci,eold,eci-eold=                    3                    2 -0.78242507210497125      -0.78242506513171095       -6.9732603025229878E-009 F
     orb,it,eci,eold,eci-eold=                    3                    3 -0.78242508160935942      -0.78242507210497125       -9.5043881653822382E-009 F
     orb,it,eci,eold,eci-eold=                    3                    4 -0.78242510265536602      -0.78242508160935942       -2.1046006604130696E-008 F
     orb,it,eci,eold,eci-eold=                    3                    5 -0.78242512692597566      -0.78242510265536602       -2.4270609633170181E-008 F
     orb,it,eci,eold,eci-eold=                    3                    6 -0.78242514005130803      -0.78242512692597566       -1.3125332376517918E-008 F
     orb,it,eci,eold,eci-eold=                    3                    7 -0.78242515299603077      -0.78242514005130803       -1.2944722738161829E-008 F
     orb,it,eci,eold,eci-eold=                    3                    8 -0.78242516050959710      -0.78242515299603077       -7.5135663246683748E-009 F
     orb,it,eci,eold,eci-eold=                    3                    9 -0.78242516787612626      -0.78242516050959710       -7.3665291644431363E-009 F
     orb,it,eci,eold,eci-eold=                    3                   10 -0.78242517136189416      -0.78242516787612626       -3.4857678965494188E-009 F
     orb,it,eci,eold,eci-eold=                    3                   11 -0.78242517509219978      -0.78242517136189416       -3.7303056199533557E-009 F
     orb,it,eci,eold,eci-eold=                    3                   12 -0.78242517509219978      -0.78242517509219978        0.0000000000000000      F
     orbital   3 current e=  0.478909E+00 error=0.101E-02 (eci= -0.782425175E+00 error=0.000E+00) iterations  12(   0 preconditioned, Ep,Sp= 20.0  200.0)
     orb,it,eci,eold,eci-eold=                    3                    1 -0.78242518022681240      -0.78242517409326706       -6.1335453382937999E-009 F
     orb,it,eci,eold,eci-eold=                    3                    2 -0.78242518210398571      -0.78242518022681240       -1.8771733056865969E-009 F
     orb,it,eci,eold,eci-eold=                    3                    3 -0.78242518210398571      -0.78242518210398571        0.0000000000000000      F
     orbital   3 current e=  0.478887E+00 error=0.216E-04 (eci= -0.782425182E+00 error=0.000E+00) iterations   3(   0 preconditioned, Ep,Sp= 20.0  200.0)
     orb,it,eci,eold,eci-eold=                    4                    1 -0.78204133519587193      -0.78197185247664847       -6.9482719223468159E-005 F
     orb,it,eci,eold,eci-eold=                    4                    2 -0.78204782737789236      -0.78204133519587193       -6.4921820204233427E-006 F
     orb,it,eci,eold,eci-eold=                    4                    3 -0.78207808844793703      -0.78204782737789236       -3.0261070044668159E-005 F
     orb,it,eci,eold,eci-eold=                    4                    4 -0.78208824272099076      -0.78207808844793703       -1.0154273053730734E-005 F
     orb,it,eci,eold,eci-eold=                    4                    5 -0.78209994708590858      -0.78208824272099076       -1.1704364917819454E-005 F
     orb,it,eci,eold,eci-eold=                    4                    6 -0.78212018428429397      -0.78209994708590858       -2.0237198385397726E-005 F
     orb,it,eci,eold,eci-eold=                    4                    7 -0.78212389163368279      -0.78212018428429397       -3.7073493888151177E-006 F
     orb,it,eci,eold,eci-eold=                    4                    8 -0.78213228535707291      -0.78212389163368279       -8.3937233901210107E-006 F
     orb,it,eci,eold,eci-eold=                    4                    9 -0.78215111547083582      -0.78213228535707291       -1.8830113762913214E-005 F
     orb,it,eci,eold,eci-eold=                    4                   10 -0.78215697994999955      -0.78215111547083582       -5.8644791637307847E-006 F
     orb,it,eci,eold,eci-eold=                    4                   11 -0.78216379936056868      -0.78215697994999955       -6.8194105691254947E-006 F
     orb,it,eci,eold,eci-eold=                    4                   12 -0.78217934431852831      -0.78216379936056868       -1.5544957959634509E-005 F
     orb,it,eci,eold,eci-eold=                    4                   13 -0.78218375313624566      -0.78217934431852831       -4.4088177173495779E-006 F
     orb,it,eci,eold,eci-eold=                    4                   14 -0.78218806993451395      -0.78218375313624566       -4.3167982682890127E-006 F
     orb,it,eci,eold,eci-eold=                    4                   15 -0.78219941128000126      -0.78218806993451395       -1.1341345487303478E-005 F
     orb,it,eci,eold,eci-eold=                    4                   16 -0.78220226598940601      -0.78219941128000126       -2.8547094047537414E-006 F
     orb,it,eci,eold,eci-eold=                    4                   17 -0.78220493713176675      -0.78220226598940601       -2.6711423607439500E-006 F
     orb,it,eci,eold,eci-eold=                    4                   18 -0.78221263436800437      -0.78220493713176675       -7.6972362376137582E-006 F
     orb,it,eci,eold,eci-eold=                    4                   19 -0.78221485595105855      -0.78221263436800437       -2.2215830541849613E-006 F
     orb,it,eci,eold,eci-eold=                    4                   20 -0.78221697155775971      -0.78221485595105855       -2.1156067011585122E-006 F
     orb,it,eci,eold,eci-eold=                    4                   21 -0.78222242488689209      -0.78221697155775971       -5.4533291323766164E-006 F
     orb,it,eci,eold,eci-eold=                    4                   22 -0.78222335274073529      -0.78222242488689209       -9.2785384320226427E-007 F
     orb,it,eci,eold,eci-eold=                    4                   23 -0.78222456263428997      -0.78222335274073529       -1.2098935546767109E-006 F
     orb,it,eci,eold,eci-eold=                    4                   24 -0.78222884831549089      -0.78222456263428997       -4.2856812009217649E-006 F
     orb,it,eci,eold,eci-eold=                    4                   25 -0.78222943662606670      -0.78222884831549089       -5.8831057581087975E-007 F
     orb,it,eci,eold,eci-eold=                    4                   26 -0.78222985210562745      -0.78222943662606670       -4.1547956075582704E-007 F
     orb,it,eci,eold,eci-eold=                    4                   27 -0.78223293410193295      -0.78222985210562745       -3.0819963054984356E-006 F
     orb,it,eci,eold,eci-eold=                    4                   28 -0.78223389178164693      -0.78223293410193295       -9.5767971397542340E-007 F
     orb,it,eci,eold,eci-eold=                    4                   29 -0.78223421230397072      -0.78223389178164693       -3.2052232379342627E-007 F
     orb,it,eci,eold,eci-eold=                    4                   30 -0.78223635097838917      -0.78223421230397072       -2.1386744184503925E-006 F
     orb,it,eci,eold,eci-eold=                    4                   31 -0.78223737070971955      -0.78223635097838917       -1.0197313303761391E-006 F
     orb,it,eci,eold,eci-eold=                    4                   32 -0.78223785497161125      -0.78223737070971955       -4.8426189169781253E-007 F
     orb,it,eci,eold,eci-eold=                    4                   33 -0.78223934264484329      -0.78223785497161125       -1.4876732320479036E-006 F
     orb,it,eci,eold,eci-eold=                    4                   34 -0.78223994352472836      -0.78223934264484329       -6.0087988507095957E-007 F
     orb,it,eci,eold,eci-eold=                    4                   35 -0.78224042340698852      -0.78223994352472836       -4.7988226015149849E-007 F
     orb,it,eci,eold,eci-eold=                    4                   36 -0.78224156056097194      -0.78224042340698852       -1.1371539834215127E-006 F
     orb,it,eci,eold,eci-eold=                    4                   37 -0.78224173999335989      -0.78224156056097194       -1.7943238794781990E-007 F
     orb,it,eci,eold,eci-eold=                    4                   38 -0.78224200543505962      -0.78224173999335989       -2.6544169973163889E-007 F
     orb,it,eci,eold,eci-eold=                    4                   39 -0.78224303434326758      -0.78224200543505962       -1.0289082079673051E-006 F
     orb,it,eci,eold,eci-eold=                    4                   40 -0.78224312971659782      -0.78224303434326758       -9.5373330233350373E-008 F
     orb,it,eci,eold,eci-eold=                    4                   41 -0.78224321739796698      -0.78224312971659782       -8.7681369165260037E-008 F
     orb,it,eci,eold,eci-eold=                    4                   42 -0.78224419097959097      -0.78224321739796698       -9.7358162398641923E-007 F
     orb,it,eci,eold,eci-eold=                    4                   43 -0.78224472257716449      -0.78224419097959097       -5.3159757351650683E-007 F
     orb,it,eci,eold,eci-eold=                    4                   44 -0.78224508448368435      -0.78224472257716449       -3.6190651986345301E-007 F
     orb,it,eci,eold,eci-eold=                    4                   45 -0.78224522298276311      -0.78224508448368435       -1.3849907876117840E-007 F
     orb,it,eci,eold,eci-eold=                    4                   46 -0.78224562396979125      -0.78224522298276311       -4.0098702813740061E-007 F
     orb,it,eci,eold,eci-eold=                    4                   47 -0.78224570872421062      -0.78224562396979125       -8.4754419371613210E-008 F
     orb,it,eci,eold,eci-eold=                    4                   48 -0.78224574191772012      -0.78224570872421062       -3.3193509496598494E-008 F
     orb,it,eci,eold,eci-eold=                    4                   49 -0.78224600640354958      -0.78224574191772012       -2.6448582945981514E-007 F
     orb,it,eci,eold,eci-eold=                    4                   50 -0.78224610155467356      -0.78224600640354958       -9.5151123979952956E-008 F
     orb,it,eci,eold,eci-eold=                    4                   51 -0.78224614015538607      -0.78224610155467356       -3.8600712515268754E-008 F
     orb,it,eci,eold,eci-eold=                    4                   52 -0.78224634082106914      -0.78224614015538607       -2.0066568306997823E-007 F
     orb,it,eci,eold,eci-eold=                    4                   53 -0.78224639297455778      -0.78224634082106914       -5.2153488638850831E-008 F
     orb,it,eci,eold,eci-eold=                    4                   54 -0.78224641261134531      -0.78224639297455778       -1.9636787529364597E-008 F
     orb,it,eci,eold,eci-eold=                    4                   55 -0.78224657442172119      -0.78224641261134531       -1.6181037587603697E-007 F
     orb,it,eci,eold,eci-eold=                    4                   56 -0.78224664195756854      -0.78224657442172119       -6.7535847358968226E-008 F
     orb,it,eci,eold,eci-eold=                    4                   57 -0.78224666027268785      -0.78224664195756854       -1.8315119310052808E-008 F
     orb,it,eci,eold,eci-eold=                    4                   58 -0.78224677302173973      -0.78224666027268785       -1.1274905187264039E-007 F
     orb,it,eci,eold,eci-eold=                    4                   59 -0.78224682239441656      -0.78224677302173973       -4.9372676835801599E-008 F
     orb,it,eci,eold,eci-eold=                    4                   60 -0.78224684498356067      -0.78224682239441656       -2.2589144110796155E-008 F
     orb,it,eci,eold,eci-eold=                    4                   61 -0.78224693917110855      -0.78224684498356067       -9.4187547872159882E-008 F
     orb,it,eci,eold,eci-eold=                    4                   62 -0.78224697329846693      -0.78224693917110855       -3.4127358383706508E-008 F
     orb,it,eci,eold,eci-eold=                    4                   63 -0.78224698797309467      -0.78224697329846693       -1.4674627735189461E-008 F
     orb,it,eci,eold,eci-eold=                    4                   64 -0.78224705688497997      -0.78224698797309467       -6.8911885309219656E-008 F
     orb,it,eci,eold,eci-eold=                    4                   65 -0.78224708448014335      -0.78224705688497997       -2.7595163376581411E-008 F
     orb,it,eci,eold,eci-eold=                    4                   66 -0.78224709943602089      -0.78224708448014335       -1.4955877536415585E-008 F
     orb,it,eci,eold,eci-eold=                    4                   67 -0.78224715757431751      -0.78224709943602089       -5.8138296621379482E-008 F
     orb,it,eci,eold,eci-eold=                    4                   68 -0.78224716744348555      -0.78224715757431751       -9.8691680383566904E-009 F
     orb,it,eci,eold,eci-eold=                    4                   69 -0.78224717018506451      -0.78224716744348555       -2.7415789638496335E-009 F
     orb,it,eci,eold,eci-eold=                    4                   70 -0.78224721659026653      -0.78224717018506451       -4.6405202014376812E-008 F
     orb,it,eci,eold,eci-eold=                    4                   71 -0.78224723933340845      -0.78224721659026653       -2.2743141925296584E-008 F
     orb,it,eci,eold,eci-eold=                    4                   72 -0.78224724431869941      -0.78224723933340845       -4.9852909578262938E-009 F
     orb,it,eci,eold,eci-eold=                    4                   73 -0.78224727788706339      -0.78224724431869941       -3.3568363977387605E-008 F
     orb,it,eci,eold,eci-eold=                    4                   74 -0.78224728978544822      -0.78224727788706339       -1.1898384832953468E-008 F
     orb,it,eci,eold,eci-eold=                    4                   75 -0.78224729372308333      -0.78224728978544822       -3.9376351068654003E-009 F
     orb,it,eci,eold,eci-eold=                    4                   76 -0.78224732385554230      -0.78224729372308333       -3.0132458972431664E-008 F
     orb,it,eci,eold,eci-eold=                    4                   77 -0.78224733401553448      -0.78224732385554230       -1.0159992180902577E-008 F
     orb,it,eci,eold,eci-eold=                    4                   78 -0.78224733491304721      -0.78224733401553448       -8.9751273080196370E-010 F
     orbital   4 current e=  0.525440E+00 error=0.335E-02 (eci= -0.782247335E+00 error=0.898E-09) iterations  78(   0 preconditioned, Ep,Sp= 20.0  200.0)
     orb,it,eci,eold,eci-eold=                    4                    1 -0.78224740538645343      -0.78224733491304721       -7.0473406221793766E-008 F
     orb,it,eci,eold,eci-eold=                    4                    2 -0.78224741040361123      -0.78224740538645343       -5.0171578003244122E-009 F
     orb,it,eci,eold,eci-eold=                    4                    3 -0.78224742523841706      -0.78224741040361123       -1.4834805828201070E-008 F
     orb,it,eci,eold,eci-eold=                    4                    4 -0.78224742657569135      -0.78224742523841706       -1.3372742913020375E-009 F
     orb,it,eci,eold,eci-eold=                    4                    5 -0.78224743493526083      -0.78224742657569135       -8.3595694810867371E-009 F
     orb,it,eci,eold,eci-eold=                    4                    6 -0.78224744938535173      -0.78224743493526083       -1.4450090901618751E-008 F
     orb,it,eci,eold,eci-eold=                    4                    7 -0.78224744938535173      -0.78224744938535173        0.0000000000000000      F
     orbital   4 current e=  0.525798E+00 error=0.358E-03 (eci= -0.782247449E+00 error=0.000E+00) iterations   7(   0 preconditioned, Ep,Sp= 20.0  200.0)
     orb,it,eci,eold,eci-eold=                    4                    1 -0.78224748787968945      -0.78224744848897199       -3.9390717465614955E-008 F
     orb,it,eci,eold,eci-eold=                    4                    2 -0.78224749620754475      -0.78224748787968945       -8.3278552942545048E-009 F
     orb,it,eci,eold,eci-eold=                    4                    3 -0.78224749925875026      -0.78224749620754475       -3.0512055104736646E-009 F
     orb,it,eci,eold,eci-eold=                    4                    4 -0.78224749960695794      -0.78224749925875026       -3.4820768490817500E-010 F
     orbital   4 current e=  0.525809E+00 error=0.107E-04 (eci= -0.782247500E+00 error=0.348E-09) iterations   4(   0 preconditioned, Ep,Sp= 20.0  200.0)
     orb,it,eci,eold,eci-eold=                    5                    1 -0.78203034812862704      -0.78197177117521022       -5.8576953416822342E-005 F
     orb,it,eci,eold,eci-eold=                    5                    2 -0.78203364798683606      -0.78203034812862704       -3.2998582090160156E-006 F
     orb,it,eci,eold,eci-eold=                    5                    3 -0.78204681971495427      -0.78203364798683606       -1.3171728118210879E-005 F
     orb,it,eci,eold,eci-eold=                    5                    4 -0.78205755701804547      -0.78204681971495427       -1.0737303091201689E-005 F
     orb,it,eci,eold,eci-eold=                    5                    5 -0.78208231601291867      -0.78205755701804547       -2.4758994873197437E-005 F
     orb,it,eci,eold,eci-eold=                    5                    6 -0.78208546379092936      -0.78208231601291867       -3.1477780106925479E-006 F
     orb,it,eci,eold,eci-eold=                    5                    7 -0.78208558547358309      -0.78208546379092936       -1.2168265373091458E-007 F
     orb,it,eci,eold,eci-eold=                    5                    8 -0.78211102538987443      -0.78208558547358309       -2.5439916291336573E-005 F
     orb,it,eci,eold,eci-eold=                    5                    9 -0.78212434190491797      -0.78211102538987443       -1.3316515043548804E-005 F
     orb,it,eci,eold,eci-eold=                    5                   10 -0.78213279760053767      -0.78212434190491797       -8.4556956196912836E-006 F
     orb,it,eci,eold,eci-eold=                    5                   11 -0.78213999876827722      -0.78213279760053767       -7.2011677395567020E-006 F
     orb,it,eci,eold,eci-eold=                    5                   12 -0.78216001969192561      -0.78213999876827722       -2.0020923648389477E-005 F
[...]
    8    5    8    8       -0.0000000248
    8    5    9    8       -0.0000000012
    8    5   10    8        0.0006418408
    8    5   11    8        0.0000020720
    8    5    9    9       -0.0000000207
    8    5   10    9        0.0000000000
    8    5   11    9       -0.0000000040
    8    5   10   10       -0.0000000214
    8    5   11   10        0.0000000128
    8    5   11   11        0.0000001048
    9    5    9    5        0.0140187643
    9    5   10    5        0.0000000000
    9    5   11    5        0.0000000071
    9    5    6    6       -0.0000000750
    9    5    7    6        0.0000000623
    9    5    8    6        0.0000000137
    9    5    9    6        0.0000000068
    9    5   10    6        0.0000076197
    9    5   11    6        0.0027397922
    9    5    7    7        0.0000000035
    9    5    8    7        0.0000000041
    9    5    9    7       -0.0000000135
    9    5   10    7       -0.0000147306
    9    5   11    7       -0.0052916293
    9    5    8    8       -0.0000000089
    9    5    9    8       -0.0000000021
    9    5   10    8       -0.0000000001
    9    5   11    8       -0.0000000040
    9    5    9    9       -0.0000000100
    9    5   10    9        0.0006402771
    9    5   11    9        0.0000020769
    9    5   10   10       -0.0000000089
    9    5   11   10        0.0000000058
    9    5   11   11        0.0000000434
   10    5   10    5        0.0135152002
   10    5   11    5        0.0000896207
   10    5    6    6        0.0058700836
   10    5    7    6        0.0000000000
   10    5    8    6        0.0001630411
   10    5    9    6        0.0000843268
   10    5   10    6        0.0000000012
   10    5   11    6        0.0000000090
   10    5    7    7        0.0058783557
   10    5    8    7        0.0000843070
   10    5    9    7       -0.0001630077
   10    5   10    7        0.0000000001
   10    5   11    7        0.0000000007
   10    5    8    8        0.0053635221
   10    5    9    8       -0.0000000001
   10    5   10    8       -0.0000000020
   10    5   11    8        0.0000000018
   10    5    9    9        0.0053622081
   10    5   10    9       -0.0000000008
   10    5   11    9        0.0000000008
   10    5   10   10        0.0057518333
   10    5   11   10        0.0000858407
   10    5   11   11        0.0184312036
   11    5   11    5        0.0640217050
   11    5    6    6        0.0000068439
   11    5    7    6        0.0000000000
   11    5    8    6        0.0656358855
   11    5    9    6        0.0339480332
   11    5   10    6        0.0000003785
   11    5   11    6       -0.0000000103
   11    5    7    7        0.0000067340
   11    5    8    7        0.0339371096
   11    5    9    7       -0.0656178191
   11    5   10    7        0.0000000314
   11    5   11    7       -0.0000000005
   11    5    8    8        0.0000331947
   11    5    9    8       -0.0000000486
   11    5   10    8       -0.0000000006
   11    5   11    8        0.0000003634
   11    5    9    9        0.0000332600
   11    5   10    9       -0.0000000003
   11    5   11    9        0.0000001505
   11    5   10   10        0.0000582861
   11    5   11   10        0.0405059662
   11    5   11   11       -0.0000090331
    6    6    6    6        0.2931674153
    6    6    7    6       -0.0000000180
    6    6    8    6       -0.0000327186
    6    6    9    6       -0.0000169272
    6    6   10    6       -0.0000000019
    6    6   11    6        0.0000007126
    6    6    7    7        0.2683206772
    6    6    8    7       -0.0000145363
    6    6    9    7        0.0000281153
    6    6   10    7       -0.0000000001
    6    6   11    7        0.0000000543
    6    6    8    8        0.2940214585
    6    6    9    8        0.0107396632
    6    6   10    8        0.0000001262
    6    6   11    8       -0.0000000019
    6    6    9    9        0.2791529444
    6    6   10    9        0.0000000657
    6    6   11    9       -0.0000000010
    6    6   10   10        0.2799649062
    6    6   11   10       -0.0000137003
    6    6   11   11        0.2814177302
    7    6    7    6        0.0129631338
    7    6    8    6       -0.0000012576
    7    6    9    6        0.0000024403
    7    6   10    6       -0.0000000000
    7    6   11    6        0.0000000029
    7    6    7    7        0.0000000183
    7    6    8    7       -0.0000024585
    7    6    9    7       -0.0000012671
    7    6   10    7       -0.0000000002
    7    6   11    7        0.0000000324
    7    6    8    8        0.0107345338
    7    6    9    8       -0.0077730412
    7    6   10    8        0.0000000399
    7    6   11    8       -0.0000000007
    7    6    9    9       -0.0107347556
    7    6   10    9       -0.0000000638
    7    6   11    9        0.0000000012
    7    6   10   10        0.0000000000
    7    6   11   10        0.0000000000
    7    6   11   11        0.0000000000
    8    6    8    6        0.1462577563
    8    6    9    6        0.0689765453
    8    6   10    6        0.0000008706
    8    6   11    6       -0.0000000141
    8    6    7    7       -0.0000283315
    8    6    8    7        0.0689559333
    8    6    9    7       -0.1204364779
    8    6   10    7        0.0000001019
    8    6   11    7       -0.0000000012
    8    6    8    8        0.0000245641
    8    6    9    8        0.0000008322
    8    6   10    8       -0.0000000035
    8    6   11    8        0.0000006786
    8    6    9    9        0.0000213026
    8    6   10    9       -0.0000000016
    8    6   11    9        0.0000002687
    8    6   10   10        0.0000486986
    8    6   11   10        0.0576755346
    8    6   11   11       -0.0000452026
    9    6    9    6        0.0489083462
    9    6   10    6        0.0000004504
    9    6   11    6       -0.0000000073
    9    6    7    7       -0.0000146495
    9    6    8    7        0.0224348328
    9    6    9    7       -0.0689576691
    9    6   10    7       -0.0000000325
    9    6   11    7        0.0000000007
    9    6    8    8        0.0000109353
    9    6    9    8        0.0000017708
    9    6   10    8       -0.0000000017
    9    6   11    8        0.0000003255
    9    6    9    9        0.0000127850
    9    6   10    9       -0.0000000009
    9    6   11    9        0.0000001784
    9    6   10   10        0.0000251867
    9    6   11   10        0.0298306336
    9    6   11   11       -0.0000233800
   10    6   10    6        0.0139565865
   10    6   11    6        0.0000001454
   10    6    7    7       -0.0000000016
   10    6    8    7        0.0000004228
   10    6    9    7       -0.0000008038
   10    6   10    7       -0.0000000000
   10    6   11    7        0.0000000000
   10    6    8    8       -0.0000000017
   10    6    9    8       -0.0000000003
   10    6   10    8        0.0000046894
   10    6   11    8        0.0048784900
   10    6    9    9       -0.0000000013
   10    6   10    9        0.0000024254
   10    6   11    9        0.0025234189
   10    6   10   10       -0.0000000010
   10    6   11   10        0.0000004461
   10    6   11   11       -0.0000000042
   11    6   11    6        0.0124594645
   11    6    7    7        0.0000006422
   11    6    8    7       -0.0000000068
   11    6    9    7        0.0000000131
   11    6   10    7        0.0000000000
   11    6   11    7        0.0000000000
   11    6    8    8        0.0000007571
   11    6    9    8        0.0000000379
   11    6   10    8        0.0043659183
   11    6   11    8       -0.0000017400
   11    6    9    9        0.0000006938
   11    6   10    9        0.0022580186
   11    6   11    9       -0.0000009001
   11    6   10   10        0.0000007507
   11    6   11   10       -0.0000000082
   11    6   11   11        0.0000008490
    7    7    7    7        0.2930646531
    7    7    8    7       -0.0000170470
    7    7    9    7        0.0000329534
    7    7   10    7       -0.0000000001
    7    7   11    7        0.0000000599
    7    7    8    8        0.2790996819
    7    7    9    8       -0.0107358002
    7    7   10    8        0.0000000023
    7    7   11    8        0.0000000003
    7    7    9    9        0.2939693410
    7    7   10    9       -0.0000000123
    7    7   11    9        0.0000000003
    7    7   10   10        0.2799191062
    7    7   11   10       -0.0000138017
    7    7   11   11        0.2813739299
    8    7    8    7        0.0488858489
    8    7    9    7       -0.0689455147
    8    7   10    7        0.0000000371
    8    7   11    7       -0.0000000004
    8    7    8    8        0.0000127075
    8    7    9    8       -0.0000018618
    8    7   10    8       -0.0000000018
    8    7   11    8        0.0000003316
    8    7    9    9        0.0000110306
    8    7   10    9       -0.0000000005
    8    7   11    9        0.0000000858
    8    7   10   10        0.0000251836
    8    7   11   10        0.0298225740
    8    7   11   11       -0.0000233710
    9    7    9    7        0.1461961582
    9    7   10    7       -0.0000000727
    9    7   11    7        0.0000000007
    9    7    8    8       -0.0000211882
    9    7    9    8        0.0000010361
    9    7   10    8        0.0000000031
    9    7   11    8       -0.0000005850
    9    7    9    9       -0.0000247061
    9    7   10    9        0.0000000015
    9    7   11    9       -0.0000002591
    9    7   10   10       -0.0000486912
    9    7   11   10       -0.0576616349
    9    7   11   11        0.0000451887
   10    7   10    7        0.0139527614
   10    7   11    7        0.0000001384
   10    7    8    8       -0.0000000003
   10    7    9    8        0.0000000002
   10    7   10    8        0.0000024264
   10    7   11    8        0.0025239991
   10    7    9    9        0.0000000002
   10    7   10    9       -0.0000046909
   10    7   11    9       -0.0048800593
   10    7   10   10       -0.0000000000
   10    7   11   10        0.0000000372
   10    7   11   11       -0.0000000002
   11    7   11    7        0.0124530648
   11    7    8    8        0.0000000967
   11    7    9    8       -0.0000000302
   11    7   10    8        0.0022562229
   11    7   11    8       -0.0000008994
   11    7    9    9        0.0000000256
   11    7   10    9       -0.0043618034
   11    7   11    9        0.0000017391
   11    7   10   10        0.0000000632
   11    7   11   10       -0.0000000004
   11    7   11   11        0.0000000715
    8    8    8    8        0.3064273184
    8    8    9    8       -0.0000000349
    8    8   10    8       -0.0000000046
    8    8   11    8        0.0000000006
    8    8    9    9        0.2796039965
    8    8   10    9       -0.0000000016
    8    8   11    9        0.0000000002
    8    8   10   10        0.2854505348
    8    8   11   10        0.0000098298
    8    8   11   11        0.2872623518
    9    8    9    8        0.0140233377
    9    8   10    8       -0.0000000003
    9    8   11    8        0.0000000000
    9    8    9    9        0.0000000352
    9    8   10    9       -0.0000000005
    9    8   11    9        0.0000000000
    9    8   10   10       -0.0000000000
    9    8   11   10       -0.0000000430
    9    8   11   11        0.0000000001
   10    8   10    8        0.0145709104
   10    8   11    8        0.0000019280
   10    8    9    9       -0.0000000036
   10    8   10    9       -0.0000000000
   10    8   11    9       -0.0000000035
   10    8   10   10       -0.0000000043
   10    8   11   10       -0.0000000016
   10    8   11   11        0.0000001229
   11    8   11    8        0.0131309170
   11    8    9    9        0.0000000006
   11    8   10    9       -0.0000000035
   11    8   11    9       -0.0000000000
   11    8   10   10        0.0000000005
   11    8   11   10        0.0000003780
   11    8   11   11        0.0000000004
    9    9    9    9        0.3064356113
    9    9   10    9       -0.0000000019
    9    9   11    9        0.0000000003
    9    9   10   10        0.2854536336
    9    9   11   10        0.0000098900
    9    9   11   11        0.2872651395
   10    9   10    9        0.0145707898
   10    9   11    9        0.0000019333
   10    9   10   10       -0.0000000018
   10    9   11   10       -0.0000000007
   10    9   11   11        0.0000000509
   11    9   11    9        0.0131316170
   11    9   10   10        0.0000000002
   11    9   11   10        0.0000001567
   11    9   11   11        0.0000000001
   10   10   10   10        0.3195318846
   10   10   11   10        0.0000227924
   10   10   11   11        0.3045818255
   11   10   11   10        0.0459049212
   11   10   11   11       -0.0000320949
   11   11   11   11        0.3335800854
 end_two_electron_integrals


 output epsi filename:./pspw_hf_H2.emovecs

 Total PSPW energy     :  -0.7804692043E+00


=== Spin Contamination ===

 <Sexact^2> =    0.0000000000000000     
 <S^2>      =    0.0000000000000000     



== Center of Charge ==

spin up     (    0.0000,    0.0000,    0.0002 )
spin down   (    0.0000,    0.0000,    0.0002 )
     total  (    0.0000,    0.0000,    0.0002 )
ionic       (    0.0000,    0.0000,    0.0000 )


== Molecular Dipole wrt Center of Mass ==

mu   =  (   -0.0000,   -0.0000,   -0.0004 ) au
|mu| =     0.0004 au,       0.0009 Debye

 output psi filename:./pspw_hf_H2.movecs

 Writing Crystallographic Information File:./H2.cif
   - cell not shifted (nwpw:cif_shift_cell .false.)


== Timing ==

cputime in seconds
  prologue    :   0.683946E+01
  main loop   :   0.113726E+04
  epilogue    :   0.315596E-01
  total       :   0.114413E+04
  cputime/step:   0.753151E+01       (     151 evalulations,      63 linesearches)


Time spent doing                        total          step       percent
  total time                 :   0.114414E+04  0.757708E+01       100.0 %
  i/o time                   :   0.505015E+00  0.334447E-02         0.0 %
  FFTs                       :   0.878108E+03  0.581529E+01        76.7 %
  dot products               :   0.109028E+02  0.722039E-01         1.0 %
  geodesic                   :   0.726444E-01  0.481089E-03         0.0 %
  ffm_dgemm                  :   0.111311E-01  0.737157E-04         0.0 %
  fmf_dgemm                  :   0.205740E-01  0.136251E-03         0.0 %
  mmm_dgemm                  :   0.296435E-02  0.196314E-04         0.0 %
  m_diagonalize              :   0.131058E-02  0.867933E-05         0.0 %
  local pseudopotentials     :   0.143966E+02  0.953416E-01         1.3 %
  non-local pseudopotentials :   0.946141E+01  0.626584E-01         0.8 %
  structure factors          :   0.199487E+01  0.132111E-01         0.2 %
  phase factors              :   0.913100E-05  0.604702E-07         0.0 %
  masking and packing        :   0.114683E+02  0.759488E-01         1.0 %
  queue fft                  :   0.139040E+02  0.920794E-01         1.2 %
  queue fft (serial)         :   0.489260E+01  0.324013E-01         0.4 %
  queue fft (message passing):   0.893030E+01  0.591410E-01         0.8 %
  HFX potential              :   0.131084E+02  0.868106E-01         1.1 %
  non-local psp FFM          :   0.880308E+01  0.582986E-01         0.8 %
  non-local psp FMF          :   0.176250E+00  0.116722E-02         0.0 %
  non-local psp FFM A        :   0.133667E+00  0.885212E-03         0.0 %
  non-local psp FFM B        :   0.278218E+00  0.184250E-02         0.0 %

== HFX Counters ==
  HFX Evalulations         =   151
  Lin ACE HFX Evalulations =     0


     >>>  JOB COMPLETED     AT Wed Apr 23 09:54:51 2025  <<<

 Task  times  cpu:     1068.2s     wall:     1144.2s


                                NWChem Input Module
                                -------------------


 Summary of allocated global arrays
-----------------------------------
  No active global arrays


MA_summarize_allocated_blocks: starting scan ...
MA_summarize_allocated_blocks: scan completed: 0 heap blocks, 0 stack blocks
MA usage statistics:

	allocation statistics:
					      heap	     stack
					      ----	     -----
	current number of blocks	         0	         0
	maximum number of blocks	       313	        36
	current total bytes		         0	         0
	maximum total bytes		  40850776	  13584728
	maximum total K-bytes		     40851	     13585
	maximum total M-bytes		        41	        14


                                     CITATION
                                     --------
                Please cite the following reference when publishing
                           results obtained with NWChem:

          E. Apra, E. J. Bylaska, W. A. de Jong, N. Govind, K. Kowalski,
       T. P. Straatsma, M. Valiev, H. J. J. van Dam, Y. Alexeev, J. Anchell,
       V. Anisimov, F. W. Aquino, R. Atta-Fynn, J. Autschbach, N. P. Bauman,
     J. C. Becca, D. E. Bernholdt, K. Bhaskaran-Nair, S. Bogatko, P. Borowski,
         J. Boschen, J. Brabec, A. Bruner, E. Cauet, Y. Chen, G. N. Chuev,
      C. J. Cramer, J. Daily, M. J. O. Deegan, T. H. Dunning Jr., M. Dupuis,
   K. G. Dyall, G. I. Fann, S. A. Fischer, A. Fonari, H. Fruchtl, L. Gagliardi,
      J. Garza, N. Gawande, S. Ghosh, K. Glaesemann, A. W. Gotz, J. Hammond,
       V. Helms, E. D. Hermes, K. Hirao, S. Hirata, M. Jacquelin, L. Jensen,
   B. G. Johnson, H. Jonsson, R. A. Kendall, M. Klemm, R. Kobayashi, V. Konkov,
      S. Krishnamoorthy, M. Krishnan, Z. Lin, R. D. Lins, R. J. Littlefield,
      A. J. Logsdail, K. Lopata, W. Ma, A. V. Marenich, J. Martin del Campo,
   D. Mejia-Rodriguez, J. E. Moore, J. M. Mullin, T. Nakajima, D. R. Nascimento,
    J. A. Nichols, P. J. Nichols, J. Nieplocha, A. Otero-de-la-Roza, B. Palmer,
    A. Panyala, T. Pirojsirikul, B. Peng, R. Peverati, J. Pittner, L. Pollack,
   R. M. Richard, P. Sadayappan, G. C. Schatz, W. A. Shelton, D. W. Silverstein,
   D. M. A. Smith, T. A. Soares, D. Song, M. Swart, H. L. Taylor, G. S. Thomas,
            V. Tipparaju, D. G. Truhlar, K. Tsemekhman, T. Van Voorhis,
      A. Vazquez-Mayagoitia, P. Verma, O. Villa, A. Vishnu, K. D. Vogiatzis,
        D. Wang, J. H. Weare, M. J. Williamson, T. L. Windus, K. Wolinski,
        A. T. Wong, Q. Wu, C. Yang, Q. Yu, M. Zacharias, Z. Zhang, Y. Zhao,
                                and R. J. Harrison
                        "NWChem: Past, present, and future
                         J. Chem. Phys. 152, 184102 (2020)
                               doi:10.1063/5.0004997

                                      AUTHORS
                                      -------
  E. Apra, E. J. Bylaska, N. Govind, K. Kowalski, M. Valiev, D. Mejia-Rodriguez,
       A. Kunitsa, N. P. Bauman, A. Panyala, W. A. de Jong, T. P. Straatsma,
   H. J. J. van Dam, D. Wang, T. L. Windus, J. Hammond, J. Autschbach, A. Woods,
    K. Bhaskaran-Nair, J. Brabec, K. Lopata, S. A. Fischer, S. Krishnamoorthy,
     M. Jacquelin, W. Ma, M. Klemm, O. Villa, Y. Chen, V. Anisimov, F. Aquino,
     S. Hirata, M. T. Hackler, E. Hermes, L. Jensen, J. E. Moore, J. C. Becca,
      V. Konjkov, T. Risthaus, M. Malagoli, A. Marenich, A. Otero-de-la-Roza,
        J. Mullin, P. Nichols, R. Peverati, J. Pittner, Y. Zhao, P.-D. Fan,
        A. Fonari, M. J. Williamson, R. J. Harrison, J. R. Rehr, M. Dupuis,
     D. Silverstein, D. M. A. Smith, J. Nieplocha, V. Tipparaju, M. Krishnan,
     B. E. Van Kuiken, A. Vazquez-Mayagoitia, M. Swart, Q. Wu, T. Van Voorhis,
     A. A. Auer, M. Nooijen, L. D. Crosby, E. Brown, G. Cisneros, G. I. Fann,
   H. Fruchtl, J. Garza, K. Hirao, R. A. Kendall, J. A. Nichols, K. Tsemekhman,
    K. Wolinski, J. Anchell, D. E. Bernholdt, P. Borowski, T. Clark, D. Clerc,
   H. Dachsel, M. J. O. Deegan, K. Dyall, D. Elwood, E. Glendening, M. Gutowski,
   A. C. Hess, J. Jaffe, B. G. Johnson, J. Ju, R. Kobayashi, R. Kutteh, Z. Lin,
   R. Littlefield, X. Long, B. Meng, T. Nakajima, S. Niu, L. Pollack, M. Rosing,
   K. Glaesemann, G. Sandrone, M. Stave, H. Taylor, G. Thomas, J. H. van Lenthe,
                               A. T. Wong, Z. Zhang.

 Total times  cpu:     1068.2s     wall:     1144.2s
