 argument  1 = H2-4.0.nw



============================== echo of input deck ==============================
title "swnc: e theory=pspw4 xc=hf formula=H2 charge=0 mult=1"
#machinejob:expert

echo

start pspw_hf_H2

memory heap 1200 mb stack 1200 mb global 10 mb

charge 0

geometry
H    0.00000    0.00000   -2.00000
H    0.00000    0.00000    2.00000
end

nwpw
  ### pseudopotential block begin ###
  ### pseudopotential block end   ###
  simulation_cell
     SC 20.0000
     boundary_conditions aperiodic
  end

  cutoff 50.0
  mult 1
  xc hf
  lmbfgs
  tolerances 1.0e-9 1.0e-9

  virtual 10
end
set nwpw:cif_filename H2

#set nwpw:CI_maxit_orb 15
#set nwpw:CI_maxit_linesearch 15
set pspw:HFX_screening_radius 14.0


set nwpw:2qintegrals .true.
set nwpw:3x3_virtual .true.

task pspw energy

================================================================================


                                         
                                         


             Northwest Computational Chemistry Package (NWChem) 7.2.3
             --------------------------------------------------------


                    Environmental Molecular Sciences Laboratory
                       Pacific Northwest National Laboratory
                                Richland, WA 99352

                              Copyright (c) 1994-2022
                       Pacific Northwest National Laboratory
                            Battelle Memorial Institute

             NWChem is an open-source computational chemistry package
                        distributed under the terms of the
                      Educational Community License (ECL) 2.0
             A copy of the license is included with this distribution
                              in the LICENSE.TXT file

                                  ACKNOWLEDGMENT
                                  --------------

            This software and its documentation were developed at the
            EMSL at Pacific Northwest National Laboratory, a multiprogram
            national laboratory, operated for the U.S. Department of Energy
            by Battelle under Contract Number DE-AC05-76RL01830. Support
            for this work was provided by the Department of Energy Office
            of Biological and Environmental Research, Office of Basic
            Energy Sciences, and the Office of Advanced Scientific Computing.


           Job information
           ---------------

    hostname        = mqs-al
    program         = nwchem
    date            = Wed Apr 23 07:25:33 2025

    compiled        = Thu_Oct_31_08:55:15_2024
    source          = /home/conda/feedstock_root/build_artifacts/nwchem_1730356057992/work
    nwchem branch   = 7.2.3
    nwchem revision = c400b04
    ga revision     = 5.8.0
    use scalapack   = T
    input           = H2-4.0.nw
    prefix          = pspw_hf_H2.
    data base       = ./pspw_hf_H2.db
    status          = startup
    nproc           =       24
    time left       =     -1s



           Memory information
           ------------------

    heap     =  157286394 doubles =   1200.0 Mbytes
    stack    =  157286399 doubles =   1200.0 Mbytes
    global   =    1310720 doubles =     10.0 Mbytes (distinct from heap & stack)
    total    =  315883513 doubles =   2410.0 Mbytes
    verify   = yes
    hardfail = no 


           Directory information
           ---------------------

  0 permanent = .
  0 scratch   = .




                                NWChem Input Module
                                -------------------


               swnc: e theory=pspw4 xc=hf formula=H2 charge=0 mult=1
               -----------------------------------------------------

 Scaling coordinates for geometry "geometry" by  1.889725989
 (inverse scale =  0.529177249)

  zeroes
  zeroes
  zeroes
  zeroes
  zeroes
  zeroes
  zeroes
  zeroes
  zeroes
  zeroes
  zeroes
  zeroes
  zeroes
  zeroes
  zeroes
  zeroes
  zeroes
  zeroes
  zeroes
  zeroes
  zeroes
  zeroes
  zeroes
  zeroes
  zeroes
  zeroes
  zeroes
  zeroes
  zeroes
  zeroes
  zeroes
  zeroes
  zeroes
  zeroes
  zeroes
  zeroes
  zeroes
  zeroes
  zeroes
  zeroes
  zeroes
  zeroes
  zeroes
  zeroes
  zeroes
  zeroes
  zeroes
  zeroes
 ORDER OF PRIMARY AXIS IS BEING SET TO 4
 D4H symmetry detected

          ------
          auto-z
          ------
     1 autoz failed with cvr_scaling = 1.2 changing to 1.3
     2 autoz failed with cvr_scaling = 1.3 changing to 1.4
     3 autoz failed with cvr_scaling = 1.4 changing to 1.5
     4 autoz failed with cvr_scaling = 1.5 changing to 1.6
     5 autoz failed with cvr_scaling = 1.6 changing to 1.7

 AUTOZ failed to generate good internal coordinates.
 Cartesian coordinates will be used in optimizations.



                             Geometry "geometry" -> ""
                             -------------------------

 Output coordinates in angstroms (scale by  1.889725989 to convert to a.u.)

  No.       Tag          Charge          X              Y              Z
 ---- ---------------- ---------- -------------- -------------- --------------
    1 H                    1.0000     0.00000000     0.00000000    -2.00000000
    2 H                    1.0000     0.00000000     0.00000000     2.00000000

      Atomic Mass 
      ----------- 

      H                  1.007825


 Effective nuclear repulsion energy (a.u.)       0.1322943122

            Nuclear Dipole moment (a.u.) 
            ----------------------------
        X                 Y               Z
 ---------------- ---------------- ----------------
     0.0000000000     0.0000000000     0.0000000000

      Symmetry information
      --------------------

 Group name             D4h       
 Group number             28
 Group order              16
 No. of unique centers     1

      Symmetry unique atoms

     1


            XYZ format geometry
            -------------------
     2
 geometry
 H                     0.00000000     0.00000000    -2.00000000
 H                     0.00000000     0.00000000     2.00000000

          ****************************************************
          *                                                  *
          *               NWPW PSPW Calculation              *
          *                                                  *
          * [ (Grassmann/Stiefel manifold implementation)  ] *
          *                                                  *
          *      [ NorthWest Chemistry implementation ]      *
          *                                                  *
          *            version #5.10   06/12/02              *
          *                                                  *
          *    This code was developed by Eric J. Bylaska,   *
          *    and was based upon algorithms and code        *
          *    developed by the group of Prof. John H. Weare *
          *                                                  *
          ****************************************************
     >>>  JOB STARTED       AT Wed Apr 23 07:25:33 2025  <<<
          ================ input data ========================

 input psi filename:./pspw_hf_H2.movecs

 number of processors used:        24
 processor grid           :  24 x   1
 parallel mapping         :2d-hilbert
 parallel mapping         :  balanced
 number of threads        :         1
 parallel io              :       off

 options:
      boundary conditions  = aperiodic   (version4)
      electron spin        = restricted
      exchange-correlation = Hartree-Fock
      - HFX relaxed
      - HFX restricted orbitals :    1
      - HFX free-space coulomb solver


 elements involved in the cluster:
      1: H   valence charge:  1.0000  lmax=  1
             comment    : Parameterized (Chem.Phys.Lett., vol 322, page 447) Hamman psp
             pseudpotential type            :   0
             highest angular component      :   1
             local potential used           :   1
             number of non-local projections:   1
             aperiodic cutoff radius        :  1.000
             cutoff =   0.800   0.800


 total charge:   0.000

 atomic composition:
     H   :    2

 number of electrons: spin up=     1 (   1 per task)  down=     1 (   1 per task) (Fourier space)
 number of orbitals : spin up=     1 (   1 per task)  down=     1 (   1 per task) (Fourier space)

 supercell:
      cell_name:  cell_default                                      
      lattice:    a1=<  20.000   0.000   0.000 >
                  a2=<   0.000  20.000   0.000 >
                  a3=<   0.000   0.000  20.000 >
      reciprocal: b1=<   0.314   0.000   0.000 >
                  b2=<   0.000   0.314   0.000 >
                  b3=<   0.000   0.000   0.314 >
      lattice:    a=      20.000 b=     20.000 c=      20.000
                  alpha=  90.000 beta=  90.000 gamma=  90.000
                  omega=      8000.0

      density cutoff=100.000  fft= 96x 96x 96(   191162 waves     7965 per task)
      wavefnc cutoff= 50.000  fft= 96x 96x 96(    67522 waves     2813 per task)

 technical parameters:
      time step=      5.80     fictitious mass=  400000.0
      tolerance=0.100E-08 (energy)   0.100E-08 (density)
      maximum iterations =      1000 (   10 inner    100 outer )





== Energy Calculation ==


          ============ Grassmann lmbfgs iteration ============
     >>>  ITERATION STARTED AT Wed Apr 23 07:25:39 2025  <<<
    iter.           Energy         DeltaE       DeltaRho 
    ------------------------------------------------------
      10   -0.7871011146E+00   -0.15095E-02    0.71311E-02
     -  10 steepest descent iterations performed
      20   -0.7918816758E+00   -0.12327E-03    0.65021E-04
      30   -0.7921170435E+00   -0.60813E-05    0.54299E-05
      40   -0.7921369801E+00   -0.34181E-06    0.96252E-07
      50   -0.7921381600E+00   -0.20727E-07    0.45803E-08
      60   -0.7921382250E+00   -0.14791E-08    0.21748E-09
      70   -0.7921382280E+00   -0.68974E-09    0.54804E-11
  *** tolerance ok. iteration terminated
     >>>  ITERATION ENDED   AT Wed Apr 23 07:26:01 2025  <<<


==  Summary Of Results  ==

 number of electrons: spin up=    1.00000  down=    1.00000 (real space)

 total     energy    :  -0.7921382280E+00 (   -0.39607E+00/ion)
 total orbital energy:  -0.6061926652E+00 (   -0.60619E+00/electron)
 hartree   energy    :   0.6364797501E+00 (    0.63648E+00/electron)
 exc-corr  energy    :   0.0000000000E+00 (    0.00000E+00/electron)
 HF exchange energy  :  -0.3182398751E+00 (   -0.31824E+00/electron)
 ion-ion   energy    :   0.1322943122E+00 (    0.66147E-01/ion)

 kinetic (planewave) :   0.6453433926E+00 (    0.64534E+00/electron)
 V_local (planewave) :  -0.1737547507E+01 (   -0.17375E+01/electron)
 V_nl    (planewave) :  -0.1504683005E+00 (   -0.15047E+00/electron)
 V_Coul  (planewave) :   0.1272959500E+01 (    0.12730E+01/electron)
 V_xc.   (planewave) :   0.0000000000E+00 (    0.00000E+00/electron)
 K.S. HFX energy     :  -0.6364797501E+00 (   -0.63648E+00/electron)
 Virial Coefficient  :  -0.9530682653E+00

 orbital energies:
    -0.3030963E+00 (  -8.248eV)


== Virtual Orbital Calculation ==


 input epsi filename:./pspw_hf_H2.emovecs

 COVOs Mimimization
 ------------------
CI gradient algorithm =         3
maxit_sweeps          =         3
maxit_orb             =       120
maxit_linesearch      =        15
maxerror              = 0.100E-08

     orb,it,eci,eold,eci-eold=                    1                    1 -0.91468404226954536      -0.91452919666350563       -1.5484560603973296E-004 F
     orb,it,eci,eold,eci-eold=                    1                    2 -0.91479967406764517      -0.91468404226954536       -1.1563179809981339E-004 F
     orb,it,eci,eold,eci-eold=                    1                    3 -0.93260656458180546      -0.91479967406764517       -1.7806890514160290E-002 F
     orb,it,eci,eold,eci-eold=                    1                    4 -0.93491970031869898      -0.93260656458180546       -2.3131357368935124E-003 F
     orb,it,eci,eold,eci-eold=                    1                    5 -0.93765679354187137      -0.93491970031869898       -2.7370932231723932E-003 F
     orb,it,eci,eold,eci-eold=                    1                    6 -0.94788389673522944      -0.93765679354187137       -1.0227103193358067E-002 F
     orb,it,eci,eold,eci-eold=                    1                    7 -0.94926374048727347      -0.94788389673522944       -1.3798437520440299E-003 F
     orb,it,eci,eold,eci-eold=                    1                    8 -0.94951268831191893      -0.94926374048727347       -2.4894782464546239E-004 F
     orb,it,eci,eold,eci-eold=                    1                    9 -0.95338894130400798      -0.94951268831191893       -3.8762529920890465E-003 F
     orb,it,eci,eold,eci-eold=                    1                   10 -0.95557899087397902      -0.95338894130400798       -2.1900495699710421E-003 F
     orb,it,eci,eold,eci-eold=                    1                   11 -0.95951131605286899      -0.95557899087397902       -3.9323251788899727E-003 F
     orb,it,eci,eold,eci-eold=                    1                   12 -0.96029086477916181      -0.95951131605286899       -7.7954872629282246E-004 F
     orb,it,eci,eold,eci-eold=                    1                   13 -0.96064698393418080      -0.96029086477916181       -3.5611915501898572E-004 F
     orb,it,eci,eold,eci-eold=                    1                   14 -0.96236287031772205      -0.96064698393418080       -1.7158863835412541E-003 F
     orb,it,eci,eold,eci-eold=                    1                   15 -0.96243769156281345      -0.96236287031772205       -7.4821245091394317E-005 F
     orb,it,eci,eold,eci-eold=                    1                   16 -0.96286034961212319      -0.96243769156281345       -4.2265804930974316E-004 F
     orb,it,eci,eold,eci-eold=                    1                   17 -0.96561733340439937      -0.96286034961212319       -2.7569837922761797E-003 F
     orb,it,eci,eold,eci-eold=                    1                   18 -0.96635377159865876      -0.96561733340439937       -7.3643819425939228E-004 F
     orb,it,eci,eold,eci-eold=                    1                   19 -0.96647894766609010      -0.96635377159865876       -1.2517606743134291E-004 F
     orb,it,eci,eold,eci-eold=                    1                   20 -0.96817670214769946      -0.96647894766609010       -1.6977544816093593E-003 F
     orb,it,eci,eold,eci-eold=                    1                   21 -0.96831041355853509      -0.96817670214769946       -1.3371141083562410E-004 F
     orb,it,eci,eold,eci-eold=                    1                   22 -0.96842810433318061      -0.96831041355853509       -1.1769077464551803E-004 F
     orb,it,eci,eold,eci-eold=                    1                   23 -0.96982289262690846      -0.96842810433318061       -1.3947882937278555E-003 F
     orb,it,eci,eold,eci-eold=                    1                   24 -0.97019827899451727      -0.96982289262690846       -3.7538636760880983E-004 F
     orb,it,eci,eold,eci-eold=                    1                   25 -0.97029690084951903      -0.97019827899451727       -9.8621855001757019E-005 F
     orb,it,eci,eold,eci-eold=                    1                   26 -0.97155533801236293      -0.97029690084951903       -1.2584371628439062E-003 F
     orb,it,eci,eold,eci-eold=                    1                   27 -0.97185092066219791      -0.97155533801236293       -2.9558264983498006E-004 F
     orb,it,eci,eold,eci-eold=                    1                   28 -0.97196686670404542      -0.97185092066219791       -1.1594604184750334E-004 F
     orb,it,eci,eold,eci-eold=                    1                   29 -0.97288965807228867      -0.97196686670404542       -9.2279136824324759E-004 F
     orb,it,eci,eold,eci-eold=                    1                   30 -0.97307685885801831      -0.97288965807228867       -1.8720078572964649E-004 F
     orb,it,eci,eold,eci-eold=                    1                   31 -0.97313514189785100      -0.97307685885801831       -5.8283039832685013E-005 F
     orb,it,eci,eold,eci-eold=                    1                   32 -0.97401506297231466      -0.97313514189785100       -8.7992107446366319E-004 F
     orb,it,eci,eold,eci-eold=                    1                   33 -0.97420138942086854      -0.97401506297231466       -1.8632644855387515E-004 F
     orb,it,eci,eold,eci-eold=                    1                   34 -0.97421641427152117      -0.97420138942086854       -1.5024850652634036E-005 F
     orb,it,eci,eold,eci-eold=                    1                   35 -0.97471916215511500      -0.97421641427152117       -5.0274788359383482E-004 F
     orb,it,eci,eold,eci-eold=                    1                   36 -0.97486829005467757      -0.97471916215511500       -1.4912789956256223E-004 F
     orb,it,eci,eold,eci-eold=                    1                   37 -0.97486857953084605      -0.97486829005467757       -2.8947616848018498E-007 F
     orb,it,eci,eold,eci-eold=                    1                   38 -0.97524228361596310      -0.97486857953084605       -3.7370408511705477E-004 F
     orb,it,eci,eold,eci-eold=                    1                   39 -0.97555183352605201      -0.97524228361596310       -3.0954991008891319E-004 F
     orb,it,eci,eold,eci-eold=                    1                   40 -0.97569630602358792      -0.97555183352605201       -1.4447249753590796E-004 F
     orb,it,eci,eold,eci-eold=                    1                   41 -0.97602132834002064      -0.97569630602358792       -3.2502231643272150E-004 F
     orb,it,eci,eold,eci-eold=                    1                   42 -0.97622966302215164      -0.97602132834002064       -2.0833468213099504E-004 F
     orb,it,eci,eold,eci-eold=                    1                   43 -0.97645475732316789      -0.97622966302215164       -2.2509430101624872E-004 F
     orb,it,eci,eold,eci-eold=                    1                   44 -0.97657376122767914      -0.97645475732316789       -1.1900390451125009E-004 F
     orb,it,eci,eold,eci-eold=                    1                   45 -0.97680673916725724      -0.97657376122767914       -2.3297793957810509E-004 F
     orb,it,eci,eold,eci-eold=                    1                   46 -0.97681929131083123      -0.97680673916725724       -1.2552143573985042E-005 F
     orb,it,eci,eold,eci-eold=                    1                   47 -0.97682027512987035      -0.97681929131083123       -9.8381903912425628E-007 F
     orb,it,eci,eold,eci-eold=                    1                   48 -0.97694641385630698      -0.97682027512987035       -1.2613872643663093E-004 F
     orb,it,eci,eold,eci-eold=                    1                   49 -0.97701118181030977      -0.97694641385630698       -6.4767954002786787E-005 F
     orb,it,eci,eold,eci-eold=                    1                   50 -0.97704150847677840      -0.97701118181030977       -3.0326666468627472E-005 F
     orb,it,eci,eold,eci-eold=                    1                   51 -0.97717923403344786      -0.97704150847677840       -1.3772555666946573E-004 F
     orb,it,eci,eold,eci-eold=                    1                   52 -0.97723744821463321      -0.97717923403344786       -5.8214181185345382E-005 F
     orb,it,eci,eold,eci-eold=                    1                   53 -0.97725117753798885      -0.97723744821463321       -1.3729323355637923E-005 F
     orb,it,eci,eold,eci-eold=                    1                   54 -0.97733184910197168      -0.97725117753798885       -8.0671563982837036E-005 F
     orb,it,eci,eold,eci-eold=                    1                   55 -0.97735970132445127      -0.97733184910197168       -2.7852222479585187E-005 F
     orb,it,eci,eold,eci-eold=                    1                   56 -0.97737550676531626      -0.97735970132445127       -1.5805440864991027E-005 F
     orb,it,eci,eold,eci-eold=                    1                   57 -0.97746200033261021      -0.97737550676531626       -8.6493567293954854E-005 F
     orb,it,eci,eold,eci-eold=                    1                   58 -0.97750822252495018      -0.97746200033261021       -4.6222192339961943E-005 F
     orb,it,eci,eold,eci-eold=                    1                   59 -0.97752376530969243      -0.97750822252495018       -1.5542784742250682E-005 F
     orb,it,eci,eold,eci-eold=                    1                   60 -0.97757892763212018      -0.97752376530969243       -5.5162322427748656E-005 F
     orb,it,eci,eold,eci-eold=                    1                   61 -0.97758842363661835      -0.97757892763212018       -9.4960044981773351E-006 F
     orb,it,eci,eold,eci-eold=                    1                   62 -0.97759434414583923      -0.97758842363661835       -5.9205092208802768E-006 F
     orb,it,eci,eold,eci-eold=                    1                   63 -0.97764359763902620      -0.97759434414583923       -4.9253493186962594E-005 F
     orb,it,eci,eold,eci-eold=                    1                   64 -0.97766557584261538      -0.97764359763902620       -2.1978203589179124E-005 F
     orb,it,eci,eold,eci-eold=                    1                   65 -0.97767228396508465      -0.97766557584261538       -6.7081224692788766E-006 F
     orb,it,eci,eold,eci-eold=                    1                   66 -0.97771009241030293      -0.97767228396508465       -3.7808445218279196E-005 F
     orb,it,eci,eold,eci-eold=                    1                   67 -0.97772054207284542      -0.97771009241030293       -1.0449662542488802E-005 F
     orb,it,eci,eold,eci-eold=                    1                   68 -0.97772305593212827      -0.97772054207284542       -2.5138592828488626E-006 F
     orb,it,eci,eold,eci-eold=                    1                   69 -0.97775598924785179      -0.97772305593212827       -3.2933315723515655E-005 F
     orb,it,eci,eold,eci-eold=                    1                   70 -0.97777354261137139      -0.97775598924785179       -1.7553363519606791E-005 F
     orb,it,eci,eold,eci-eold=                    1                   71 -0.97777775054956773      -0.97777354261137139       -4.2079381963322504E-006 F
     orb,it,eci,eold,eci-eold=                    1                   72 -0.97780360021896651      -0.97777775054956773       -2.5849669398780861E-005 F
     orb,it,eci,eold,eci-eold=                    1                   73 -0.97781410030801408      -0.97780360021896651       -1.0500089047571493E-005 F
     orb,it,eci,eold,eci-eold=                    1                   74 -0.97781717678776947      -0.97781410030801408       -3.0764797553928247E-006 F
     orb,it,eci,eold,eci-eold=                    1                   75 -0.97783967542685801      -0.97781717678776947       -2.2498639088541772E-005 F
     orb,it,eci,eold,eci-eold=                    1                   76 -0.97785116996125399      -0.97783967542685801       -1.1494534395972700E-005 F
     orb,it,eci,eold,eci-eold=                    1                   77 -0.97785466375155328      -0.97785116996125399       -3.4937902992915326E-006 F
     orb,it,eci,eold,eci-eold=                    1                   78 -0.97787250564492856      -0.97785466375155328       -1.7841893375281082E-005 F
     orb,it,eci,eold,eci-eold=                    1                   79 -0.97787906747257414      -0.97787250564492856       -6.5618276455792213E-006 F
     orb,it,eci,eold,eci-eold=                    1                   80 -0.97788113912848396      -0.97787906747257414       -2.0716559098188370E-006 F
     orb,it,eci,eold,eci-eold=                    1                   81 -0.97789587245034004      -0.97788113912848396       -1.4733321856086334E-005 F
     orb,it,eci,eold,eci-eold=                    1                   82 -0.97790287994305136      -0.97789587245034004       -7.0074927113195074E-006 F
     orb,it,eci,eold,eci-eold=                    1                   83 -0.97790510506514783      -0.97790287994305136       -2.2251220964664142E-006 F
     orb,it,eci,eold,eci-eold=                    1                   84 -0.97791636712385033      -0.97790510506514783       -1.1262058702499189E-005 F
     orb,it,eci,eold,eci-eold=                    1                   85 -0.97791995167215739      -0.97791636712385033       -3.5845483070673367E-006 F
     orb,it,eci,eold,eci-eold=                    1                   86 -0.97792108616123152      -0.97791995167215739       -1.1344890741282754E-006 F
     orb,it,eci,eold,eci-eold=                    1                   87 -0.97793015849705167      -0.97792108616123152       -9.0723358201483251E-006 F
     orb,it,eci,eold,eci-eold=                    1                   88 -0.97793451156205047      -0.97793015849705167       -4.3530649987966186E-006 F
     orb,it,eci,eold,eci-eold=                    1                   89 -0.97793593899282261      -0.97793451156205047       -1.4274307721384716E-006 F
     orb,it,eci,eold,eci-eold=                    1                   90 -0.97794275976999134      -0.97793593899282261       -6.8207771687367469E-006 F
     orb,it,eci,eold,eci-eold=                    1                   91 -0.97794487795520191      -0.97794275976999134       -2.1181852105645049E-006 F
     orb,it,eci,eold,eci-eold=                    1                   92 -0.97794568325897746      -0.97794487795520191       -8.0530377555287913E-007 F
     orb,it,eci,eold,eci-eold=                    1                   93 -0.97795140550172199      -0.97794568325897746       -5.7222427445324797E-006 F
     orb,it,eci,eold,eci-eold=                    1                   94 -0.97795429639688569      -0.97795140550172199       -2.8908951636985591E-006 F
     orb,it,eci,eold,eci-eold=                    1                   95 -0.97795541368165795      -0.97795429639688569       -1.1172847722562551E-006 F
     orb,it,eci,eold,eci-eold=                    1                   96 -0.97796006661825863      -0.97795541368165795       -4.6529366006797801E-006 F
     orb,it,eci,eold,eci-eold=                    1                   97 -0.97796124959434771      -0.97796006661825863       -1.1829760890869068E-006 F
     orb,it,eci,eold,eci-eold=                    1                   98 -0.97796155582588695      -0.97796124959434771       -3.0623153923770019E-007 F
     orb,it,eci,eold,eci-eold=                    1                   99 -0.97796492430420356      -0.97796155582588695       -3.3684783166121335E-006 F
     orb,it,eci,eold,eci-eold=                    1                  100 -0.97796641440423904      -0.97796492430420356       -1.4901000354727856E-006 F
     orb,it,eci,eold,eci-eold=                    1                  101 -0.97796691779428191      -0.97796641440423904       -5.0339004287192068E-007 F
     orb,it,eci,eold,eci-eold=                    1                  102 -0.97796980947641698      -0.97796691779428191       -2.8916821350755129E-006 F
     orb,it,eci,eold,eci-eold=                    1                  103 -0.97797078781645208      -0.97796980947641698       -9.7834003509600365E-007 F
     orb,it,eci,eold,eci-eold=                    1                  104 -0.97797101530159836      -0.97797078781645208       -2.2748514627579652E-007 F
     orb,it,eci,eold,eci-eold=                    1                  105 -0.97797328435496689      -0.97797101530159836       -2.2690533685310044E-006 F
     orb,it,eci,eold,eci-eold=                    1                  106 -0.97797439217692195      -0.97797328435496689       -1.1078219550597623E-006 F
     orb,it,eci,eold,eci-eold=                    1                  107 -0.97797474243394511      -0.97797439217692195       -3.5025702316282548E-007 F
     orb,it,eci,eold,eci-eold=                    1                  108 -0.97797676637704223      -0.97797474243394511       -2.0239430971180639E-006 F
     orb,it,eci,eold,eci-eold=                    1                  109 -0.97797760360575581      -0.97797676637704223       -8.3722871357938544E-007 F
     orb,it,eci,eold,eci-eold=                    1                  110 -0.97797781668683637      -0.97797760360575581       -2.1308108055784203E-007 F
     orb,it,eci,eold,eci-eold=                    1                  111 -0.97797940923755600      -0.97797781668683637       -1.5925507196312694E-006 F
     orb,it,eci,eold,eci-eold=                    1                  112 -0.97798015041705888      -0.97797940923755600       -7.4117950288332679E-007 F
     orb,it,eci,eold,eci-eold=                    1                  113 -0.97798038212978888      -0.97798015041705888       -2.3171273000333059E-007 F
     orb,it,eci,eold,eci-eold=                    1                  114 -0.97798172991123344      -0.97798038212978888       -1.3477814445606029E-006 F
     orb,it,eci,eold,eci-eold=                    1                  115 -0.97798228353053362      -0.97798172991123344       -5.5361930018094085E-007 F
     orb,it,eci,eold,eci-eold=                    1                  116 -0.97798243630782244      -0.97798228353053362       -1.5277728881990527E-007 F
     orb,it,eci,eold,eci-eold=                    1                  117 -0.97798345346134274      -0.97798243630782244       -1.0171535202996296E-006 F
     orb,it,eci,eold,eci-eold=                    1                  118 -0.97798384441677677      -0.97798345346134274       -3.9095543402645205E-007 F
     orb,it,eci,eold,eci-eold=                    1                  119 -0.97798396060335713      -0.97798384441677677       -1.1618658035672524E-007 F
     orb,it,eci,eold,eci-eold=                    1                  120 -0.97798477003270667      -0.97798396060335713       -8.0942934954641999E-007 F
     orb,it,eci,eold,eci-eold=                    1                  121 -0.97798511473099214      -0.97798477003270667       -3.4469828547045722E-007 F
     orbital   1 current e= -0.151533E+00 error=0.780E-01 (eci= -0.977985115E+00 error=0.345E-06) iterations 121(   0 preconditioned, Ep,Sp= 20.0  200.0)
     orb,it,eci,eold,eci-eold=                    1                    1 -0.97798727356704918      -0.97798511473099214       -2.1588360570312659E-006 F
     orb,it,eci,eold,eci-eold=                    1                    2 -0.97798798220720862      -0.97798727356704918       -7.0864015944138714E-007 F
     orb,it,eci,eold,eci-eold=                    1                    3 -0.97798805978040515      -0.97798798220720862       -7.7573196533009536E-008 F
     orb,it,eci,eold,eci-eold=                    1                    4 -0.97798859153203654      -0.97798805978040515       -5.3175163139407289E-007 F
     orb,it,eci,eold,eci-eold=                    1                    5 -0.97798920221613772      -0.97798859153203654       -6.1068410117659511E-007 F
     orb,it,eci,eold,eci-eold=                    1                    6 -0.97798948258506413      -0.97798920221613772       -2.8036892640859179E-007 F
     orb,it,eci,eold,eci-eold=                    1                    7 -0.97798950252749772      -0.97798948258506413       -1.9942433593378439E-008 F
     orb,it,eci,eold,eci-eold=                    1                    8 -0.97798950252749772      -0.97798950252749772        0.0000000000000000      F
     orbital   1 current e= -0.151528E+00 error=0.493E-05 (eci= -0.977989503E+00 error=0.000E+00) iterations   8(   0 preconditioned, Ep,Sp= 20.0  200.0)
     orb,it,eci,eold,eci-eold=                    1                    1 -0.97798984035312087      -0.97798950228398707       -3.3806913379841319E-007 F
     orb,it,eci,eold,eci-eold=                    1                    2 -0.97798999091491590      -0.97798984035312087       -1.5056179503147860E-007 F
     orb,it,eci,eold,eci-eold=                    1                    3 -0.97799006241057629      -0.97798999091491590       -7.1495660391995841E-008 F
     orb,it,eci,eold,eci-eold=                    1                    4 -0.97799007932023219      -0.97799006241057629       -1.6909655897734410E-008 F
     orb,it,eci,eold,eci-eold=                    1                    5 -0.97799009288441219      -0.97799007932023219       -1.3564180001424120E-008 F
     orb,it,eci,eold,eci-eold=                    1                    6 -0.97799010591973290      -0.97799009288441219       -1.3035320711729526E-008 F
     orb,it,eci,eold,eci-eold=                    1                    7 -0.97799011532207925      -0.97799010591973290       -9.4023463459436130E-009 F
     orb,it,eci,eold,eci-eold=                    1                    8 -0.97799011902939925      -0.97799011532207925       -3.7073200065407264E-009 F
     orb,it,eci,eold,eci-eold=                    1                    9 -0.97799012167128085      -0.97799011902939925       -2.6418816023721092E-009 F
     orb,it,eci,eold,eci-eold=                    1                   10 -0.97799012451426737      -0.97799012167128085       -2.8429865128742904E-009 F
     orb,it,eci,eold,eci-eold=                    1                   11 -0.97799012563813115      -0.97799012451426737       -1.1238637798172135E-009 F
     orb,it,eci,eold,eci-eold=                    1                   12 -0.97799012592539547      -0.97799012563813115       -2.8726432343972874E-010 F
     orbital   1 current e= -0.151524E+00 error=0.441E-05 (eci= -0.977990126E+00 error=0.287E-09) iterations  12(   0 preconditioned, Ep,Sp= 20.0  200.0)
     orb,it,eci,eold,eci-eold=                    2                    1 -0.79566204031502963      -0.79513752669037097       -5.2451362465866236E-004 F
     orb,it,eci,eold,eci-eold=                    2                    2 -0.79569716452543615      -0.79566204031502963       -3.5124210406523027E-005 F
     orb,it,eci,eold,eci-eold=                    2                    3 -0.79574570438703651      -0.79569716452543615       -4.8539861600360723E-005 F
     orb,it,eci,eold,eci-eold=                    2                    4 -0.79585751874024546      -0.79574570438703651       -1.1181435320894995E-004 F
     orb,it,eci,eold,eci-eold=                    2                    5 -0.79591640672086239      -0.79585751874024546       -5.8887980616928459E-005 F
     orb,it,eci,eold,eci-eold=                    2                    6 -0.79600634026651451      -0.79591640672086239       -8.9933545652121083E-005 F
     orb,it,eci,eold,eci-eold=                    2                    7 -0.79606716954843126      -0.79600634026651451       -6.0829281916752187E-005 F
     orb,it,eci,eold,eci-eold=                    2                    8 -0.79612026775583977      -0.79606716954843126       -5.3098207408508458E-005 F
     orb,it,eci,eold,eci-eold=                    2                    9 -0.79614737405611513      -0.79612026775583977       -2.7106300275359096E-005 F
     orb,it,eci,eold,eci-eold=                    2                   10 -0.79617153009025921      -0.79614737405611513       -2.4156034144073857E-005 F
     orb,it,eci,eold,eci-eold=                    2                   11 -0.79618135350685459      -0.79617153009025921       -9.8234165953892116E-006 F
     orb,it,eci,eold,eci-eold=                    2                   12 -0.79618707986976633      -0.79618135350685459       -5.7263629117398906E-006 F
     orb,it,eci,eold,eci-eold=                    2                   13 -0.79622604166921751      -0.79618707986976633       -3.8961799451175949E-005 F
     orb,it,eci,eold,eci-eold=                    2                   14 -0.79624668998382753      -0.79622604166921751       -2.0648314610016705E-005 F
     orb,it,eci,eold,eci-eold=                    2                   15 -0.79626313778527602      -0.79624668998382753       -1.6447801448493671E-005 F
     orb,it,eci,eold,eci-eold=                    2                   16 -0.79627298772909028      -0.79626313778527602       -9.8499438142551909E-006 F
     orb,it,eci,eold,eci-eold=                    2                   17 -0.79630639223582045      -0.79627298772909028       -3.3404506730172479E-005 F
     orb,it,eci,eold,eci-eold=                    2                   18 -0.79631848509149816      -0.79630639223582045       -1.2092855677714454E-005 F
     orb,it,eci,eold,eci-eold=                    2                   19 -0.79632238864533322      -0.79631848509149816       -3.9035538350606913E-006 F
     orb,it,eci,eold,eci-eold=                    2                   20 -0.79634278265494851      -0.79632238864533322       -2.0394009615287700E-005 F
     orb,it,eci,eold,eci-eold=                    2                   21 -0.79634690171458244      -0.79634278265494851       -4.1190596339335528E-006 F
     orb,it,eci,eold,eci-eold=                    2                   22 -0.79634874292830815      -0.79634690171458244       -1.8412137257062255E-006 F
     orb,it,eci,eold,eci-eold=                    2                   23 -0.79636602103618270      -0.79634874292830815       -1.7278107874552084E-005 F
     orb,it,eci,eold,eci-eold=                    2                   24 -0.79637199634798439      -0.79636602103618270       -5.9753118016869777E-006 F
     orb,it,eci,eold,eci-eold=                    2                   25 -0.79637286478234948      -0.79637199634798439       -8.6843436508665661E-007 F
     orb,it,eci,eold,eci-eold=                    2                   26 -0.79638299216585939      -0.79637286478234948       -1.0127383509916932E-005 F
     orb,it,eci,eold,eci-eold=                    2                   27 -0.79638644222392796      -0.79638299216585939       -3.4500580685659088E-006 F
     orb,it,eci,eold,eci-eold=                    2                   28 -0.79638855373722239      -0.79638644222392796       -2.1115132944338200E-006 F
     orb,it,eci,eold,eci-eold=                    2                   29 -0.79640021036826947      -0.79638855373722239       -1.1656631047074484E-005 F
     orb,it,eci,eold,eci-eold=                    2                   30 -0.79640327037318004      -0.79640021036826947       -3.0600049105711236E-006 F
     orb,it,eci,eold,eci-eold=                    2                   31 -0.79640424994263226      -0.79640327037318004       -9.7956945221966407E-007 F
     orb,it,eci,eold,eci-eold=                    2                   32 -0.79641311503441248      -0.79640424994263226       -8.8650917802191032E-006 F
     orb,it,eci,eold,eci-eold=                    2                   33 -0.79641814517444720      -0.79641311503441248       -5.0301400347230185E-006 F
     orb,it,eci,eold,eci-eold=                    2                   34 -0.79642481966194301      -0.79641814517444720       -6.6744874958057920E-006 F
     orb,it,eci,eold,eci-eold=                    2                   35 -0.79642490832035850      -0.79642481966194301       -8.8658415497988585E-008 F
     orb,it,eci,eold,eci-eold=                    2                   36 -0.79642550592371797      -0.79642490832035850       -5.9760335946457133E-007 F
     orb,it,eci,eold,eci-eold=                    2                   37 -0.79642944840603813      -0.79642550592371797       -3.9424823201628101E-006 F
     orb,it,eci,eold,eci-eold=                    2                   38 -0.79643076200289820      -0.79642944840603813       -1.3135968600641590E-006 F
     orb,it,eci,eold,eci-eold=                    2                   39 -0.79643169372346079      -0.79643076200289820       -9.3172056259138714E-007 F
     orb,it,eci,eold,eci-eold=                    2                   40 -0.79643625668624107      -0.79643169372346079       -4.5629627802856731E-006 F
     orb,it,eci,eold,eci-eold=                    2                   41 -0.79643736372284890      -0.79643625668624107       -1.1070366078280713E-006 F
     orb,it,eci,eold,eci-eold=                    2                   42 -0.79643773556332209      -0.79643736372284890       -3.7184047319005487E-007 F
     orb,it,eci,eold,eci-eold=                    2                   43 -0.79644165619867913      -0.79643773556332209       -3.9206353570353514E-006 F
     orb,it,eci,eold,eci-eold=                    2                   44 -0.79644172765441290      -0.79644165619867913       -7.1455733774428154E-008 F
     orb,it,eci,eold,eci-eold=                    2                   45 -0.79644196756618302      -0.79644172765441290       -2.3991177011684073E-007 F
     orb,it,eci,eold,eci-eold=                    2                   46 -0.79644579552014994      -0.79644196756618302       -3.8279539669172635E-006 F
     orb,it,eci,eold,eci-eold=                    2                   47 -0.79644806518493128      -0.79644579552014994       -2.2696647813402748E-006 F
     orb,it,eci,eold,eci-eold=                    2                   48 -0.79644936469994487      -0.79644806518493128       -1.2995150135974853E-006 F
     orb,it,eci,eold,eci-eold=                    2                   49 -0.79644979420922302      -0.79644936469994487       -4.2950927814366935E-007 F
     orb,it,eci,eold,eci-eold=                    2                   50 -0.79645141828741017      -0.79644979420922302       -1.6240781871568188E-006 F
     orb,it,eci,eold,eci-eold=                    2                   51 -0.79645183923858354      -0.79645141828741017       -4.2095117336327093E-007 F
     orb,it,eci,eold,eci-eold=                    2                   52 -0.79645192664882092      -0.79645183923858354       -8.7410237381568834E-008 F
     orb,it,eci,eold,eci-eold=                    2                   53 -0.79645306245737268      -0.79645192664882092       -1.1358085517665373E-006 F
     orb,it,eci,eold,eci-eold=                    2                   54 -0.79645369425834067      -0.79645306245737268       -6.3180096798731711E-007 F
     orb,it,eci,eold,eci-eold=                    2                   55 -0.79645391507210272      -0.79645369425834067       -2.2081376205296266E-007 F
     orb,it,eci,eold,eci-eold=                    2                   56 -0.79645474258106019      -0.79645391507210272       -8.2750895746830366E-007 F
     orb,it,eci,eold,eci-eold=                    2                   57 -0.79645504148374369      -0.79645474258106019       -2.9890268349319626E-007 F
     orb,it,eci,eold,eci-eold=                    2                   58 -0.79645525462641387      -0.79645504148374369       -2.1314267018013311E-007 F
     orb,it,eci,eold,eci-eold=                    2                   59 -0.79645614032973455      -0.79645525462641387       -8.8570332068549362E-007 F
     orb,it,eci,eold,eci-eold=                    2                   60 -0.79645634581007885      -0.79645614032973455       -2.0548034429523909E-007 F
     orb,it,eci,eold,eci-eold=                    2                   61 -0.79645635932968273      -0.79645634581007885       -1.3519603880851605E-008 F
     orb,it,eci,eold,eci-eold=                    2                   62 -0.79645693812584317      -0.79645635932968273       -5.7879616044420601E-007 F
     orb,it,eci,eold,eci-eold=                    2                   63 -0.79645729495239637      -0.79645693812584317       -3.5682655319391188E-007 F
     orb,it,eci,eold,eci-eold=                    2                   64 -0.79645744074555114      -0.79645729495239637       -1.4579315477103449E-007 F
     orb,it,eci,eold,eci-eold=                    2                   65 -0.79645803201057630      -0.79645744074555114       -5.9126502516271273E-007 F
     orb,it,eci,eold,eci-eold=                    2                   66 -0.79645810450188903      -0.79645803201057630       -7.2491312730349478E-008 F
     orb,it,eci,eold,eci-eold=                    2                   67 -0.79645813363442841      -0.79645810450188903       -2.9132539380860578E-008 F
     orb,it,eci,eold,eci-eold=                    2                   68 -0.79645869124577229      -0.79645813363442841       -5.5761134387655176E-007 F
     orb,it,eci,eold,eci-eold=                    2                   69 -0.79645884068150097      -0.79645869124577229       -1.4943572868020283E-007 F
     orb,it,eci,eold,eci-eold=                    2                   70 -0.79645884400357736      -0.79645884068150097       -3.3220763917540808E-009 F
     orb,it,eci,eold,eci-eold=                    2                   71 -0.79645916985125753      -0.79645884400357736       -3.2584768017152044E-007 F
     orb,it,eci,eold,eci-eold=                    2                   72 -0.79645935566589143      -0.79645916985125753       -1.8581463390177078E-007 F
     orb,it,eci,eold,eci-eold=                    2                   73 -0.79645940880241695      -0.79645935566589143       -5.3136525512975652E-008 F
     orb,it,eci,eold,eci-eold=                    2                   74 -0.79645969750648027      -0.79645940880241695       -2.8870406332259790E-007 F
     orb,it,eci,eold,eci-eold=                    2                   75 -0.79645985137329922      -0.79645969750648027       -1.5386681895268595E-007 F
     orb,it,eci,eold,eci-eold=                    2                   76 -0.79645990828031721      -0.79645985137329922       -5.6907017986773667E-008 F
     orb,it,eci,eold,eci-eold=                    2                   77 -0.79646013027275553      -0.79645990828031721       -2.2199243832066173E-007 F
     orb,it,eci,eold,eci-eold=                    2                   78 -0.79646020450215227      -0.79646013027275553       -7.4229396740399523E-008 F
     orb,it,eci,eold,eci-eold=                    2                   79 -0.79646024084793632      -0.79646020450215227       -3.6345784049096608E-008 F
     orb,it,eci,eold,eci-eold=                    2                   80 -0.79646044125721926      -0.79646024084793632       -2.0040928294662308E-007 F
     orb,it,eci,eold,eci-eold=                    2                   81 -0.79646051619227676      -0.79646044125721926       -7.4935057492453438E-008 F
     orb,it,eci,eold,eci-eold=                    2                   82 -0.79646053364067682      -0.79646051619227676       -1.7448400058128755E-008 F
     orb,it,eci,eold,eci-eold=                    2                   83 -0.79646067556268263      -0.79646053364067682       -1.4192200581408798E-007 F
     orb,it,eci,eold,eci-eold=                    2                   84 -0.79646075039142084      -0.79646067556268263       -7.4828738205745537E-008 F
     orb,it,eci,eold,eci-eold=                    2                   85 -0.79646078002039988      -0.79646075039142084       -2.9628979048013093E-008 F
     orb,it,eci,eold,eci-eold=                    2                   86 -0.79646089116820262      -0.79646078002039988       -1.1114780273935310E-007 F
     orb,it,eci,eold,eci-eold=                    2                   87 -0.79646092070304686      -0.79646089116820262       -2.9534844236955848E-008 F
     orb,it,eci,eold,eci-eold=                    2                   88 -0.79646093713209720      -0.79646092070304686       -1.6429050342381402E-008 F
     orb,it,eci,eold,eci-eold=                    2                   89 -0.79646104411061946      -0.79646093713209720       -1.0697852226293492E-007 F
     orb,it,eci,eold,eci-eold=                    2                   90 -0.79646108198309729      -0.79646104411061946       -3.7872477820499739E-008 F
     orb,it,eci,eold,eci-eold=                    2                   91 -0.79646108604434906      -0.79646108198309729       -4.0612517793192637E-009 F
     orb,it,eci,eold,eci-eold=                    2                   92 -0.79646115807562479      -0.79646108604434906       -7.2031275721862187E-008 F
     orb,it,eci,eold,eci-eold=                    2                   93 -0.79646120555567368      -0.79646115807562479       -4.7480048892545312E-008 F
     orb,it,eci,eold,eci-eold=                    2                   94 -0.79646122538795527      -0.79646120555567368       -1.9832281594744927E-008 F
     orb,it,eci,eold,eci-eold=                    2                   95 -0.79646128750455902      -0.79646122538795527       -6.2116603749551302E-008 F
     orb,it,eci,eold,eci-eold=                    2                   96 -0.79646129227503759      -0.79646128750455902       -4.7704785677282757E-009 F
     orb,it,eci,eold,eci-eold=                    2                   97 -0.79646129227503759      -0.79646129227503759        0.0000000000000000      F
     orbital   2 current e=  0.344990E+00 error=0.470E-01 (eci= -0.796461292E+00 error=0.000E+00) iterations  97(   0 preconditioned, Ep,Sp= 20.0  200.0)
     orb,it,eci,eold,eci-eold=                    2                    1 -0.79646138076343376      -0.79646129150345923       -8.9259974522803986E-008 F
     orb,it,eci,eold,eci-eold=                    2                    2 -0.79646143189892171      -0.79646138076343376       -5.1135487955100700E-008 F
     orb,it,eci,eold,eci-eold=                    2                    3 -0.79646153433473876      -0.79646143189892171       -1.0243581705093874E-007 F
     orb,it,eci,eold,eci-eold=                    2                    4 -0.79646159072284672      -0.79646153433473876       -5.6388107960714251E-008 F
     orb,it,eci,eold,eci-eold=                    2                    5 -0.79646160356461571      -0.79646159072284672       -1.2841768981530777E-008 F
     orb,it,eci,eold,eci-eold=                    2                    6 -0.79646160356461571      -0.79646160356461571        0.0000000000000000      F
     orbital   2 current e=  0.345045E+00 error=0.551E-04 (eci= -0.796461604E+00 error=0.000E+00) iterations   6(   0 preconditioned, Ep,Sp= 20.0  200.0)
     orb,it,eci,eold,eci-eold=                    2                    1 -0.79646164517878160      -0.79646160355963702       -4.1619144575122391E-008 F
     orb,it,eci,eold,eci-eold=                    2                    2 -0.79646167501590259      -0.79646164517878160       -2.9837120996134558E-008 F
     orb,it,eci,eold,eci-eold=                    2                    3 -0.79646169213047846      -0.79646167501590259       -1.7114575867616111E-008 F
     orb,it,eci,eold,eci-eold=                    2                    4 -0.79646169396333089      -0.79646169213047846       -1.8328524253874434E-009 F
     orb,it,eci,eold,eci-eold=                    2                    5 -0.79646169522908317      -0.79646169396333089       -1.2657522807657529E-009 F
     orb,it,eci,eold,eci-eold=                    2                    6 -0.79646170315214881      -0.79646169522908317       -7.9230656480078210E-009 F
     orb,it,eci,eold,eci-eold=                    2                    7 -0.79646170701175234      -0.79646170315214881       -3.8596035256688310E-009 F
     orb,it,eci,eold,eci-eold=                    2                    8 -0.79646170930053839      -0.79646170701175234       -2.2887860495757195E-009 F
     orb,it,eci,eold,eci-eold=                    2                    9 -0.79646171297702262      -0.79646170930053839       -3.6764842281655774E-009 F
     orb,it,eci,eold,eci-eold=                    2                   10 -0.79646171477119276      -0.79646171297702262       -1.7941701457857562E-009 F
     orb,it,eci,eold,eci-eold=                    2                   11 -0.79646171560860091      -0.79646171477119276       -8.3740814282862175E-010 F
     orbital   2 current e=  0.345177E+00 error=0.131E-03 (eci= -0.796461716E+00 error=0.837E-09) iterations  11(   0 preconditioned, Ep,Sp= 20.0  200.0)
     orb,it,eci,eold,eci-eold=                    3                    1 -0.79385681856450985      -0.79377335085649059       -8.3467708019258069E-005 F
     orb,it,eci,eold,eci-eold=                    3                    2 -0.79387001527076451      -0.79385681856450985       -1.3196706254658963E-005 F
     orb,it,eci,eold,eci-eold=                    3                    3 -0.79390966757174031      -0.79387001527076451       -3.9652300975800969E-005 F
     orb,it,eci,eold,eci-eold=                    3                    4 -0.79391650404889114      -0.79390966757174031       -6.8364771508289124E-006 F
     orb,it,eci,eold,eci-eold=                    3                    5 -0.79394728514586022      -0.79391650404889114       -3.0781096969079158E-005 F
     orb,it,eci,eold,eci-eold=                    3                    6 -0.79397174272010640      -0.79394728514586022       -2.4457574246183889E-005 F
     orb,it,eci,eold,eci-eold=                    3                    7 -0.79398031836846306      -0.79397174272010640       -8.5756483566568065E-006 F
     orb,it,eci,eold,eci-eold=                    3                    8 -0.79401323251768408      -0.79398031836846306       -3.2914149221019429E-005 F
     orb,it,eci,eold,eci-eold=                    3                    9 -0.79401787308623273      -0.79401323251768408       -4.6405685486528014E-006 F
     orb,it,eci,eold,eci-eold=                    3                   10 -0.79402118207495609      -0.79401787308623273       -3.3089887233606063E-006 F
     orb,it,eci,eold,eci-eold=                    3                   11 -0.79404443599482843      -0.79402118207495609       -2.3253919872345818E-005 F
     orb,it,eci,eold,eci-eold=                    3                   12 -0.79404988667630649      -0.79404443599482843       -5.4506814780586055E-006 F
     orb,it,eci,eold,eci-eold=                    3                   13 -0.79405362279662317      -0.79404988667630649       -3.7361203166774715E-006 F
     orb,it,eci,eold,eci-eold=                    3                   14 -0.79407468718941643      -0.79405362279662317       -2.1064392793257447E-005 F
     orb,it,eci,eold,eci-eold=                    3                   15 -0.79407832800553502      -0.79407468718941643       -3.6408161185885746E-006 F
     orb,it,eci,eold,eci-eold=                    3                   16 -0.79407921602724918      -0.79407832800553502       -8.8802171416269005E-007 F
     orb,it,eci,eold,eci-eold=                    3                   17 -0.79409644111625965      -0.79407921602724918       -1.7225089010475259E-005 F
     orb,it,eci,eold,eci-eold=                    3                   18 -0.79410208935214066      -0.79409644111625965       -5.6482358810061584E-006 F
     orb,it,eci,eold,eci-eold=                    3                   19 -0.79410271311890246      -0.79410208935214066       -6.2376676179809465E-007 F
     orb,it,eci,eold,eci-eold=                    3                   20 -0.79411622386741776      -0.79410271311890246       -1.3510748515299653E-005 F
     orb,it,eci,eold,eci-eold=                    3                   21 -0.79412151478277893      -0.79411622386741776       -5.2909153611668813E-006 F
     orb,it,eci,eold,eci-eold=                    3                   22 -0.79412265253460590      -0.79412151478277893       -1.1377518269739539E-006 F
     orb,it,eci,eold,eci-eold=                    3                   23 -0.79413360849744641      -0.79412265253460590       -1.0955962840508704E-005 F
     orb,it,eci,eold,eci-eold=                    3                   24 -0.79413742888406391      -0.79413360849744641       -3.8203866175035017E-006 F
     orb,it,eci,eold,eci-eold=                    3                   25 -0.79413858444132923      -0.79413742888406391       -1.1555572653199064E-006 F
     orb,it,eci,eold,eci-eold=                    3                   26 -0.79414787146074539      -0.79413858444132923       -9.2870194161598363E-006 F
     orb,it,eci,eold,eci-eold=                    3                   27 -0.79414965531219672      -0.79414787146074539       -1.7838514513313086E-006 F
     orb,it,eci,eold,eci-eold=                    3                   28 -0.79415034875576063      -0.79414965531219672       -6.9344356390388384E-007 F
     orb,it,eci,eold,eci-eold=                    3                   29 -0.79415830640070184      -0.79415034875576063       -7.9576449412144257E-006 F
     orb,it,eci,eold,eci-eold=                    3                   30 -0.79416233118708468      -0.79415830640070184       -4.0247863828390962E-006 F
     orb,it,eci,eold,eci-eold=                    3                   31 -0.79416524039330871      -0.79416233118708468       -2.9092062240332339E-006 F
     orb,it,eci,eold,eci-eold=                    3                   32 -0.79416680461689482      -0.79416524039330871       -1.5642235861035303E-006 F
     orb,it,eci,eold,eci-eold=                    3                   33 -0.79417047103557659      -0.79416680461689482       -3.6664186817692013E-006 F
     orb,it,eci,eold,eci-eold=                    3                   34 -0.79417047733828983      -0.79417047103557659       -6.3027132402027064E-009 F
     orb,it,eci,eold,eci-eold=                    3                   35 -0.79417053003893245      -0.79417047733828983       -5.2700642627634409E-008 F
     orb,it,eci,eold,eci-eold=                    3                   36 -0.79417324787940324      -0.79417053003893245       -2.7178404707894899E-006 F
     orb,it,eci,eold,eci-eold=                    3                   37 -0.79417422116647218      -0.79417324787940324       -9.7328706893939909E-007 F
     orb,it,eci,eold,eci-eold=                    3                   38 -0.79417430052442306      -0.79417422116647218       -7.9357950877323447E-008 F
     orb,it,eci,eold,eci-eold=                    3                   39 -0.79417630965754027      -0.79417430052442306       -2.0091331172089610E-006 F
     orb,it,eci,eold,eci-eold=                    3                   40 -0.79417725306001286      -0.79417630965754027       -9.4340247258628551E-007 F
     orb,it,eci,eold,eci-eold=                    3                   41 -0.79417751744424359      -0.79417725306001286       -2.6438423073038564E-007 F
     orb,it,eci,eold,eci-eold=                    3                   42 -0.79417919889873212      -0.79417751744424359       -1.6814544885335181E-006 F
     orb,it,eci,eold,eci-eold=                    3                   43 -0.79417973571498413      -0.79417919889873212       -5.3681625200585614E-007 F
     orb,it,eci,eold,eci-eold=                    3                   44 -0.79417987355403041      -0.79417973571498413       -1.3783904628805743E-007 F
     orb,it,eci,eold,eci-eold=                    3                   45 -0.79418118773175084      -0.79417987355403041       -1.3141777204239702E-006 F
     orb,it,eci,eold,eci-eold=                    3                   46 -0.79418158764582758      -0.79418118773175084       -3.9991407674300206E-007 F
     orb,it,eci,eold,eci-eold=                    3                   47 -0.79418164623836929      -0.79418158764582758       -5.8592541707369605E-008 F
     orb,it,eci,eold,eci-eold=                    3                   48 -0.79418263431600966      -0.79418164623836929       -9.8807764037367463E-007 F
     orb,it,eci,eold,eci-eold=                    3                   49 -0.79418304029874554      -0.79418263431600966       -4.0598273587377776E-007 F
     orb,it,eci,eold,eci-eold=                    3                   50 -0.79418313440664390      -0.79418304029874554       -9.4107898362949527E-008 F
     orb,it,eci,eold,eci-eold=                    3                   51 -0.79418387156422232      -0.79418313440664390       -7.3715757842318652E-007 F
     orb,it,eci,eold,eci-eold=                    3                   52 -0.79418411186751703      -0.79418387156422232       -2.4030329470736689E-007 F
     orb,it,eci,eold,eci-eold=                    3                   53 -0.79418417529742558      -0.79418411186751703       -6.3429908547796288E-008 F
     orb,it,eci,eold,eci-eold=                    3                   54 -0.79418470527539631      -0.79418417529742558       -5.2997797073128794E-007 F
     orb,it,eci,eold,eci-eold=                    3                   55 -0.79418485668573791      -0.79418470527539631       -1.5141034159782407E-007 F
     orb,it,eci,eold,eci-eold=                    3                   56 -0.79418489501560563      -0.79418485668573791       -3.8329867724229416E-008 F
     orb,it,eci,eold,eci-eold=                    3                   57 -0.79418529202638566      -0.79418489501560563       -3.9701078002885026E-007 F
     orb,it,eci,eold,eci-eold=                    3                   58 -0.79418547100834502      -0.79418529202638566       -1.7898195936449923E-007 F
     orb,it,eci,eold,eci-eold=                    3                   59 -0.79418554276653797      -0.79418547100834502       -7.1758192943249810E-008 F
     orb,it,eci,eold,eci-eold=                    3                   60 -0.79418587773554061      -0.79418554276653797       -3.3496900264662344E-007 F
     orb,it,eci,eold,eci-eold=                    3                   61 -0.79418600627488478      -0.79418587773554061       -1.2853934416856561E-007 F
     orb,it,eci,eold,eci-eold=                    3                   62 -0.79418606449637441      -0.79418600627488478       -5.8221489629417533E-008 F
     orb,it,eci,eold,eci-eold=                    3                   63 -0.79418633121533899      -0.79418606449637441       -2.6671896458108080E-007 F
     orb,it,eci,eold,eci-eold=                    3                   64 -0.79418638649377682      -0.79418633121533899       -5.5278437827155358E-008 F
     orb,it,eci,eold,eci-eold=                    3                   65 -0.79418639989112050      -0.79418638649377682       -1.3397343678889229E-008 F
     orb,it,eci,eold,eci-eold=                    3                   66 -0.79418659750808029      -0.79418639989112050       -1.9761695979614302E-007 F
     orb,it,eci,eold,eci-eold=                    3                   67 -0.79418666459877052      -0.79418659750808029       -6.7090690225590777E-008 F
     orb,it,eci,eold,eci-eold=                    3                   68 -0.79418667494973405      -0.79418666459877052       -1.0350963530747492E-008 F
     orb,it,eci,eold,eci-eold=                    3                   69 -0.79418682677215646      -0.79418667494973405       -1.5182242241174038E-007 F
     orb,it,eci,eold,eci-eold=                    3                   70 -0.79418688806380933      -0.79418682677215646       -6.1291652864170487E-008 F
     orb,it,eci,eold,eci-eold=                    3                   71 -0.79418690165213435      -0.79418688806380933       -1.3588325020741365E-008 F
     orb,it,eci,eold,eci-eold=                    3                   72 -0.79418702758463589      -0.79418690165213435       -1.2593250153791757E-007 F
     orb,it,eci,eold,eci-eold=                    3                   73 -0.79418707361591701      -0.79418702758463589       -4.6031281120129108E-008 F
     orb,it,eci,eold,eci-eold=                    3                   74 -0.79418708119060832      -0.79418707361591701       -7.5746913186236497E-009 F
     orb,it,eci,eold,eci-eold=                    3                   75 -0.79418718041998282      -0.79418708119060832       -9.9229374495024558E-008 F
     orb,it,eci,eold,eci-eold=                    3                   76 -0.79418722467149994      -0.79418718041998282       -4.4251517117288586E-008 F
     orb,it,eci,eold,eci-eold=                    3                   77 -0.79418723483581255      -0.79418722467149994       -1.0164312613802906E-008 F
     orb,it,eci,eold,eci-eold=                    3                   78 -0.79418731530139575      -0.79418723483581255       -8.0465583196520640E-008 F
     orb,it,eci,eold,eci-eold=                    3                   79 -0.79418734827420789      -0.79418731530139575       -3.2972812147313846E-008 F
     orb,it,eci,eold,eci-eold=                    3                   80 -0.79418735697364196      -0.79418734827420789       -8.6994340620094590E-009 F
     orb,it,eci,eold,eci-eold=                    3                   81 -0.79418742094107386      -0.79418735697364196       -6.3967431906952754E-008 F
     orb,it,eci,eold,eci-eold=                    3                   82 -0.79418744421512133      -0.79418742094107386       -2.3274047467047865E-008 F
     orb,it,eci,eold,eci-eold=                    3                   83 -0.79418744979379141      -0.79418744421512133       -5.5786700814408618E-009 F
     orb,it,eci,eold,eci-eold=                    3                   84 -0.79418749782420450      -0.79418744979379141       -4.8030413091204593E-008 F
     orb,it,eci,eold,eci-eold=                    3                   85 -0.79418751533303111      -0.79418749782420450       -1.7508826610779238E-008 F
     orb,it,eci,eold,eci-eold=                    3                   86 -0.79418752007283910      -0.79418751533303111       -4.7398079905391910E-009 F
     orb,it,eci,eold,eci-eold=                    3                   87 -0.79418755728298351      -0.79418752007283910       -3.7210144410160240E-008 F
     orb,it,eci,eold,eci-eold=                    3                   88 -0.79418756965639448      -0.79418755728298351       -1.2373410962496223E-008 F
     orb,it,eci,eold,eci-eold=                    3                   89 -0.79418757276776875      -0.79418756965639448       -3.1113742693378299E-009 F
     orb,it,eci,eold,eci-eold=                    3                   90 -0.79418760175225278      -0.79418757276776875       -2.8984484035099456E-008 F
     orb,it,eci,eold,eci-eold=                    3                   91 -0.79418761110860425      -0.79418760175225278       -9.3563514713679297E-009 F
     orb,it,eci,eold,eci-eold=                    3                   92 -0.79418761254731740      -0.79418761110860425       -1.4387131486159888E-009 F
     orb,it,eci,eold,eci-eold=                    3                   93 -0.79418763385858315      -0.79418761254731740       -2.1311265752110842E-008 F
     orb,it,eci,eold,eci-eold=                    3                   94 -0.79418764353151627      -0.79418763385858315       -9.6729331211520275E-009 F
     orb,it,eci,eold,eci-eold=                    3                   95 -0.79418764673964060      -0.79418764353151627       -3.2081243217518818E-009 F
     orb,it,eci,eold,eci-eold=                    3                   96 -0.79418766607941205      -0.79418764673964060       -1.9339771450965770E-008 F
     orb,it,eci,eold,eci-eold=                    3                   97 -0.79418767362621967      -0.79418766607941205       -7.5468076232709791E-009 F
     orb,it,eci,eold,eci-eold=                    3                   98 -0.79418767569482052      -0.79418767362621967       -2.0686008461723304E-009 F
     orb,it,eci,eold,eci-eold=                    3                   99 -0.79418769068686501      -0.79418767569482052       -1.4992044494732681E-008 F
     orb,it,eci,eold,eci-eold=                    3                  100 -0.79418769520589938      -0.79418769068686501       -4.5190343689327506E-009 F
     orb,it,eci,eold,eci-eold=                    3                  101 -0.79418769580607929      -0.79418769520589938       -6.0017990577421187E-010 F
     orbital   3 current e=  0.463338E+00 error=0.809E-01 (eci= -0.794187696E+00 error=0.600E-09) iterations 101(   0 preconditioned, Ep,Sp= 20.0  200.0)
     orb,it,eci,eold,eci-eold=                    3                    1 -0.79418772970038343      -0.79418769580607929       -3.3894304141135478E-008 F
     orb,it,eci,eold,eci-eold=                    3                    2 -0.79418773840798040      -0.79418772970038343       -8.7075969767980155E-009 F
     orb,it,eci,eold,eci-eold=                    3                    3 -0.79418774394795610      -0.79418773840798040       -5.5399757004082062E-009 F
     orb,it,eci,eold,eci-eold=                    3                    4 -0.79418775324293089      -0.79418774394795610       -9.2949747898529722E-009 F
     orb,it,eci,eold,eci-eold=                    3                    5 -0.79418775758094795      -0.79418775324293089       -4.3380170566820198E-009 F
     orb,it,eci,eold,eci-eold=                    3                    6 -0.79418776002171376      -0.79418775758094795       -2.4407658116842867E-009 F
     orb,it,eci,eold,eci-eold=                    3                    7 -0.79418776123816825      -0.79418776002171376       -1.2164544926918097E-009 F
     orb,it,eci,eold,eci-eold=                    3                    8 -0.79418776194334417      -0.79418776123816825       -7.0517591765906218E-010 F
     orbital   3 current e=  0.463668E+00 error=0.330E-03 (eci= -0.794187762E+00 error=0.705E-09) iterations   8(   0 preconditioned, Ep,Sp= 20.0  200.0)
     orb,it,eci,eold,eci-eold=                    3                    1 -0.79418776636550992      -0.79418776194334417       -4.4221657446996687E-009 F
     orb,it,eci,eold,eci-eold=                    3                    2 -0.79418776785773437      -0.79418776636550992       -1.4922244551129893E-009 F
     orb,it,eci,eold,eci-eold=                    3                    3 -0.79418777005179608      -0.79418776785773437       -2.1940617100923987E-009 F
     orb,it,eci,eold,eci-eold=                    3                    4 -0.79418777017398912      -0.79418777005179608       -1.2219303346938659E-010 F
     orbital   3 current e=  0.463709E+00 error=0.409E-04 (eci= -0.794187770E+00 error=0.122E-09) iterations   4(   0 preconditioned, Ep,Sp= 20.0  200.0)
     orb,it,eci,eold,eci-eold=                    4                    1 -0.79374575600399511      -0.79366820895298651       -7.7547051008597379E-005 F
     orb,it,eci,eold,eci-eold=                    4                    2 -0.79375360212963542      -0.79374575600399511       -7.8461256403095092E-006 F
     orb,it,eci,eold,eci-eold=                    4                    3 -0.79379319948355920      -0.79375360212963542       -3.9597353923781498E-005 F
     orb,it,eci,eold,eci-eold=                    4                    4 -0.79379363439549422      -0.79379319948355920       -4.3491193502109837E-007 F
     orb,it,eci,eold,eci-eold=                    4                    5 -0.79379880676713011      -0.79379363439549422       -5.1723716358864635E-006 F
     orb,it,eci,eold,eci-eold=                    4                    6 -0.79382475392242935      -0.79379880676713011       -2.5947155299244073E-005 F
     orb,it,eci,eold,eci-eold=                    4                    7 -0.79382611117263613      -0.79382475392242935       -1.3572502067793479E-006 F
     orb,it,eci,eold,eci-eold=                    4                    8 -0.79383232804425441      -0.79382611117263613       -6.2168716182808836E-006 F
     orb,it,eci,eold,eci-eold=                    4                    9 -0.79385278531203818      -0.79383232804425441       -2.0457267783768884E-005 F
     orb,it,eci,eold,eci-eold=                    4                   10 -0.79385988134056873      -0.79385278531203818       -7.0960285305510240E-006 F
     orb,it,eci,eold,eci-eold=                    4                   11 -0.79386747600039664      -0.79385988134056873       -7.5946598279141853E-006 F
     orb,it,eci,eold,eci-eold=                    4                   12 -0.79388438963822250      -0.79386747600039664       -1.6913637825854977E-005 F
     orb,it,eci,eold,eci-eold=                    4                   13 -0.79388837231741238      -0.79388438963822250       -3.9826791898844860E-006 F
     orb,it,eci,eold,eci-eold=                    4                   14 -0.79389276206013204      -0.79388837231741238       -4.3897427196570860E-006 F
     orb,it,eci,eold,eci-eold=                    4                   15 -0.79390600660091970      -0.79389276206013204       -1.3244540787660242E-005 F
     orb,it,eci,eold,eci-eold=                    4                   16 -0.79390908373530178      -0.79390600660091970       -3.0771343820790165E-006 F
     orb,it,eci,eold,eci-eold=                    4                   17 -0.79391165648248585      -0.79390908373530178       -2.5727471840708560E-006 F
     orb,it,eci,eold,eci-eold=                    4                   18 -0.79392121526655113      -0.79391165648248585       -9.5587840652777700E-006 F
     orb,it,eci,eold,eci-eold=                    4                   19 -0.79392349015083674      -0.79392121526655113       -2.2748842856135099E-006 F
     orb,it,eci,eold,eci-eold=                    4                   20 -0.79392498283590862      -0.79392349015083674       -1.4926850718799400E-006 F
     orb,it,eci,eold,eci-eold=                    4                   21 -0.79393108883707397      -0.79392498283590862       -6.1060011653513158E-006 F
     orb,it,eci,eold,eci-eold=                    4                   22 -0.79393253806920216      -0.79393108883707397       -1.4492321281922571E-006 F
     orb,it,eci,eold,eci-eold=                    4                   23 -0.79393349665150037      -0.79393253806920216       -9.5858229820500185E-007 F
     orb,it,eci,eold,eci-eold=                    4                   24 -0.79393732092952707      -0.79393349665150037       -3.8242780266983800E-006 F
     orb,it,eci,eold,eci-eold=                    4                   25 -0.79393854119374241      -0.79393732092952707       -1.2202642153402721E-006 F
     orb,it,eci,eold,eci-eold=                    4                   26 -0.79393944604053990      -0.79393854119374241       -9.0484679748925601E-007 F
     orb,it,eci,eold,eci-eold=                    4                   27 -0.79394214204492242      -0.79393944604053990       -2.6960043825186020E-006 F
     orb,it,eci,eold,eci-eold=                    4                   28 -0.79394314069226057      -0.79394214204492242       -9.9864733815735462E-007 F
     orb,it,eci,eold,eci-eold=                    4                   29 -0.79394394271179347      -0.79394314069226057       -8.0201953289726902E-007 F
     orb,it,eci,eold,eci-eold=                    4                   30 -0.79394594971065513      -0.79394394271179347       -2.0069988616588930E-006 F
     orb,it,eci,eold,eci-eold=                    4                   31 -0.79394664602874188      -0.79394594971065513       -6.9631808674586182E-007 F
     orb,it,eci,eold,eci-eold=                    4                   32 -0.79394724597642274      -0.79394664602874188       -5.9994768086824024E-007 F
     orb,it,eci,eold,eci-eold=                    4                   33 -0.79394873404746791      -0.79394724597642274       -1.4880710451636858E-006 F
     orb,it,eci,eold,eci-eold=                    4                   34 -0.79394917323035208      -0.79394873404746791       -4.3918288417099660E-007 F
     orb,it,eci,eold,eci-eold=                    4                   35 -0.79394957327021842      -0.79394917323035208       -4.0003986634395972E-007 F
     orb,it,eci,eold,eci-eold=                    4                   36 -0.79395061912121634      -0.79394957327021842       -1.0458509979160979E-006 F
     orb,it,eci,eold,eci-eold=                    4                   37 -0.79395088062854613      -0.79395061912121634       -2.6150732979068891E-007 F
     orb,it,eci,eold,eci-eold=                    4                   38 -0.79395114408016065      -0.79395088062854613       -2.6345161452390187E-007 F
     orb,it,eci,eold,eci-eold=                    4                   39 -0.79395188336104938      -0.79395114408016065       -7.3928088872854403E-007 F
     orb,it,eci,eold,eci-eold=                    4                   40 -0.79395201061075704      -0.79395188336104938       -1.2724970765987109E-007 F
     orb,it,eci,eold,eci-eold=                    4                   41 -0.79395215811960884      -0.79395201061075704       -1.4750885179992679E-007 F
     orb,it,eci,eold,eci-eold=                    4                   42 -0.79395272673769579      -0.79395215811960884       -5.6861808694907978E-007 F
     orb,it,eci,eold,eci-eold=                    4                   43 -0.79395281308101839      -0.79395272673769579       -8.6343322602822070E-008 F
     orb,it,eci,eold,eci-eold=                    4                   44 -0.79395286378574637      -0.79395281308101839       -5.0704727971861985E-008 F
     orb,it,eci,eold,eci-eold=                    4                   45 -0.79395329175533969      -0.79395286378574637       -4.2796959331958817E-007 F
     orb,it,eci,eold,eci-eold=                    4                   46 -0.79395343841079113      -0.79395329175533969       -1.4665545144953995E-007 F
     orb,it,eci,eold,eci-eold=                    4                   47 -0.79395347842795672      -0.79395343841079113       -4.0017165581218705E-008 F
     orb,it,eci,eold,eci-eold=                    4                   48 -0.79395377961808156      -0.79395347842795672       -3.0119012484064456E-007 F
     orb,it,eci,eold,eci-eold=                    4                   49 -0.79395392956104549      -0.79395377961808156       -1.4994296393400219E-007 F
     orb,it,eci,eold,eci-eold=                    4                   50 -0.79395399498756147      -0.79395392956104549       -6.5426515982736078E-008 F
     orb,it,eci,eold,eci-eold=                    4                   51 -0.79395421281986822      -0.79395399498756147       -2.1783230674810028E-007 F
     orb,it,eci,eold,eci-eold=                    4                   52 -0.79395428811806035      -0.79395421281986822       -7.5298192125927699E-008 F
     orb,it,eci,eold,eci-eold=                    4                   53 -0.79395434255241593      -0.79395428811806035       -5.4434355578614202E-008 F
     orb,it,eci,eold,eci-eold=                    4                   54 -0.79395452644016740      -0.79395434255241593       -1.8388775147037961E-007 F
     orb,it,eci,eold,eci-eold=                    4                   55 -0.79395456566606848      -0.79395452644016740       -3.9225901082851067E-008 F
     orb,it,eci,eold,eci-eold=                    4                   56 -0.79395458725154178      -0.79395456566606848       -2.1585473297669466E-008 F
     orb,it,eci,eold,eci-eold=                    4                   57 -0.79395472927689847      -0.79395458725154178       -1.4202535669749494E-007 F
     orb,it,eci,eold,eci-eold=                    4                   58 -0.79395478323089519      -0.79395472927689847       -5.3953996714817265E-008 F
     orb,it,eci,eold,eci-eold=                    4                   59 -0.79395480213494563      -0.79395478323089519       -1.8904050436141517E-008 F
     orb,it,eci,eold,eci-eold=                    4                   60 -0.79395490799892787      -0.79395480213494563       -1.0586398224710081E-007 F
     orb,it,eci,eold,eci-eold=                    4                   61 -0.79395493633682379      -0.79395490799892787       -2.8337895918717493E-008 F
     orb,it,eci,eold,eci-eold=                    4                   62 -0.79395494595907312      -0.79395493633682379       -9.6222493306541423E-009 F
     orb,it,eci,eold,eci-eold=                    4                   63 -0.79395503996785033      -0.79395494595907312       -9.4008777207221783E-008 F
     orb,it,eci,eold,eci-eold=                    4                   64 -0.79395507311947811      -0.79395503996785033       -3.3151627776284442E-008 F
     orb,it,eci,eold,eci-eold=                    4                   65 -0.79395507447742664      -0.79395507311947811       -1.3579485313996997E-009 F
     orb,it,eci,eold,eci-eold=                    4                   66 -0.79395513889729463      -0.79395507447742664       -6.4419867995546554E-008 F
     orb,it,eci,eold,eci-eold=                    4                   67 -0.79395518288899036      -0.79395513889729463       -4.3991695730660751E-008 F
     orb,it,eci,eold,eci-eold=                    4                   68 -0.79395519886684396      -0.79395518288899036       -1.5977853595749991E-008 F
     orb,it,eci,eold,eci-eold=                    4                   69 -0.79395524749458124      -0.79395519886684396       -4.8627737281314865E-008 F
     orb,it,eci,eold,eci-eold=                    4                   70 -0.79395525598064776      -0.79395524749458124       -8.4860665161556881E-009 F
     orb,it,eci,eold,eci-eold=                    4                   71 -0.79395526238874981      -0.79395525598064776       -6.4081020489936691E-009 F
[...]
    8    5    8    8        0.0000044137
    8    5    9    8       -0.0000006589
    8    5   10    8       -0.0000000008
    8    5   11    8        0.0000002525
    8    5    9    9        0.0000037829
    8    5   10    9       -0.0000000002
    8    5   11    9        0.0000000648
    8    5   10   10        0.0000091177
    8    5   11   10        0.0396996669
    8    5   11   11       -0.0000051797
    9    5    9    5        0.1377403860
    9    5   10    5       -0.0000000549
    9    5   11    5        0.0000000002
    9    5    6    6        0.0000102085
    9    5    7    6        0.0000008810
    9    5    8    6       -0.1124748833
    9    5    9    6       -0.0647015022
    9    5   10    6       -0.0000006044
    9    5   11    6        0.0000000054
    9    5    7    7        0.0000571717
    9    5    8    7       -0.0000000162
    9    5    9    7       -0.0000000083
    9    5   10    7       -0.0000316609
    9    5   11    7       -0.0449075421
    9    5    8    8       -0.0000073116
    9    5    9    8        0.0000003411
    9    5   10    8        0.0000000014
    9    5   11    8       -0.0000004444
    9    5    9    9       -0.0000085513
    9    5   10    9        0.0000000007
    9    5   11    9       -0.0000001966
    9    5   10   10       -0.0000176363
    9    5   11   10       -0.0767710429
    9    5   11   11        0.0000100104
   10    5   10    5        0.0144520274
   10    5   11    5       -0.0000000641
   10    5    6    6       -0.0000000000
   10    5    7    6        0.0000000000
   10    5    8    6        0.0000000776
   10    5    9    6       -0.0000000264
   10    5   10    6        0.0000000000
   10    5   11    6        0.0000000000
   10    5    7    7       -0.0000000000
   10    5    8    7        0.0000015677
   10    5    9    7       -0.0000030324
   10    5   10    7        0.0000000000
   10    5   11    7        0.0000000128
   10    5    8    8       -0.0000000002
   10    5    9    8        0.0000000001
   10    5   10    8        0.0000009980
   10    5   11    8        0.0035937212
   10    5    9    9        0.0000000001
   10    5   10    9       -0.0000019295
   10    5   11    9       -0.0069502297
   10    5   10   10       -0.0000000000
   10    5   11   10        0.0000000379
   10    5   11   11       -0.0000000001
   11    5   11    5        0.0120081226
   11    5    6    6        0.0000000429
   11    5    7    6       -0.0000000000
   11    5    8    6       -0.0000000005
   11    5    9    6        0.0000000003
   11    5   10    6        0.0000000000
   11    5   11    6        0.0000000000
   11    5    7    7        0.0000000468
   11    5    8    7        0.0019751926
   11    5    9    7       -0.0038188746
   11    5   10    7       -0.0000000022
   11    5   11    7       -0.0000000002
   11    5    8    8        0.0000000764
   11    5    9    8       -0.0000000224
   11    5   10    8        0.0030385824
   11    5   11    8       -0.0000003665
   11    5    9    9        0.0000000240
   11    5   10    9       -0.0058718989
   11    5   11    9        0.0000007085
   11    5   10   10        0.0000000536
   11    5   11   10       -0.0000000002
   11    5   11   11        0.0000000577
    6    6    6    6        0.2959898786
    6    6    7    6        0.0000000008
    6    6    8    6       -0.0000119437
    6    6    9    6       -0.0000061766
    6    6   10    6       -0.0000000010
    6    6   11    6        0.0000005603
    6    6    7    7        0.2716907879
    6    6    8    7       -0.0000001633
    6    6    9    7       -0.0000000829
    6    6   10    7        0.0051226448
    6    6   11    7       -0.0000004120
    6    6    8    8        0.2996321217
    6    6    9    8        0.0105911901
    6    6   10    8        0.0000000947
    6    6   11    8       -0.0000000009
    6    6    9    9        0.2849965998
    6    6   10    9        0.0000000496
    6    6   11    9       -0.0000000005
    6    6   10   10        0.2910563420
    6    6   11   10       -0.0000046162
    6    6   11   11        0.2920367773
    7    6    7    6        0.0128541032
    7    6    8    6       -0.0000009569
    7    6    9    6       -0.0000004947
    7    6   10    6        0.0010303367
    7    6   11    6       -0.0000006324
    7    6    7    7        0.0000000006
    7    6    8    7       -0.0000054039
    7    6    9    7       -0.0000027962
    7    6   10    7        0.0000000000
    7    6   11    7       -0.0000003764
    7    6    8    8        0.0000000032
    7    6    9    8        0.0000000015
    7    6   10    8        0.0000027855
    7    6   11    8        0.0046226149
    7    6    9    9        0.0000000010
    7    6   10    9        0.0000014418
    7    6   11    9        0.0023928917
    7    6   10   10        0.0000000006
    7    6   11   10       -0.0000006357
    7    6   11   11       -0.0000000006
    8    6    8    6        0.1376765478
    8    6    9    6        0.0646924114
    8    6   10    6        0.0000006561
    8    6   11    6       -0.0000000058
    8    6    7    7       -0.0000571545
    8    6    8    7        0.0000000178
    8    6    9    7        0.0000000084
    8    6   10    7        0.0000316509
    8    6   11    7        0.0448889669
    8    6    8    8        0.0000085352
    8    6    9    8        0.0000003364
    8    6   10    8       -0.0000000017
    8    6   11    8        0.0000005213
    8    6    9    9        0.0000073203
    8    6   10    9       -0.0000000007
    8    6   11    9        0.0000002043
    8    6   10   10        0.0000176315
    8    6   11   10        0.0767454411
    8    6   11   11       -0.0000100085
    9    6    9    6        0.0464052573
    9    6   10    6        0.0000003395
    9    6   11    6       -0.0000000030
    9    6    7    7       -0.0000295631
    9    6    8    7        0.0000000092
    9    6    9    7        0.0000000042
    9    6   10    7        0.0000163728
    9    6   11    7        0.0232232157
    9    6    8    8        0.0000037814
    9    6    9    8        0.0000006576
    9    6   10    8       -0.0000000008
    9    6   11    8        0.0000002473
    9    6    9    9        0.0000044267
    9    6   10    9       -0.0000000005
    9    6   11    9        0.0000001416
    9    6   10   10        0.0000091229
    9    6   11   10        0.0397003466
    9    6   11   11       -0.0000051743
   10    6   10    6        0.0144480196
   10    6   11    6       -0.0000000636
   10    6    7    7       -0.0000000006
   10    6    8    7        0.0000030307
   10    6    9    7        0.0000015683
   10    6   10    7        0.0000000004
   10    6   11    7        0.0000001544
   10    6    8    8       -0.0000000008
   10    6    9    8       -0.0000000001
   10    6   10    8        0.0000019298
   10    6   11    8        0.0069477293
   10    6    9    9       -0.0000000006
   10    6   10    9        0.0000009981
   10    6   11    9        0.0035947220
   10    6   10   10       -0.0000000005
   10    6   11   10        0.0000004546
   10    6   11   11       -0.0000000021
   11    6   11    6        0.0120043609
   11    6    7    7        0.0000005542
   11    6    8    7        0.0038187635
   11    6    9    7        0.0019751015
   11    6   10    7       -0.0000000255
   11    6   11    7       -0.0000000035
   11    6    8    8        0.0000006178
   11    6    9    8        0.0000000279
   11    6   10    8        0.0058733246
   11    6   11    8       -0.0000007080
   11    6    9    9        0.0000005716
   11    6   10    9        0.0030363969
   11    6   11    9       -0.0000003661
   11    6   10   10        0.0000006364
   11    6   11   10       -0.0000000048
   11    6   11   11        0.0000006837
    7    7    7    7        0.3012034612
    7    7    8    7       -0.0000000127
    7    7    9    7       -0.0000000053
    7    7   10    7        0.0044263368
    7    7   11    7       -0.0000224874
    7    7    8    8        0.2820070399
    7    7    9    8        0.0000000000
    7    7   10    8       -0.0000000030
    7    7   11    8        0.0000000011
    7    7    9    9        0.2820554017
    7    7   10    9       -0.0000000013
    7    7   11    9        0.0000000005
    7    7   10   10        0.2913027211
    7    7   11   10       -0.0000351911
    7    7   11   11        0.3038150706
    8    7    8    7        0.0141274065
    8    7    9    7        0.0000000000
    8    7   10    7        0.0000000004
    8    7   11    7        0.0000000070
    8    7    8    8       -0.0000000171
    8    7    9    8       -0.0000000008
    8    7   10    8        0.0008674704
    8    7   11    8        0.0000001103
    8    7    9    9       -0.0000000141
    8    7   10    9        0.0000000000
    8    7   11    9       -0.0000000001
    8    7   10   10       -0.0000000146
    8    7   11   10        0.0000000110
    8    7   11   11        0.0000000473
    9    7    9    7        0.0141298334
    9    7   10    7        0.0000000002
    9    7   11    7        0.0000000032
    9    7    8    8       -0.0000000061
    9    7    9    8       -0.0000000015
    9    7   10    8       -0.0000000000
    9    7   11    8       -0.0000000001
    9    7    9    9       -0.0000000068
    9    7   10    9        0.0008535689
    9    7   11    9        0.0000001082
    9    7   10   10       -0.0000000060
    9    7   11   10        0.0000000051
    9    7   11   11        0.0000000195
   10    7   10    7        0.0133208254
   10    7   11    7        0.0000102926
   10    7    8    8        0.0046027310
   10    7    9    8       -0.0000000000
   10    7   10    8       -0.0000000009
   10    7   11    8        0.0000000011
   10    7    9    9        0.0045943425
   10    7   10    9       -0.0000000004
   10    7   11    9        0.0000000005
   10    7   10   10        0.0042047375
   10    7   11   10        0.0000239824
   10    7   11   11        0.0167560964
   11    7   11    7        0.0404673106
   11    7    8    8        0.0000062023
   11    7    9    8       -0.0000000008
   11    7   10    8        0.0000000003
   11    7   11    8        0.0000001932
   11    7    9    9        0.0000062019
   11    7   10    9        0.0000000001
   11    7   11    9        0.0000000801
   11    7   10   10        0.0000136718
   11    7   11   10        0.0395951415
   11    7   11   11       -0.0000017071
    8    8    8    8        0.3159033682
    8    8    9    8       -0.0000000303
    8    8   10    8       -0.0000000065
    8    8   11    8        0.0000000002
    8    8    9    9        0.2887473231
    8    8   10    9       -0.0000000022
    8    8   11    9        0.0000000001
    8    8   10   10        0.2992947594
    8    8   11   10        0.0000076717
    8    8   11   11        0.3006821221
    9    8    9    8        0.0142155259
    9    8   10    8       -0.0000000004
    9    8   11    8        0.0000000000
    9    8    9    9        0.0000000302
    9    8   10    9       -0.0000000007
    9    8   11    9        0.0000000000
    9    8   10   10        0.0000000000
    9    8   11   10       -0.0000000014
    9    8   11   11        0.0000000000
   10    8   10    8        0.0153923382
   10    8   11    8        0.0000009977
   10    8    9    9       -0.0000000051
   10    8   10    9       -0.0000000000
   10    8   11    9       -0.0000000001
   10    8   10   10       -0.0000000061
   10    8   11   10       -0.0000000010
   10    8   11   11        0.0000001211
   11    8   11    8        0.0129682288
   11    8    9    9        0.0000000002
   11    8   10    9       -0.0000000001
   11    8   11    9        0.0000000000
   11    8   10   10        0.0000000001
   11    8   11   10        0.0000003871
   11    8   11   11        0.0000000001
    9    9    9    9        0.3159869466
    9    9   10    9       -0.0000000027
    9    9   11    9        0.0000000001
    9    9   10   10        0.2993308679
    9    9   11   10        0.0000076861
    9    9   11   11        0.3007184834
   10    9   10    9        0.0153904098
   10    9   11    9        0.0000010008
   10    9   10   10       -0.0000000026
   10    9   11   10       -0.0000000005
   10    9   11   11        0.0000000501
   11    9   11    9        0.0129741292
   11    9   10   10        0.0000000000
   11    9   11   10        0.0000001604
   11    9   11   11        0.0000000001
   10   10   10   10        0.3393089353
   10   10   11   10        0.0000158424
   10   10   11   11        0.3315849390
   11   10   11   10        0.0759339095
   11   10   11   11       -0.0000061784
   11   11   11   11        0.3532351641
 end_two_electron_integrals


 output epsi filename:./pspw_hf_H2.emovecs

 Total PSPW energy     :  -0.7921382280E+00


=== Spin Contamination ===

 <Sexact^2> =    0.0000000000000000     
 <S^2>      =    0.0000000000000000     



== Center of Charge ==

spin up     (    0.0000,    0.0000,    0.0001 )
spin down   (    0.0000,    0.0000,    0.0001 )
     total  (    0.0000,    0.0000,    0.0001 )
ionic       (    0.0000,    0.0000,    0.0000 )


== Molecular Dipole wrt Center of Mass ==

mu   =  (   -0.0000,   -0.0000,   -0.0001 ) au
|mu| =     0.0001 au,       0.0003 Debye

 output psi filename:./pspw_hf_H2.movecs

 Writing Crystallographic Information File:./H2.cif
   - cell not shifted (nwpw:cif_shift_cell .false.)


== Timing ==

cputime in seconds
  prologue    :   0.683097E+01
  main loop   :   0.109437E+04
  epilogue    :   0.310002E-01
  total       :   0.110123E+04
  cputime/step:   0.724748E+01       (     151 evalulations,      63 linesearches)


Time spent doing                        total          step       percent
  total time                 :   0.110124E+04  0.729299E+01       100.0 %
  i/o time                   :   0.498421E+00  0.330080E-02         0.0 %
  FFTs                       :   0.829865E+03  0.549579E+01        75.4 %
  dot products               :   0.108877E+02  0.721037E-01         1.0 %
  geodesic                   :   0.720876E-01  0.477401E-03         0.0 %
  ffm_dgemm                  :   0.117786E-01  0.780043E-04         0.0 %
  fmf_dgemm                  :   0.193654E-01  0.128248E-03         0.0 %
  mmm_dgemm                  :   0.303469E-02  0.200973E-04         0.0 %
  m_diagonalize              :   0.129723E-02  0.859095E-05         0.0 %
  local pseudopotentials     :   0.141802E+02  0.939084E-01         1.3 %
  non-local pseudopotentials :   0.939659E+01  0.622291E-01         0.9 %
  structure factors          :   0.217266E+01  0.143885E-01         0.2 %
  phase factors              :   0.875700E-05  0.579934E-07         0.0 %
  masking and packing        :   0.113313E+02  0.750418E-01         1.0 %
  queue fft                  :   0.136619E+02  0.904765E-01         1.2 %
  queue fft (serial)         :   0.480430E+01  0.318166E-01         0.4 %
  queue fft (message passing):   0.877640E+01  0.581219E-01         0.8 %
  HFX potential              :   0.127792E+02  0.846303E-01         1.2 %
  non-local psp FFM          :   0.875878E+01  0.580052E-01         0.8 %
  non-local psp FMF          :   0.172183E+00  0.114028E-02         0.0 %
  non-local psp FFM A        :   0.106114E+00  0.702744E-03         0.0 %
  non-local psp FFM B        :   0.246151E+00  0.163014E-02         0.0 %

== HFX Counters ==
  HFX Evalulations         =   151
  Lin ACE HFX Evalulations =     0


     >>>  JOB COMPLETED     AT Wed Apr 23 07:43:54 2025  <<<

 Task  times  cpu:     1032.1s     wall:     1101.3s


                                NWChem Input Module
                                -------------------


 Summary of allocated global arrays
-----------------------------------
  No active global arrays


MA_summarize_allocated_blocks: starting scan ...
MA_summarize_allocated_blocks: scan completed: 0 heap blocks, 0 stack blocks
MA usage statistics:

	allocation statistics:
					      heap	     stack
					      ----	     -----
	current number of blocks	         0	         0
	maximum number of blocks	       313	        36
	current total bytes		         0	         0
	maximum total bytes		  40850776	  13584728
	maximum total K-bytes		     40851	     13585
	maximum total M-bytes		        41	        14


                                     CITATION
                                     --------
                Please cite the following reference when publishing
                           results obtained with NWChem:

          E. Apra, E. J. Bylaska, W. A. de Jong, N. Govind, K. Kowalski,
       T. P. Straatsma, M. Valiev, H. J. J. van Dam, Y. Alexeev, J. Anchell,
       V. Anisimov, F. W. Aquino, R. Atta-Fynn, J. Autschbach, N. P. Bauman,
     J. C. Becca, D. E. Bernholdt, K. Bhaskaran-Nair, S. Bogatko, P. Borowski,
         J. Boschen, J. Brabec, A. Bruner, E. Cauet, Y. Chen, G. N. Chuev,
      C. J. Cramer, J. Daily, M. J. O. Deegan, T. H. Dunning Jr., M. Dupuis,
   K. G. Dyall, G. I. Fann, S. A. Fischer, A. Fonari, H. Fruchtl, L. Gagliardi,
      J. Garza, N. Gawande, S. Ghosh, K. Glaesemann, A. W. Gotz, J. Hammond,
       V. Helms, E. D. Hermes, K. Hirao, S. Hirata, M. Jacquelin, L. Jensen,
   B. G. Johnson, H. Jonsson, R. A. Kendall, M. Klemm, R. Kobayashi, V. Konkov,
      S. Krishnamoorthy, M. Krishnan, Z. Lin, R. D. Lins, R. J. Littlefield,
      A. J. Logsdail, K. Lopata, W. Ma, A. V. Marenich, J. Martin del Campo,
   D. Mejia-Rodriguez, J. E. Moore, J. M. Mullin, T. Nakajima, D. R. Nascimento,
    J. A. Nichols, P. J. Nichols, J. Nieplocha, A. Otero-de-la-Roza, B. Palmer,
    A. Panyala, T. Pirojsirikul, B. Peng, R. Peverati, J. Pittner, L. Pollack,
   R. M. Richard, P. Sadayappan, G. C. Schatz, W. A. Shelton, D. W. Silverstein,
   D. M. A. Smith, T. A. Soares, D. Song, M. Swart, H. L. Taylor, G. S. Thomas,
            V. Tipparaju, D. G. Truhlar, K. Tsemekhman, T. Van Voorhis,
      A. Vazquez-Mayagoitia, P. Verma, O. Villa, A. Vishnu, K. D. Vogiatzis,
        D. Wang, J. H. Weare, M. J. Williamson, T. L. Windus, K. Wolinski,
        A. T. Wong, Q. Wu, C. Yang, Q. Yu, M. Zacharias, Z. Zhang, Y. Zhao,
                                and R. J. Harrison
                        "NWChem: Past, present, and future
                         J. Chem. Phys. 152, 184102 (2020)
                               doi:10.1063/5.0004997

                                      AUTHORS
                                      -------
  E. Apra, E. J. Bylaska, N. Govind, K. Kowalski, M. Valiev, D. Mejia-Rodriguez,
       A. Kunitsa, N. P. Bauman, A. Panyala, W. A. de Jong, T. P. Straatsma,
   H. J. J. van Dam, D. Wang, T. L. Windus, J. Hammond, J. Autschbach, A. Woods,
    K. Bhaskaran-Nair, J. Brabec, K. Lopata, S. A. Fischer, S. Krishnamoorthy,
     M. Jacquelin, W. Ma, M. Klemm, O. Villa, Y. Chen, V. Anisimov, F. Aquino,
     S. Hirata, M. T. Hackler, E. Hermes, L. Jensen, J. E. Moore, J. C. Becca,
      V. Konjkov, T. Risthaus, M. Malagoli, A. Marenich, A. Otero-de-la-Roza,
        J. Mullin, P. Nichols, R. Peverati, J. Pittner, Y. Zhao, P.-D. Fan,
        A. Fonari, M. J. Williamson, R. J. Harrison, J. R. Rehr, M. Dupuis,
     D. Silverstein, D. M. A. Smith, J. Nieplocha, V. Tipparaju, M. Krishnan,
     B. E. Van Kuiken, A. Vazquez-Mayagoitia, M. Swart, Q. Wu, T. Van Voorhis,
     A. A. Auer, M. Nooijen, L. D. Crosby, E. Brown, G. Cisneros, G. I. Fann,
   H. Fruchtl, J. Garza, K. Hirao, R. A. Kendall, J. A. Nichols, K. Tsemekhman,
    K. Wolinski, J. Anchell, D. E. Bernholdt, P. Borowski, T. Clark, D. Clerc,
   H. Dachsel, M. J. O. Deegan, K. Dyall, D. Elwood, E. Glendening, M. Gutowski,
   A. C. Hess, J. Jaffe, B. G. Johnson, J. Ju, R. Kobayashi, R. Kutteh, Z. Lin,
   R. Littlefield, X. Long, B. Meng, T. Nakajima, S. Niu, L. Pollack, M. Rosing,
   K. Glaesemann, G. Sandrone, M. Stave, H. Taylor, G. Thomas, J. H. van Lenthe,
                               A. T. Wong, Z. Zhang.

 Total times  cpu:     1032.2s     wall:     1101.3s
