 argument  1 = H2-4.0.nw



============================== echo of input deck ==============================
title "swnc: e theory=pspw4 xc=hf formula=H2 charge=0 mult=1"
#machinejob:expert

echo

start pspw_hf_H2

memory heap 1200 mb stack 1200 mb global 10 mb

charge 0

geometry
H    0.00000    0.00000   -2.00000
H    0.00000    0.00000    2.00000
end

nwpw
  ### pseudopotential block begin ###
  ### pseudopotential block end   ###
  simulation_cell
     SC 15.0000
     boundary_conditions aperiodic
  end

  cutoff 50.0
  mult 1
  xc hf
  lmbfgs
  tolerances 1.0e-9 1.0e-9

  virtual 10
end
set nwpw:cif_filename H2

#set nwpw:CI_maxit_orb 15
#set nwpw:CI_maxit_linesearch 15
set pspw:HFX_screening_radius 14.0


set nwpw:2qintegrals .true.
set nwpw:3x3_virtual .true.

task pspw energy

================================================================================


                                         
                                         


             Northwest Computational Chemistry Package (NWChem) 7.2.3
             --------------------------------------------------------


                    Environmental Molecular Sciences Laboratory
                       Pacific Northwest National Laboratory
                                Richland, WA 99352

                              Copyright (c) 1994-2022
                       Pacific Northwest National Laboratory
                            Battelle Memorial Institute

             NWChem is an open-source computational chemistry package
                        distributed under the terms of the
                      Educational Community License (ECL) 2.0
             A copy of the license is included with this distribution
                              in the LICENSE.TXT file

                                  ACKNOWLEDGMENT
                                  --------------

            This software and its documentation were developed at the
            EMSL at Pacific Northwest National Laboratory, a multiprogram
            national laboratory, operated for the U.S. Department of Energy
            by Battelle under Contract Number DE-AC05-76RL01830. Support
            for this work was provided by the Department of Energy Office
            of Biological and Environmental Research, Office of Basic
            Energy Sciences, and the Office of Advanced Scientific Computing.


           Job information
           ---------------

    hostname        = mqs-al
    program         = nwchem
    date            = Mon Apr 14 16:02:00 2025

    compiled        = Thu_Oct_31_08:55:15_2024
    source          = /home/conda/feedstock_root/build_artifacts/nwchem_1730356057992/work
    nwchem branch   = 7.2.3
    nwchem revision = c400b04
    ga revision     = 5.8.0
    use scalapack   = T
    input           = H2-4.0.nw
    prefix          = pspw_hf_H2.
    data base       = ./pspw_hf_H2.db
    status          = startup
    nproc           =       24
    time left       =     -1s



           Memory information
           ------------------

    heap     =  157286398 doubles =   1200.0 Mbytes
    stack    =  157286395 doubles =   1200.0 Mbytes
    global   =    1310720 doubles =     10.0 Mbytes (distinct from heap & stack)
    total    =  315883513 doubles =   2410.0 Mbytes
    verify   = yes
    hardfail = no 


           Directory information
           ---------------------

  0 permanent = .
  0 scratch   = .




                                NWChem Input Module
                                -------------------


               swnc: e theory=pspw4 xc=hf formula=H2 charge=0 mult=1
               -----------------------------------------------------

 Scaling coordinates for geometry "geometry" by  1.889725989
 (inverse scale =  0.529177249)

  zeroes
  zeroes
  zeroes
  zeroes
  zeroes
  zeroes
  zeroes
  zeroes
  zeroes
  zeroes
  zeroes
  zeroes
  zeroes
  zeroes
  zeroes
  zeroes
  zeroes
  zeroes
  zeroes
  zeroes
  zeroes
  zeroes
  zeroes
  zeroes
  zeroes
  zeroes
  zeroes
  zeroes
  zeroes
  zeroes
  zeroes
  zeroes
  zeroes
  zeroes
  zeroes
  zeroes
  zeroes
  zeroes
  zeroes
  zeroes
  zeroes
  zeroes
  zeroes
  zeroes
  zeroes
  zeroes
  zeroes
  zeroes
 ORDER OF PRIMARY AXIS IS BEING SET TO 4
 D4H symmetry detected

          ------
          auto-z
          ------
     1 autoz failed with cvr_scaling = 1.2 changing to 1.3
     2 autoz failed with cvr_scaling = 1.3 changing to 1.4
     3 autoz failed with cvr_scaling = 1.4 changing to 1.5
     4 autoz failed with cvr_scaling = 1.5 changing to 1.6
     5 autoz failed with cvr_scaling = 1.6 changing to 1.7

 AUTOZ failed to generate good internal coordinates.
 Cartesian coordinates will be used in optimizations.



                             Geometry "geometry" -> ""
                             -------------------------

 Output coordinates in angstroms (scale by  1.889725989 to convert to a.u.)

  No.       Tag          Charge          X              Y              Z
 ---- ---------------- ---------- -------------- -------------- --------------
    1 H                    1.0000     0.00000000     0.00000000    -2.00000000
    2 H                    1.0000     0.00000000     0.00000000     2.00000000

      Atomic Mass 
      ----------- 

      H                  1.007825


 Effective nuclear repulsion energy (a.u.)       0.1322943122

            Nuclear Dipole moment (a.u.) 
            ----------------------------
        X                 Y               Z
 ---------------- ---------------- ----------------
     0.0000000000     0.0000000000     0.0000000000

      Symmetry information
      --------------------

 Group name             D4h       
 Group number             28
 Group order              16
 No. of unique centers     1

      Symmetry unique atoms

     1


            XYZ format geometry
            -------------------
     2
 geometry
 H                     0.00000000     0.00000000    -2.00000000
 H                     0.00000000     0.00000000     2.00000000

          ****************************************************
          *                                                  *
          *               NWPW PSPW Calculation              *
          *                                                  *
          * [ (Grassmann/Stiefel manifold implementation)  ] *
          *                                                  *
          *      [ NorthWest Chemistry implementation ]      *
          *                                                  *
          *            version #5.10   06/12/02              *
          *                                                  *
          *    This code was developed by Eric J. Bylaska,   *
          *    and was based upon algorithms and code        *
          *    developed by the group of Prof. John H. Weare *
          *                                                  *
          ****************************************************
     >>>  JOB STARTED       AT Mon Apr 14 16:02:01 2025  <<<
          ================ input data ========================

 input psi filename:./pspw_hf_H2.movecs

 number of processors used:        24
 processor grid           :  24 x   1
 parallel mapping         :2d-hilbert
 parallel mapping         :  balanced
 number of threads        :         1
 parallel io              :       off

 options:
      boundary conditions  = aperiodic   (version4)
      electron spin        = restricted
      exchange-correlation = Hartree-Fock
      - HFX relaxed
      - HFX restricted orbitals :    1
      - HFX free-space coulomb solver


 elements involved in the cluster:
      1: H   valence charge:  1.0000  lmax=  1
             comment    : Parameterized (Chem.Phys.Lett., vol 322, page 447) Hamman psp
             pseudpotential type            :   0
             highest angular component      :   1
             local potential used           :   1
             number of non-local projections:   1
             aperiodic cutoff radius        :  1.000
             cutoff =   0.800   0.800


 total charge:   0.000

 atomic composition:
     H   :    2

 number of electrons: spin up=     1 (   1 per task)  down=     1 (   1 per task) (Fourier space)
 number of orbitals : spin up=     1 (   1 per task)  down=     1 (   1 per task) (Fourier space)

 supercell:
      cell_name:  cell_default                                      
      lattice:    a1=<  15.000   0.000   0.000 >
                  a2=<   0.000  15.000   0.000 >
                  a3=<   0.000   0.000  15.000 >
      reciprocal: b1=<   0.419   0.000   0.000 >
                  b2=<   0.000   0.419   0.000 >
                  b3=<   0.000   0.000   0.419 >
      lattice:    a=      15.000 b=     15.000 c=      15.000
                  alpha=  90.000 beta=  90.000 gamma=  90.000
                  omega=      3375.0

      density cutoff=100.000  fft= 70x 70x 70(    80618 waves     3359 per task)
      wavefnc cutoff= 50.000  fft= 70x 70x 70(    28526 waves     1188 per task)

 technical parameters:
      time step=      5.80     fictitious mass=  400000.0
      tolerance=0.100E-08 (energy)   0.100E-08 (density)
      maximum iterations =      1000 (   10 inner    100 outer )





== Energy Calculation ==


          ============ Grassmann lmbfgs iteration ============
     >>>  ITERATION STARTED AT Mon Apr 14 16:02:06 2025  <<<
    iter.           Energy         DeltaE       DeltaRho 
    ------------------------------------------------------
      10   -0.7944503355E+00   -0.15229E-02    0.69751E-02
     -  10 steepest descent iterations performed
      20   -0.7996269730E+00   -0.13615E-03    0.67568E-04
      30   -0.7998689136E+00   -0.49437E-05    0.56056E-05
      40   -0.7998850450E+00   -0.27967E-06    0.74498E-07
      50   -0.7998858326E+00   -0.11673E-07    0.88047E-09
      60   -0.7998858663E+00   -0.97781E-09    0.16538E-09
  *** tolerance ok. iteration terminated
     >>>  ITERATION ENDED   AT Mon Apr 14 16:02:12 2025  <<<


==  Summary Of Results  ==

 number of electrons: spin up=    1.00000  down=    1.00000 (real space)

 total     energy    :  -0.7998858663E+00 (   -0.39994E+00/ion)
 total orbital energy:  -0.6195618360E+00 (   -0.61956E+00/electron)
 hartree   energy    :   0.6252366852E+00 (    0.62524E+00/electron)
 exc-corr  energy    :   0.0000000000E+00 (    0.00000E+00/electron)
 HF exchange energy  :  -0.3126183426E+00 (   -0.31262E+00/electron)
 ion-ion   energy    :   0.1322943122E+00 (    0.66147E-01/ion)

 kinetic (planewave) :   0.6191377300E+00 (    0.61914E+00/electron)
 V_local (planewave) :  -0.1716936480E+01 (   -0.17169E+01/electron)
 V_nl    (planewave) :  -0.1469997707E+00 (   -0.14700E+00/electron)
 V_Coul  (planewave) :   0.1250473370E+01 (    0.12505E+01/electron)
 V_xc.   (planewave) :   0.0000000000E+00 (    0.00000E+00/electron)
 K.S. HFX energy     :  -0.6252366852E+00 (   -0.62524E+00/electron)
 Virial Coefficient  :  -0.9908342701E+00

 orbital energies:
    -0.3097809E+00 (  -8.430eV)


== Virtual Orbital Calculation ==


 input epsi filename:./pspw_hf_H2.emovecs

 COVOs Mimimization
 ------------------
CI gradient algorithm =         3
maxit_sweeps          =         3
maxit_orb             =       120
maxit_linesearch      =        15
maxerror              = 0.100E-08

     orb,it,eci,eold,eci-eold=                    1                    1 -0.91647909459243415      -0.91563877059944887       -8.4032399298528127E-004 F
     orb,it,eci,eold,eci-eold=                    1                    2 -0.91669544733465058      -0.91647909459243415       -2.1635274221643019E-004 F
     orb,it,eci,eold,eci-eold=                    1                    3 -0.93314942083994457      -0.91669544733465058       -1.6453973505293984E-002 F
     orb,it,eci,eold,eci-eold=                    1                    4 -0.93472566115887068      -0.93314942083994457       -1.5762403189261143E-003 F
     orb,it,eci,eold,eci-eold=                    1                    5 -0.93551314881901915      -0.93472566115887068       -7.8748766014846705E-004 F
     orb,it,eci,eold,eci-eold=                    1                    6 -0.93994902892968724      -0.93551314881901915       -4.4358801106680890E-003 F
     orb,it,eci,eold,eci-eold=                    1                    7 -0.94528362092150053      -0.93994902892968724       -5.3345919918132978E-003 F
     orb,it,eci,eold,eci-eold=                    1                    8 -0.94712025638216613      -0.94528362092150053       -1.8366354606655921E-003 F
     orb,it,eci,eold,eci-eold=                    1                    9 -0.94721036797296432      -0.94712025638216613       -9.0111590798191976E-005 F
     orb,it,eci,eold,eci-eold=                    1                   10 -0.95264115407017280      -0.94721036797296432       -5.4307860972084843E-003 F
     orb,it,eci,eold,eci-eold=                    1                   11 -0.95537537116380999      -0.95264115407017280       -2.7342170936371923E-003 F
     orb,it,eci,eold,eci-eold=                    1                   12 -0.95556216819988649      -0.95537537116380999       -1.8679703607649145E-004 F
     orb,it,eci,eold,eci-eold=                    1                   13 -0.95769701637438964      -0.95556216819988649       -2.1348481745031567E-003 F
     orb,it,eci,eold,eci-eold=                    1                   14 -0.95846350325168117      -0.95769701637438964       -7.6648687729152787E-004 F
     orb,it,eci,eold,eci-eold=                    1                   15 -0.95953849873378216      -0.95846350325168117       -1.0749954821009933E-003 F
     orb,it,eci,eold,eci-eold=                    1                   16 -0.96258924624555542      -0.95953849873378216       -3.0507475117732552E-003 F
     orb,it,eci,eold,eci-eold=                    1                   17 -0.96437458163835288      -0.96258924624555542       -1.7853353927974602E-003 F
     orb,it,eci,eold,eci-eold=                    1                   18 -0.96588433321634204      -0.96437458163835288       -1.5097515779891602E-003 F
     orb,it,eci,eold,eci-eold=                    1                   19 -0.96658585506561112      -0.96588433321634204       -7.0152184926908223E-004 F
     orb,it,eci,eold,eci-eold=                    1                   20 -0.96830938609355366      -0.96658585506561112       -1.7235310279425375E-003 F
     orb,it,eci,eold,eci-eold=                    1                   21 -0.96866222832506499      -0.96830938609355366       -3.5284223151132998E-004 F
     orb,it,eci,eold,eci-eold=                    1                   22 -0.96875120101807932      -0.96866222832506499       -8.8972693014333082E-005 F
     orb,it,eci,eold,eci-eold=                    1                   23 -0.96965511267231486      -0.96875120101807932       -9.0391165423553410E-004 F
     orb,it,eci,eold,eci-eold=                    1                   24 -0.97009023797067406      -0.96965511267231486       -4.3512529835920688E-004 F
     orb,it,eci,eold,eci-eold=                    1                   25 -0.97040880500357707      -0.97009023797067406       -3.1856703290300548E-004 F
     orb,it,eci,eold,eci-eold=                    1                   26 -0.97148494161888477      -0.97040880500357707       -1.0761366153076990E-003 F
     orb,it,eci,eold,eci-eold=                    1                   27 -0.97171385543208677      -0.97148494161888477       -2.2891381320200299E-004 F
     orb,it,eci,eold,eci-eold=                    1                   28 -0.97176948486801851      -0.97171385543208677       -5.5629435931736637E-005 F
     orb,it,eci,eold,eci-eold=                    1                   29 -0.97247307708113939      -0.97176948486801851       -7.0359221312088494E-004 F
     orb,it,eci,eold,eci-eold=                    1                   30 -0.97278613630667865      -0.97247307708113939       -3.1305922553925836E-004 F
     orb,it,eci,eold,eci-eold=                    1                   31 -0.97291749408601713      -0.97278613630667865       -1.3135777933848125E-004 F
     orb,it,eci,eold,eci-eold=                    1                   32 -0.97360328374138727      -0.97291749408601713       -6.8578965537013925E-004 F
     orb,it,eci,eold,eci-eold=                    1                   33 -0.97370696371343157      -0.97360328374138727       -1.0367997204430157E-004 F
     orb,it,eci,eold,eci-eold=                    1                   34 -0.97374357847059789      -0.97370696371343157       -3.6614757166320011E-005 F
     orb,it,eci,eold,eci-eold=                    1                   35 -0.97432580916962219      -0.97374357847059789       -5.8223069902429980E-004 F
     orb,it,eci,eold,eci-eold=                    1                   36 -0.97467651322593529      -0.97432580916962219       -3.5070405631310031E-004 F
     orb,it,eci,eold,eci-eold=                    1                   37 -0.97493704657834979      -0.97467651322593529       -2.6053335241449371E-004 F
     orb,it,eci,eold,eci-eold=                    1                   38 -0.97504767130229486      -0.97493704657834979       -1.1062472394507417E-004 F
     orb,it,eci,eold,eci-eold=                    1                   39 -0.97533534413577605      -0.97504767130229486       -2.8767283348118955E-004 F
     orb,it,eci,eold,eci-eold=                    1                   40 -0.97535430542286861      -0.97533534413577605       -1.8961287092555956E-005 F
     orb,it,eci,eold,eci-eold=                    1                   41 -0.97537824794105099      -0.97535430542286861       -2.3942518182384909E-005 F
     orb,it,eci,eold,eci-eold=                    1                   42 -0.97564952097674562      -0.97537824794105099       -2.7127303569463024E-004 F
     orb,it,eci,eold,eci-eold=                    1                   43 -0.97580467288985895      -0.97564952097674562       -1.5515191311332721E-004 F
     orb,it,eci,eold,eci-eold=                    1                   44 -0.97593798092629047      -0.97580467288985895       -1.3330803643152311E-004 F
     orb,it,eci,eold,eci-eold=                    1                   45 -0.97599824888562148      -0.97593798092629047       -6.0267959331006260E-005 F
     orb,it,eci,eold,eci-eold=                    1                   46 -0.97613044589597087      -0.97599824888562148       -1.3219701034938858E-004 F
     orb,it,eci,eold,eci-eold=                    1                   47 -0.97614137837839099      -0.97613044589597087       -1.0932482420122902E-005 F
     orb,it,eci,eold,eci-eold=                    1                   48 -0.97614750875313883      -0.97614137837839099       -6.1303747478369530E-006 F
     orb,it,eci,eold,eci-eold=                    1                   49 -0.97624671803402052      -0.97614750875313883       -9.9209280881695783E-005 F
     orb,it,eci,eold,eci-eold=                    1                   50 -0.97630312210771963      -0.97624671803402052       -5.6404073699112267E-005 F
     orb,it,eci,eold,eci-eold=                    1                   51 -0.97632143183096609      -0.97630312210771963       -1.8309723246456855E-005 F
     orb,it,eci,eold,eci-eold=                    1                   52 -0.97640160669387654      -0.97632143183096609       -8.0174862910453726E-005 F
     orb,it,eci,eold,eci-eold=                    1                   53 -0.97642955956092714      -0.97640160669387654       -2.7952867050595742E-005 F
     orb,it,eci,eold,eci-eold=                    1                   54 -0.97643925637949436      -0.97642955956092714       -9.6968185672174911E-006 F
     orb,it,eci,eold,eci-eold=                    1                   55 -0.97650138329911773      -0.97643925637949436       -6.2126919623373134E-005 F
     orb,it,eci,eold,eci-eold=                    1                   56 -0.97652668615424154      -0.97650138329911773       -2.5302855123809920E-005 F
     orb,it,eci,eold,eci-eold=                    1                   57 -0.97653557928337809      -0.97652668615424154       -8.8931291365446086E-006 F
     orb,it,eci,eold,eci-eold=                    1                   58 -0.97658691723916335      -0.97653557928337809       -5.1337955785268896E-005 F
     orb,it,eci,eold,eci-eold=                    1                   59 -0.97660806612322970      -0.97658691723916335       -2.1148884066346518E-005 F
     orb,it,eci,eold,eci-eold=                    1                   60 -0.97661484292369616      -0.97660806612322970       -6.7768004664570114E-006 F
     orb,it,eci,eold,eci-eold=                    1                   61 -0.97665374105250879      -0.97661484292369616       -3.8898128812636656E-005 F
     orb,it,eci,eold,eci-eold=                    1                   62 -0.97666842962616263      -0.97665374105250879       -1.4688573653831583E-005 F
     orb,it,eci,eold,eci-eold=                    1                   63 -0.97667390808278798      -0.97666842962616263       -5.4784566253518463E-006 F
     orb,it,eci,eold,eci-eold=                    1                   64 -0.97670712983509478      -0.97667390808278798       -3.3221752306800134E-005 F
     orb,it,eci,eold,eci-eold=                    1                   65 -0.97672027046879961      -0.97670712983509478       -1.3140633704833427E-005 F
     orb,it,eci,eold,eci-eold=                    1                   66 -0.97672429769561886      -0.97672027046879961       -4.0272268192476091E-006 F
     orb,it,eci,eold,eci-eold=                    1                   67 -0.97675280386282548      -0.97672429769561886       -2.8506167206621136E-005 F
     orb,it,eci,eold,eci-eold=                    1                   68 -0.97676766571344564      -0.97675280386282548       -1.4861850620162542E-005 F
     orb,it,eci,eold,eci-eold=                    1                   69 -0.97677239141895089      -0.97676766571344564       -4.7257055052485342E-006 F
     orb,it,eci,eold,eci-eold=                    1                   70 -0.97679471408217045      -0.97677239141895089       -2.2322663219553895E-005 F
     orb,it,eci,eold,eci-eold=                    1                   71 -0.97680154410146458      -0.97679471408217045       -6.8300192941350701E-006 F
     orb,it,eci,eold,eci-eold=                    1                   72 -0.97680302277751940      -0.97680154410146458       -1.4786760548224365E-006 F
     orb,it,eci,eold,eci-eold=                    1                   73 -0.97681883513587098      -0.97680302277751940       -1.5812358351574574E-005 F
     orb,it,eci,eold,eci-eold=                    1                   74 -0.97682719898403736      -0.97681883513587098       -8.3638481663816933E-006 F
     orb,it,eci,eold,eci-eold=                    1                   75 -0.97683067302808602      -0.97682719898403736       -3.4740440486569213E-006 F
     orb,it,eci,eold,eci-eold=                    1                   76 -0.97684494462363214      -0.97683067302808602       -1.4271595546122562E-005 F
     orb,it,eci,eold,eci-eold=                    1                   77 -0.97684981297787932      -0.97684494462363214       -4.8683542471783525E-006 F
     orb,it,eci,eold,eci-eold=                    1                   78 -0.97685135309453308      -0.97684981297787932       -1.5401166537643007E-006 F
     orb,it,eci,eold,eci-eold=                    1                   79 -0.97686156779995592      -0.97685135309453308       -1.0214705422839643E-005 F
     orb,it,eci,eold,eci-eold=                    1                   80 -0.97686594070057331      -0.97686156779995592       -4.3729006173887086E-006 F
     orb,it,eci,eold,eci-eold=                    1                   81 -0.97686775312557117      -0.97686594070057331       -1.8124249978601625E-006 F
     orb,it,eci,eold,eci-eold=                    1                   82 -0.97687684011360709      -0.97686775312557117       -9.0869880359223387E-006 F
     orb,it,eci,eold,eci-eold=                    1                   83 -0.97688068090651581      -0.97687684011360709       -3.8407929087158621E-006 F
     orb,it,eci,eold,eci-eold=                    1                   84 -0.97688205048142862      -0.97688068090651581       -1.3695749128128654E-006 F
     orb,it,eci,eold,eci-eold=                    1                   85 -0.97688911942862877      -0.97688205048142862       -7.0689472001506104E-006 F
     orb,it,eci,eold,eci-eold=                    1                   86 -0.97689163091592179      -0.97688911942862877       -2.5114872930220855E-006 F
     orb,it,eci,eold,eci-eold=                    1                   87 -0.97689252317937603      -0.97689163091592179       -8.9226345423298881E-007 F
     orb,it,eci,eold,eci-eold=                    1                   88 -0.97689867416694975      -0.97689252317937603       -6.1509875737275621E-006 F
     orb,it,eci,eold,eci-eold=                    1                   89 -0.97690205288707088      -0.97689867416694975       -3.3787201211277207E-006 F
     orb,it,eci,eold,eci-eold=                    1                   90 -0.97690334841418158      -0.97690205288707088       -1.2955271107006894E-006 F
     orb,it,eci,eold,eci-eold=                    1                   91 -0.97690851502339704      -0.97690334841418158       -5.1666092154567522E-006 F
     orb,it,eci,eold,eci-eold=                    1                   92 -0.97690957829518621      -0.97690851502339704       -1.0632717891700949E-006 F
     orb,it,eci,eold,eci-eold=                    1                   93 -0.97690967561550490      -0.97690957829518621       -9.7320318692695196E-008 F
     orb,it,eci,eold,eci-eold=                    1                   94 -0.97691333825189997      -0.97690967561550490       -3.6626363950631458E-006 F
     orb,it,eci,eold,eci-eold=                    1                   95 -0.97691561402790583      -0.97691333825189997       -2.2757760058667031E-006 F
     orb,it,eci,eold,eci-eold=                    1                   96 -0.97691642160292291      -0.97691561402790583       -8.0757501708106361E-007 F
     orb,it,eci,eold,eci-eold=                    1                   97 -0.97691957762081783      -0.97691642160292291       -3.1560178949119333E-006 F
     orb,it,eci,eold,eci-eold=                    1                   98 -0.97692066234419517      -0.97691957762081783       -1.0847233773425558E-006 F
     orb,it,eci,eold,eci-eold=                    1                   99 -0.97692108654824028      -0.97692066234419517       -4.2420404511300802E-007 F
     orb,it,eci,eold,eci-eold=                    1                  100 -0.97692354753323585      -0.97692108654824028       -2.4609849955670171E-006 F
     orb,it,eci,eold,eci-eold=                    1                  101 -0.97692424099772568      -0.97692354753323585       -6.9346448983154119E-007 F
     orb,it,eci,eold,eci-eold=                    1                  102 -0.97692434778488246      -0.97692424099772568       -1.0678715678391626E-007 F
     orb,it,eci,eold,eci-eold=                    1                  103 -0.97692604252842463      -0.97692434778488246       -1.6947435421688084E-006 F
     orb,it,eci,eold,eci-eold=                    1                  104 -0.97692694210089637      -0.97692604252842463       -8.9957247173533261E-007 F
     orb,it,eci,eold,eci-eold=                    1                  105 -0.97692731522235765      -0.97692694210089637       -3.7312146128343215E-007 F
     orb,it,eci,eold,eci-eold=                    1                  106 -0.97692894839703892      -0.97692731522235765       -1.6331746812703329E-006 F
     orb,it,eci,eold,eci-eold=                    1                  107 -0.97692951656107574      -0.97692894839703892       -5.6816403681825278E-007 F
     orb,it,eci,eold,eci-eold=                    1                  108 -0.97692968416091452      -0.97692951656107574       -1.6759983878511520E-007 F
     orb,it,eci,eold,eci-eold=                    1                  109 -0.97693101921145575      -0.97692968416091452       -1.3350505412290659E-006 F
     orb,it,eci,eold,eci-eold=                    1                  110 -0.97693172252401950      -0.97693101921145575       -7.0331256374345230E-007 F
     orb,it,eci,eold,eci-eold=                    1                  111 -0.97693195184286041      -0.97693172252401950       -2.2931884091637045E-007 F
     orb,it,eci,eold,eci-eold=                    1                  112 -0.97693309373433057      -0.97693195184286041       -1.1418914701577521E-006 F
     orb,it,eci,eold,eci-eold=                    1                  113 -0.97693359800816726      -0.97693309373433057       -5.0427383668782966E-007 F
     orb,it,eci,eold,eci-eold=                    1                  114 -0.97693377352132504      -0.97693359800816726       -1.7551315778518983E-007 F
     orb,it,eci,eold,eci-eold=                    1                  115 -0.97693471112683739      -0.97693377352132504       -9.3760551234112199E-007 F
     orb,it,eci,eold,eci-eold=                    1                  116 -0.97693504521752517      -0.97693471112683739       -3.3409068778134099E-007 F
     orb,it,eci,eold,eci-eold=                    1                  117 -0.97693513173731017      -0.97693504521752517       -8.6519785003069671E-008 F
     orb,it,eci,eold,eci-eold=                    1                  118 -0.97693587247751912      -0.97693513173731017       -7.4074020894876469E-007 F
     orb,it,eci,eold,eci-eold=                    1                  119 -0.97693626901944075      -0.97693587247751912       -3.9654192163229851E-007 F
     orb,it,eci,eold,eci-eold=                    1                  120 -0.97693640859809472      -0.97693626901944075       -1.3957865396818647E-007 F
     orb,it,eci,eold,eci-eold=                    1                  121 -0.97693702350911538      -0.97693640859809472       -6.1491102065769354E-007 F
     orbital   1 current e= -0.150596E+00 error=0.758E-01 (eci= -0.976937024E+00 error=0.615E-06) iterations 121(   0 preconditioned, Ep,Sp= 20.0  200.0)
     orb,it,eci,eold,eci-eold=                    1                    1 -0.97693874152778748      -0.97693702350911538       -1.7180186721033053E-006 F
     orb,it,eci,eold,eci-eold=                    1                    2 -0.97693920689610325      -0.97693874152778748       -4.6536831577181914E-007 F
     orb,it,eci,eold,eci-eold=                    1                    3 -0.97693921989657639      -0.97693920689610325       -1.3000473142454894E-008 F
     orb,it,eci,eold,eci-eold=                    1                    4 -0.97693966205867788      -0.97693921989657639       -4.4216210148828594E-007 F
     orb,it,eci,eold,eci-eold=                    1                    5 -0.97694004584930305      -0.97693966205867788       -3.8379062516913365E-007 F
     orb,it,eci,eold,eci-eold=                    1                    6 -0.97694026181876925      -0.97694004584930305       -2.1596946619961699E-007 F
     orb,it,eci,eold,eci-eold=                    1                    7 -0.97694046246835864      -0.97694026181876925       -2.0064958938803557E-007 F
     orb,it,eci,eold,eci-eold=                    1                    8 -0.97694060538379690      -0.97694046246835864       -1.4291543826150388E-007 F
     orb,it,eci,eold,eci-eold=                    1                    9 -0.97694067754945157      -0.97694060538379690       -7.2165654674272162E-008 F
     orb,it,eci,eold,eci-eold=                    1                   10 -0.97694074077899407      -0.97694067754945157       -6.3229542490716995E-008 F
     orb,it,eci,eold,eci-eold=                    1                   11 -0.97694076870940405      -0.97694074077899407       -2.7930409984833204E-008 F
     orb,it,eci,eold,eci-eold=                    1                   12 -0.97694081257859811      -0.97694076870940405       -4.3869194055190519E-008 F
     orb,it,eci,eold,eci-eold=                    1                   13 -0.97694084121367064      -0.97694081257859811       -2.8635072535365680E-008 F
     orb,it,eci,eold,eci-eold=                    1                   14 -0.97694088158468384      -0.97694084121367064       -4.0371013199091976E-008 F
     orb,it,eci,eold,eci-eold=                    1                   15 -0.97694090115933063      -0.97694088158468384       -1.9574646792364092E-008 F
     orb,it,eci,eold,eci-eold=                    1                   16 -0.97694091809297046      -0.97694090115933063       -1.6933639823690783E-008 F
     orb,it,eci,eold,eci-eold=                    1                   17 -0.97694092604151461      -0.97694091809297046       -7.9485441561999437E-009 F
     orb,it,eci,eold,eci-eold=                    1                   18 -0.97694093886509326      -0.97694092604151461       -1.2823578643406108E-008 F
     orb,it,eci,eold,eci-eold=                    1                   19 -0.97694094022971822      -0.97694093886509326       -1.3646249685805856E-009 F
     orb,it,eci,eold,eci-eold=                    1                   20 -0.97694094493405681      -0.97694094022971822       -4.7043385853484665E-009 F
     orb,it,eci,eold,eci-eold=                    1                   21 -0.97694095301995920      -0.97694094493405681       -8.0859023920965001E-009 F
     orb,it,eci,eold,eci-eold=                    1                   22 -0.97694095654965518      -0.97694095301995920       -3.5296959799424599E-009 F
     orb,it,eci,eold,eci-eold=                    1                   23 -0.97694096180984702      -0.97694095654965518       -5.2601918376637968E-009 F
     orb,it,eci,eold,eci-eold=                    1                   24 -0.97694096287512322      -0.97694096180984702       -1.0652762005847194E-009 F
     orb,it,eci,eold,eci-eold=                    1                   25 -0.97694096451313239      -0.97694096287512322       -1.6380091727441481E-009 F
     orb,it,eci,eold,eci-eold=                    1                   26 -0.97694096750161563      -0.97694096451313239       -2.9884832386528615E-009 F
     orb,it,eci,eold,eci-eold=                    1                   27 -0.97694096750161563      -0.97694096750161563        0.0000000000000000      F
     orbital   1 current e= -0.150595E+00 error=0.995E-06 (eci= -0.976940968E+00 error=0.000E+00) iterations  27(   0 preconditioned, Ep,Sp= 20.0  200.0)
     orb,it,eci,eold,eci-eold=                    1                    1 -0.97694097518077649      -0.97694096715139056       -8.0293859339164442E-009 F
     orb,it,eci,eold,eci-eold=                    1                    2 -0.97694097669489288      -0.97694097518077649       -1.5141163878240604E-009 F
     orb,it,eci,eold,eci-eold=                    1                    3 -0.97694097780175781      -0.97694097669489288       -1.1068649330425728E-009 F
     orb,it,eci,eold,eci-eold=                    1                    4 -0.97694097780175781      -0.97694097780175781        0.0000000000000000      F
     orbital   1 current e= -0.150595E+00 error=0.211E-07 (eci= -0.976940978E+00 error=0.000E+00) iterations   4(   0 preconditioned, Ep,Sp= 20.0  200.0)
     orb,it,eci,eold,eci-eold=                    2                    1 -0.80338351762083726      -0.80285607089659639       -5.2744672424087646E-004 F
     orb,it,eci,eold,eci-eold=                    2                    2 -0.80342472573204748      -0.80338351762083726       -4.1208111210222498E-005 F
     orb,it,eci,eold,eci-eold=                    2                    3 -0.80346727281061470      -0.80342472573204748       -4.2547078567212182E-005 F
     orb,it,eci,eold,eci-eold=                    2                    4 -0.80357845186839871      -0.80346727281061470       -1.1117905778401660E-004 F
     orb,it,eci,eold,eci-eold=                    2                    5 -0.80364393919583099      -0.80357845186839871       -6.5487327432278697E-005 F
     orb,it,eci,eold,eci-eold=                    2                    6 -0.80373681321155321      -0.80364393919583099       -9.2874015722221870E-005 F
     orb,it,eci,eold,eci-eold=                    2                    7 -0.80379897268037381      -0.80373681321155321       -6.2159468820599528E-005 F
     orb,it,eci,eold,eci-eold=                    2                    8 -0.80385008390115820      -0.80379897268037381       -5.1111220784383349E-005 F
     orb,it,eci,eold,eci-eold=                    2                    9 -0.80387519689428044      -0.80385008390115820       -2.5112993122244909E-005 F
     orb,it,eci,eold,eci-eold=                    2                   10 -0.80390000025809827      -0.80387519689428044       -2.4803363817826884E-005 F
     orb,it,eci,eold,eci-eold=                    2                   11 -0.80390891935180619      -0.80390000025809827       -8.9190937079264287E-006 F
     orb,it,eci,eold,eci-eold=                    2                   12 -0.80391290996994846      -0.80390891935180619       -3.9906181422688647E-006 F
     orb,it,eci,eold,eci-eold=                    2                   13 -0.80395020681500284      -0.80391290996994846       -3.7296845054379801E-005 F
     orb,it,eci,eold,eci-eold=                    2                   14 -0.80397243264095652      -0.80395020681500284       -2.2225825953681166E-005 F
     orb,it,eci,eold,eci-eold=                    2                   15 -0.80398926716439734      -0.80397243264095652       -1.6834523440811822E-005 F
     orb,it,eci,eold,eci-eold=                    2                   16 -0.80399808436316866      -0.80398926716439734       -8.8171987713270283E-006 F
     orb,it,eci,eold,eci-eold=                    2                   17 -0.80402986635178086      -0.80399808436316866       -3.1781988612200607E-005 F
     orb,it,eci,eold,eci-eold=                    2                   18 -0.80404179348984228      -0.80402986635178086       -1.1927138061418319E-005 F
     orb,it,eci,eold,eci-eold=                    2                   19 -0.80404557653309283      -0.80404179348984228       -3.7830432505492340E-006 F
     orb,it,eci,eold,eci-eold=                    2                   20 -0.80406503532818130      -0.80404557653309283       -1.9458795088467262E-005 F
     orb,it,eci,eold,eci-eold=                    2                   21 -0.80406907548494899      -0.80406503532818130       -4.0401567676928707E-006 F
     orb,it,eci,eold,eci-eold=                    2                   22 -0.80407118209149209      -0.80406907548494899       -2.1066065430952463E-006 F
     orb,it,eci,eold,eci-eold=                    2                   23 -0.80408843987407153      -0.80407118209149209       -1.7257782579438441E-005 F
     orb,it,eci,eold,eci-eold=                    2                   24 -0.80409460854650172      -0.80408843987407153       -6.1686724301956986E-006 F
     orb,it,eci,eold,eci-eold=                    2                   25 -0.80409582004745994      -0.80409460854650172       -1.2115009582203129E-006 F
     orb,it,eci,eold,eci-eold=                    2                   26 -0.80410637452162304      -0.80409582004745994       -1.0554474163093630E-005 F
     orb,it,eci,eold,eci-eold=                    2                   27 -0.80410908695817063      -0.80410637452162304       -2.7124365475916790E-006 F
     orb,it,eci,eold,eci-eold=                    2                   28 -0.80411040102551212      -0.80410908695817063       -1.3140673414957504E-006 F
     orb,it,eci,eold,eci-eold=                    2                   29 -0.80412053931569449      -0.80411040102551212       -1.0138290182371001E-005 F
     orb,it,eci,eold,eci-eold=                    2                   30 -0.80412320010729799      -0.80412053931569449       -2.6607916034926404E-006 F
     orb,it,eci,eold,eci-eold=                    2                   31 -0.80412413207669975      -0.80412320010729799       -9.3196940176287768E-007 F
     orb,it,eci,eold,eci-eold=                    2                   32 -0.80413269998239856      -0.80412413207669975       -8.5679056988086089E-006 F
     orb,it,eci,eold,eci-eold=                    2                   33 -0.80413296785552668      -0.80413269998239856       -2.6787312812359687E-007 F
     orb,it,eci,eold,eci-eold=                    2                   34 -0.80413347938021285      -0.80413296785552668       -5.1152468616422198E-007 F
     orb,it,eci,eold,eci-eold=                    2                   35 -0.80414035432575881      -0.80413347938021285       -6.8749455459649056E-006 F
     orb,it,eci,eold,eci-eold=                    2                   36 -0.80414209707952389      -0.80414035432575881       -1.7427537650771541E-006 F
     orb,it,eci,eold,eci-eold=                    2                   37 -0.80414248223922380      -0.80414209707952389       -3.8515969991159693E-007 F
     orb,it,eci,eold,eci-eold=                    2                   38 -0.80414859441787589      -0.80414248223922380       -6.1121786520956789E-006 F
     orb,it,eci,eold,eci-eold=                    2                   39 -0.80415046068447349      -0.80414859441787589       -1.8662665975943682E-006 F
     orb,it,eci,eold,eci-eold=                    2                   40 -0.80415106188297036      -0.80415046068447349       -6.0119849687456650E-007 F
     orb,it,eci,eold,eci-eold=                    2                   41 -0.80415476553043330      -0.80415106188297036       -3.7036474629381644E-006 F
     orb,it,eci,eold,eci-eold=                    2                   42 -0.80415549036672718      -0.80415476553043330       -7.2483629387498638E-007 F
     orb,it,eci,eold,eci-eold=                    2                   43 -0.80415570533904335      -0.80415549036672718       -2.1497231617040313E-007 F
     orb,it,eci,eold,eci-eold=                    2                   44 -0.80415893773620195      -0.80415570533904335       -3.2323971586034617E-006 F
     orb,it,eci,eold,eci-eold=                    2                   45 -0.80416064653758901      -0.80415893773620195       -1.7088013870569796E-006 F
     orb,it,eci,eold,eci-eold=                    2                   46 -0.80416117051533398      -0.80416064653758901       -5.2397774497059402E-007 F
     orb,it,eci,eold,eci-eold=                    2                   47 -0.80416362720792789      -0.80416117051533398       -2.4566925939106810E-006 F
     orb,it,eci,eold,eci-eold=                    2                   48 -0.80416396156195424      -0.80416362720792789       -3.3435402635451084E-007 F
     orb,it,eci,eold,eci-eold=                    2                   49 -0.80416400728493564      -0.80416396156195424       -4.5722981401041807E-008 F
     orb,it,eci,eold,eci-eold=                    2                   50 -0.80416611993193732      -0.80416400728493564       -2.1126470016730181E-006 F
     orb,it,eci,eold,eci-eold=                    2                   51 -0.80416709697376343      -0.80416611993193732       -9.7704182611124679E-007 F
     orb,it,eci,eold,eci-eold=                    2                   52 -0.80416724945281193      -0.80416709697376343       -1.5247904849857719E-007 F
     orb,it,eci,eold,eci-eold=                    2                   53 -0.80416896318800080      -0.80416724945281193       -1.7137351888685259E-006 F
     orb,it,eci,eold,eci-eold=                    2                   54 -0.80416961918341756      -0.80416896318800080       -6.5599541676508721E-007 F
     orb,it,eci,eold,eci-eold=                    2                   55 -0.80416969277539829      -0.80416961918341756       -7.3591980731535500E-008 F
     orb,it,eci,eold,eci-eold=                    2                   56 -0.80417091313235001      -0.80416969277539829       -1.2203569517144075E-006 F
     orb,it,eci,eold,eci-eold=                    2                   57 -0.80417148693808749      -0.80417091313235001       -5.7380573748044839E-007 F
     orb,it,eci,eold,eci-eold=                    2                   58 -0.80417170960451612      -0.80417148693808749       -2.2266642862867059E-007 F
     orb,it,eci,eold,eci-eold=                    2                   59 -0.80417292305697119      -0.80417170960451612       -1.2134524550733161E-006 F
     orb,it,eci,eold,eci-eold=                    2                   60 -0.80417315474756590      -0.80417292305697119       -2.3169059470973252E-007 F
     orb,it,eci,eold,eci-eold=                    2                   61 -0.80417323434025689      -0.80417315474756590       -7.9592690993557369E-008 F
     orb,it,eci,eold,eci-eold=                    2                   62 -0.80417440453616540      -0.80417323434025689       -1.1701959085064217E-006 F
     orb,it,eci,eold,eci-eold=                    2                   63 -0.80417458648439855      -0.80417440453616540       -1.8194823314665598E-007 F
     orb,it,eci,eold,eci-eold=                    2                   64 -0.80417466635829049      -0.80417458648439855       -7.9873891944970410E-008 F
     orb,it,eci,eold,eci-eold=                    2                   65 -0.80417573936697506      -0.80417466635829049       -1.0730086845711639E-006 F
     orb,it,eci,eold,eci-eold=                    2                   66 -0.80417633207556893      -0.80417573936697506       -5.9270859387172692E-007 F
     orb,it,eci,eold,eci-eold=                    2                   67 -0.80417673350997998      -0.80417633207556893       -4.0143441104589783E-007 F
     orb,it,eci,eold,eci-eold=                    2                   68 -0.80417691732894192      -0.80417673350997998       -1.8381896194075154E-007 F
     orb,it,eci,eold,eci-eold=                    2                   69 -0.80417740059628295      -0.80417691732894192       -4.8326734103376623E-007 F
     orb,it,eci,eold,eci-eold=                    2                   70 -0.80417742749277787      -0.80417740059628295       -2.6896494920158887E-008 F
     orb,it,eci,eold,eci-eold=                    2                   71 -0.80417746655308697      -0.80417742749277787       -3.9060309098282175E-008 F
     orb,it,eci,eold,eci-eold=                    2                   72 -0.80417784077034238      -0.80417746655308697       -3.7421725540554007E-007 F
     orb,it,eci,eold,eci-eold=                    2                   73 -0.80417802892937829      -0.80417784077034238       -1.8815903590763128E-007 F
     orb,it,eci,eold,eci-eold=                    2                   74 -0.80417825422460187      -0.80417802892937829       -2.2529522358816223E-007 F
     orb,it,eci,eold,eci-eold=                    2                   75 -0.80417839529017776      -0.80417825422460187       -1.4106557588711155E-007 F
     orb,it,eci,eold,eci-eold=                    2                   76 -0.80417859400089386      -0.80417839529017776       -1.9871071610388924E-007 F
     orb,it,eci,eold,eci-eold=                    2                   77 -0.80417869938489650      -0.80417859400089386       -1.0538400263548908E-007 F
     orb,it,eci,eold,eci-eold=                    2                   78 -0.80417888248724667      -0.80417869938489650       -1.8310235017082732E-007 F
     orb,it,eci,eold,eci-eold=                    2                   79 -0.80417888915776992      -0.80417888248724667       -6.6705232448782681E-009 F
     orb,it,eci,eold,eci-eold=                    2                   80 -0.80417889827441325      -0.80417888915776992       -9.1166433291434146E-009 F
     orb,it,eci,eold,eci-eold=                    2                   81 -0.80417903927904466      -0.80417889827441325       -1.4100463141542008E-007 F
     orb,it,eci,eold,eci-eold=                    2                   82 -0.80417910408023929      -0.80417903927904466       -6.4801194632480019E-008 F
     orb,it,eci,eold,eci-eold=                    2                   83 -0.80417911051125457      -0.80417910408023929       -6.4310152758650929E-009 F
     orb,it,eci,eold,eci-eold=                    2                   84 -0.80417919818326689      -0.80417911051125457       -8.7672012316630799E-008 F
     orb,it,eci,eold,eci-eold=                    2                   85 -0.80417924736119084      -0.80417919818326689       -4.9177923955312508E-008 F
     orb,it,eci,eold,eci-eold=                    2                   86 -0.80417926810440254      -0.80417924736119084       -2.0743211703866393E-008 F
     orb,it,eci,eold,eci-eold=                    2                   87 -0.80417934995709883      -0.80417926810440254       -8.1852696287576521E-008 F
     orb,it,eci,eold,eci-eold=                    2                   88 -0.80417938712458659      -0.80417934995709883       -3.7167487754174999E-008 F
     orb,it,eci,eold,eci-eold=                    2                   89 -0.80417940591700676      -0.80417938712458659       -1.8792420175550717E-008 F
     orb,it,eci,eold,eci-eold=                    2                   90 -0.80417948134761674      -0.80417940591700676       -7.5430609980386976E-008 F
     orb,it,eci,eold,eci-eold=                    2                   91 -0.80417950439740116      -0.80417948134761674       -2.3049784414475027E-008 F
     orb,it,eci,eold,eci-eold=                    2                   92 -0.80417950898378066      -0.80417950439740116       -4.5863794984057904E-009 F
     orb,it,eci,eold,eci-eold=                    2                   93 -0.80417955690463838      -0.80417950898378066       -4.7920857726424515E-008 F
     orb,it,eci,eold,eci-eold=                    2                   94 -0.80417958297788761      -0.80417955690463838       -2.6073249226321593E-008 F
     orb,it,eci,eold,eci-eold=                    2                   95 -0.80417959530980987      -0.80417958297788761       -1.2331922261132888E-008 F
     orb,it,eci,eold,eci-eold=                    2                   96 -0.80417963957182170      -0.80417959530980987       -4.4262011833495762E-008 F
     orb,it,eci,eold,eci-eold=                    2                   97 -0.80417964904011097      -0.80417963957182170       -9.4682892637365512E-009 F
     orb,it,eci,eold,eci-eold=                    2                   98 -0.80417965234025501      -0.80417964904011097       -3.3001440469249133E-009 F
     orb,it,eci,eold,eci-eold=                    2                   99 -0.80417969179600068      -0.80417965234025501       -3.9455745670657905E-008 F
     orb,it,eci,eold,eci-eold=                    2                  100 -0.80417971400319321      -0.80417969179600068       -2.2207192529322128E-008 F
     orb,it,eci,eold,eci-eold=                    2                  101 -0.80417971810535838      -0.80417971400319321       -4.1021651631112377E-009 F
     orb,it,eci,eold,eci-eold=                    2                  102 -0.80417974152396077      -0.80417971810535838       -2.3418602390634646E-008 F
     orb,it,eci,eold,eci-eold=                    2                  103 -0.80417975183852475      -0.80417974152396077       -1.0314563980706737E-008 F
     orb,it,eci,eold,eci-eold=                    2                  104 -0.80417975793605156      -0.80417975183852475       -6.0975268167950958E-009 F
     orb,it,eci,eold,eci-eold=                    2                  105 -0.80417978334497719      -0.80417975793605156       -2.5408925630188151E-008 F
     orb,it,eci,eold,eci-eold=                    2                  106 -0.80417979374021353      -0.80417978334497719       -1.0395236338389680E-008 F
     orb,it,eci,eold,eci-eold=                    2                  107 -0.80417979791292526      -0.80417979374021353       -4.1727117316980866E-009 F
     orb,it,eci,eold,eci-eold=                    2                  108 -0.80417982007378508      -0.80417979791292526       -2.2160859813880052E-008 F
     orb,it,eci,eold,eci-eold=                    2                  109 -0.80417982948114319      -0.80417982007378508       -9.4073581147213758E-009 F
     orb,it,eci,eold,eci-eold=                    2                  110 -0.80417983217580935      -0.80417982948114319       -2.6946661568771901E-009 F
     orb,it,eci,eold,eci-eold=                    2                  111 -0.80417984951272625      -0.80417983217580935       -1.7336916902088717E-008 F
     orb,it,eci,eold,eci-eold=                    2                  112 -0.80417985652172752      -0.80417984951272625       -7.0090012682655356E-009 F
     orb,it,eci,eold,eci-eold=                    2                  113 -0.80417985817201476      -0.80417985652172752       -1.6502872401957802E-009 F
     orb,it,eci,eold,eci-eold=                    2                  114 -0.80417987075985975      -0.80417985817201476       -1.2587844988587449E-008 F
     orb,it,eci,eold,eci-eold=                    2                  115 -0.80417987594968343      -0.80417987075985975       -5.1898236819170052E-009 F
     orb,it,eci,eold,eci-eold=                    2                  116 -0.80417987745238584      -0.80417987594968343       -1.5027024069524941E-009 F
     orb,it,eci,eold,eci-eold=                    2                  117 -0.80417988701368504      -0.80417987745238584       -9.5612991968252459E-009 F
     orb,it,eci,eold,eci-eold=                    2                  118 -0.80417989139390389      -0.80417988701368504       -4.3802188542940712E-009 F
     orb,it,eci,eold,eci-eold=                    2                  119 -0.80417989335391582      -0.80417989139390389       -1.9600119305351882E-009 F
     orb,it,eci,eold,eci-eold=                    2                  120 -0.80417990222365510      -0.80417989335391582       -8.8697392763847915E-009 F
     orb,it,eci,eold,eci-eold=                    2                  121 -0.80417990536659567      -0.80417990222365510       -3.1429405744631822E-009 F
     orbital   2 current e=  0.335794E+00 error=0.582E-01 (eci= -0.804179905E+00 error=0.314E-08) iterations 121(   0 preconditioned, Ep,Sp= 20.0  200.0)
     orb,it,eci,eold,eci-eold=                    2                    1 -0.80417992971634555      -0.80417990536659567       -2.4349749883079141E-008 F
     orb,it,eci,eold,eci-eold=                    2                    2 -0.80417994030243234      -0.80417992971634555       -1.0586086784947213E-008 F
     orb,it,eci,eold,eci-eold=                    2                    3 -0.80417994372362089      -0.80417994030243234       -3.4211885546753251E-009 F
     orb,it,eci,eold,eci-eold=                    2                    4 -0.80417995019464672      -0.80417994372362089       -6.4710258262934417E-009 F
     orb,it,eci,eold,eci-eold=                    2                    5 -0.80417995395142983      -0.80417995019464672       -3.7567831068230362E-009 F
     orb,it,eci,eold,eci-eold=                    2                    6 -0.80417995481024773      -0.80417995395142983       -8.5881790568009819E-010 F
     orbital   2 current e=  0.335725E+00 error=0.690E-04 (eci= -0.804179955E+00 error=0.859E-09) iterations   6(   0 preconditioned, Ep,Sp= 20.0  200.0)
     orb,it,eci,eold,eci-eold=                    2                    1 -0.80417995701518064      -0.80417995481024773       -2.2049329029272258E-009 F
     orb,it,eci,eold,eci-eold=                    2                    2 -0.80417995701518064      -0.80417995701518064        0.0000000000000000      F
     orbital   2 current e=  0.335721E+00 error=0.357E-05 (eci= -0.804179957E+00 error=0.000E+00) iterations   2(   0 preconditioned, Ep,Sp= 20.0  200.0)
     orb,it,eci,eold,eci-eold=                    3                    1 -0.80173039806790747      -0.80164750262429352       -8.2895443613950626E-005 F
     orb,it,eci,eold,eci-eold=                    3                    2 -0.80174166094418320      -0.80173039806790747       -1.1262876275730527E-005 F
     orb,it,eci,eold,eci-eold=                    3                    3 -0.80178278693370886      -0.80174166094418320       -4.1125989525658824E-005 F
     orb,it,eci,eold,eci-eold=                    3                    4 -0.80179244296317953      -0.80178278693370886       -9.6560294706726779E-006 F
     orb,it,eci,eold,eci-eold=                    3                    5 -0.80182480237542597      -0.80179244296317953       -3.2359412246441011E-005 F
     orb,it,eci,eold,eci-eold=                    3                    6 -0.80184961939777288      -0.80182480237542597       -2.4817022346912410E-005 F
     orb,it,eci,eold,eci-eold=                    3                    7 -0.80185938005961654      -0.80184961939777288       -9.7606618436607562E-006 F
     orb,it,eci,eold,eci-eold=                    3                    8 -0.80189633552028750      -0.80185938005961654       -3.6955460670951013E-005 F
     orb,it,eci,eold,eci-eold=                    3                    9 -0.80190027214095183      -0.80189633552028750       -3.9366206643354218E-006 F
     orb,it,eci,eold,eci-eold=                    3                   10 -0.80190267261075898      -0.80190027214095183       -2.4004698071511399E-006 F
     orb,it,eci,eold,eci-eold=                    3                   11 -0.80192883366397916      -0.80190267261075898       -2.6161053220175035E-005 F
     orb,it,eci,eold,eci-eold=                    3                   12 -0.80193575776679826      -0.80192883366397916       -6.9241028191058263E-006 F
     orb,it,eci,eold,eci-eold=                    3                   13 -0.80193899059186990      -0.80193575776679826       -3.2328250716417983E-006 F
     orb,it,eci,eold,eci-eold=                    3                   14 -0.80196208360474375      -0.80193899059186990       -2.3093012873842689E-005 F
     orb,it,eci,eold,eci-eold=                    3                   15 -0.80196726633006987      -0.80196208360474375       -5.1827253261249595E-006 F
     orb,it,eci,eold,eci-eold=                    3                   16 -0.80196823311075416      -0.80196726633006987       -9.6678068428612818E-007 F
     orb,it,eci,eold,eci-eold=                    3                   17 -0.80198709129661860      -0.80196823311075416       -1.8858185864445431E-005 F
     orb,it,eci,eold,eci-eold=                    3                   18 -0.80199416675078983      -0.80198709129661860       -7.0754541712236829E-006 F
     orb,it,eci,eold,eci-eold=                    3                   19 -0.80199542250876155      -0.80199416675078983       -1.2557579717187295E-006 F
     orb,it,eci,eold,eci-eold=                    3                   20 -0.80201079495153649      -0.80199542250876155       -1.5372442774941319E-005 F
     orb,it,eci,eold,eci-eold=                    3                   21 -0.80201683050805239      -0.80201079495153649       -6.0355565159042612E-006 F
     orb,it,eci,eold,eci-eold=                    3                   22 -0.80201843529121786      -0.80201683050805239       -1.6047831654653066E-006 F
     orb,it,eci,eold,eci-eold=                    3                   23 -0.80203150948013036      -0.80201843529121786       -1.3074188912498563E-005 F
     orb,it,eci,eold,eci-eold=                    3                   24 -0.80203632019512716      -0.80203150948013036       -4.8107149968057428E-006 F
     orb,it,eci,eold,eci-eold=                    3                   25 -0.80203789850617990      -0.80203632019512716       -1.5783110527411992E-006 F
     orb,it,eci,eold,eci-eold=                    3                   26 -0.80204952422169751      -0.80203789850617990       -1.1625715517604718E-005 F
     orb,it,eci,eold,eci-eold=                    3                   27 -0.80205249884832031      -0.80204952422169751       -2.9746266227981266E-006 F
     orb,it,eci,eold,eci-eold=                    3                   28 -0.80205262300550118      -0.80205249884832031       -1.2415718086966621E-007 F
     orb,it,eci,eold,eci-eold=                    3                   29 -0.80206052031281172      -0.80205262300550118       -7.8973073105448321E-006 F
     orb,it,eci,eold,eci-eold=                    3                   30 -0.80206278782042406      -0.80206052031281172       -2.2675076123412907E-006 F
     orb,it,eci,eold,eci-eold=                    3                   31 -0.80206288287046723      -0.80206278782042406       -9.5050043169564447E-008 F
     orb,it,eci,eold,eci-eold=                    3                   32 -0.80206840950637126      -0.80206288287046723       -5.5266359040295754E-006 F
     orb,it,eci,eold,eci-eold=                    3                   33 -0.80207001628631713      -0.80206840950637126       -1.6067799458729937E-006 F
     orb,it,eci,eold,eci-eold=                    3                   34 -0.80207020043708399      -0.80207001628631713       -1.8415076685762699E-007 F
     orb,it,eci,eold,eci-eold=                    3                   35 -0.80207431365748239      -0.80207020043708399       -4.1132203983940130E-006 F
     orb,it,eci,eold,eci-eold=                    3                   36 -0.80207628113077889      -0.80207431365748239       -1.9674732965047070E-006 F
     orb,it,eci,eold,eci-eold=                    3                   37 -0.80207711363656264      -0.80207628113077889       -8.3250578375437811E-007 F
     orb,it,eci,eold,eci-eold=                    3                   38 -0.80208098048035559      -0.80207711363656264       -3.8668437929434418E-006 F
     orb,it,eci,eold,eci-eold=                    3                   39 -0.80208239070664589      -0.80208098048035559       -1.4102262902992990E-006 F
     orb,it,eci,eold,eci-eold=                    3                   40 -0.80208296973557003      -0.80208239070664589       -5.7902892414141149E-007 F
     orb,it,eci,eold,eci-eold=                    3                   41 -0.80208609913909346      -0.80208296973557003       -3.1294035234274986E-006 F
     orb,it,eci,eold,eci-eold=                    3                   42 -0.80208720332968730      -0.80208609913909346       -1.1041905938480312E-006 F
     orb,it,eci,eold,eci-eold=                    3                   43 -0.80208764357227835      -0.80208720332968730       -4.4024259104880059E-007 F
     orb,it,eci,eold,eci-eold=                    3                   44 -0.80209018118502851      -0.80208764357227835       -2.5376127501530732E-006 F
     orb,it,eci,eold,eci-eold=                    3                   45 -0.80209088373544679      -0.80209018118502851       -7.0255041828559683E-007 F
     orb,it,eci,eold,eci-eold=                    3                   46 -0.80209107538144275      -0.80209088373544679       -1.9164599596166454E-007 F
     orb,it,eci,eold,eci-eold=                    3                   47 -0.80209298343573898      -0.80209107538144275       -1.9080542962290892E-006 F
     orb,it,eci,eold,eci-eold=                    3                   48 -0.80209356155841693      -0.80209298343573898       -5.7812267795220862E-007 F
     orb,it,eci,eold,eci-eold=                    3                   49 -0.80209368141625337      -0.80209356155841693       -1.1985783643364556E-007 F
     orb,it,eci,eold,eci-eold=                    3                   50 -0.80209514440840357      -0.80209368141625337       -1.4629921502029575E-006 F
     orb,it,eci,eold,eci-eold=                    3                   51 -0.80209554774861735      -0.80209514440840357       -4.0334021378374274E-007 F
     orb,it,eci,eold,eci-eold=                    3                   52 -0.80209558692110683      -0.80209554774861735       -3.9172489474381678E-008 F
     orb,it,eci,eold,eci-eold=                    3                   53 -0.80209671228460921      -0.80209558692110683       -1.1253635023855679E-006 F
     orb,it,eci,eold,eci-eold=                    3                   54 -0.80209711095441572      -0.80209671228460921       -3.9866980650060668E-007 F
     orb,it,eci,eold,eci-eold=                    3                   55 -0.80209715946240334      -0.80209711095441572       -4.8507987626678073E-008 F
     orb,it,eci,eold,eci-eold=                    3                   56 -0.80209805734359252      -0.80209715946240334       -8.9788118917688564E-007 F
     orb,it,eci,eold,eci-eold=                    3                   57 -0.80209839047587206      -0.80209805734359252       -3.3313227953968294E-007 F
     orb,it,eci,eold,eci-eold=                    3                   58 -0.80209844060070223      -0.80209839047587206       -5.0124830175413138E-008 F
     orb,it,eci,eold,eci-eold=                    3                   59 -0.80209918223873067      -0.80209844060070223       -7.4163802843418836E-007 F
     orb,it,eci,eold,eci-eold=                    3                   60 -0.80209946426232293      -0.80209918223873067       -2.8202359225737439E-007 F
     orb,it,eci,eold,eci-eold=                    3                   61 -0.80209950836714050      -0.80209946426232293       -4.4104817575885136E-008 F
     orb,it,eci,eold,eci-eold=                    3                   62 -0.80210012566354294      -0.80209950836714050       -6.1729640243868289E-007 F
     orb,it,eci,eold,eci-eold=                    3                   63 -0.80210038958385277      -0.80210012566354294       -2.6392030982869130E-007 F
     orb,it,eci,eold,eci-eold=                    3                   64 -0.80210044597655428      -0.80210038958385277       -5.6392701508478638E-008 F
     orb,it,eci,eold,eci-eold=                    3                   65 -0.80210095463843256      -0.80210044597655428       -5.0866187828457754E-007 F
     orb,it,eci,eold,eci-eold=                    3                   66 -0.80210112314824644      -0.80210095463843256       -1.6850981388039088E-007 F
     orb,it,eci,eold,eci-eold=                    3                   67 -0.80210114233061236      -0.80210112314824644       -1.9182365917913557E-008 F
     orb,it,eci,eold,eci-eold=                    3                   68 -0.80210148444570128      -0.80210114233061236       -3.4211508892489917E-007 F
     orb,it,eci,eold,eci-eold=                    3                   69 -0.80210157891606382      -0.80210148444570128       -9.4470362532739216E-008 F
     orb,it,eci,eold,eci-eold=                    3                   70 -0.80210159357979582      -0.80210157891606382       -1.4663732006425789E-008 F
     orb,it,eci,eold,eci-eold=                    3                   71 -0.80210187629799756      -0.80210159357979582       -2.8271820173841888E-007 F
     orb,it,eci,eold,eci-eold=                    3                   72 -0.80210202342479686      -0.80210187629799756       -1.4712679929917982E-007 F
     orb,it,eci,eold,eci-eold=                    3                   73 -0.80210207638553832      -0.80210202342479686       -5.2960741458996097E-008 F
     orb,it,eci,eold,eci-eold=                    3                   74 -0.80210233229955130      -0.80210207638553832       -2.5591401298097338E-007 F
     orb,it,eci,eold,eci-eold=                    3                   75 -0.80210240044371373      -0.80210233229955130       -6.8144162423955379E-008 F
     orb,it,eci,eold,eci-eold=                    3                   76 -0.80210241566955087      -0.80210240044371373       -1.5225837146637389E-008 F
     orb,it,eci,eold,eci-eold=                    3                   77 -0.80210260751835505      -0.80210241566955087       -1.9184880417633110E-007 F
     orb,it,eci,eold,eci-eold=                    3                   78 -0.80210265095416178      -0.80210260751835505       -4.3435806729164028E-008 F
     orb,it,eci,eold,eci-eold=                    3                   79 -0.80210266518618456      -0.80210265095416178       -1.4232022782501019E-008 F
     orb,it,eci,eold,eci-eold=                    3                   80 -0.80210284770669449      -0.80210266518618456       -1.8252050992817459E-007 F
     orb,it,eci,eold,eci-eold=                    3                   81 -0.80210294186850839      -0.80210284770669449       -9.4161813901649793E-008 F
     orb,it,eci,eold,eci-eold=                    3                   82 -0.80210300251794053      -0.80210294186850839       -6.0649432143122795E-008 F
     orb,it,eci,eold,eci-eold=                    3                   83 -0.80210303300306807      -0.80210300251794053       -3.0485127533452783E-008 F
     orb,it,eci,eold,eci-eold=                    3                   84 -0.80210311135682921      -0.80210303300306807       -7.8353761145955048E-008 F
     orb,it,eci,eold,eci-eold=                    3                   85 -0.80210311702921255      -0.80210311135682921       -5.6723833408156565E-009 F
     orb,it,eci,eold,eci-eold=                    3                   86 -0.80210312084608848      -0.80210311702921255       -3.8168759264323171E-009 F
     orb,it,eci,eold,eci-eold=                    3                   87 -0.80210318336931330      -0.80210312084608848       -6.2523224819699408E-008 F
     orb,it,eci,eold,eci-eold=                    3                   88 -0.80210320437113602      -0.80210318336931330       -2.1001822725352781E-008 F
     orb,it,eci,eold,eci-eold=                    3                   89 -0.80210320527783996      -0.80210320437113602       -9.0670393415592798E-010 F
     orbital   3 current e=  0.373415E+00 error=0.754E-01 (eci= -0.802103205E+00 error=0.907E-09) iterations  89(   0 preconditioned, Ep,Sp= 20.0  200.0)
     orb,it,eci,eold,eci-eold=                    3                    1 -0.80210333122374400      -0.80210320527783996       -1.2594590403924855E-007 F
     orb,it,eci,eold,eci-eold=                    3                    2 -0.80210340408992242      -0.80210333122374400       -7.2866178424391137E-008 F
     orb,it,eci,eold,eci-eold=                    3                    3 -0.80210341199180513      -0.80210340408992242       -7.9018827037202755E-009 F
     orb,it,eci,eold,eci-eold=                    3                    4 -0.80210345329850785      -0.80210341199180513       -4.1306702724952515E-008 F
     orb,it,eci,eold,eci-eold=                    3                    5 -0.80210346604395322      -0.80210345329850785       -1.2745445365780483E-008 F
     orb,it,eci,eold,eci-eold=                    3                    6 -0.80210346903856056      -0.80210346604395322       -2.9946073398789963E-009 F
     orb,it,eci,eold,eci-eold=                    3                    7 -0.80210352296555276      -0.80210346903856056       -5.3926992205077795E-008 F
     orb,it,eci,eold,eci-eold=                    3                    8 -0.80210354728828048      -0.80210352296555276       -2.4322727720793580E-008 F
     orb,it,eci,eold,eci-eold=                    3                    9 -0.80210354777107273      -0.80210354728828048       -4.8279225062231035E-010 F
     orbital   3 current e=  0.373311E+00 error=0.105E-03 (eci= -0.802103548E+00 error=0.483E-09) iterations   9(   0 preconditioned, Ep,Sp= 20.0  200.0)
     orb,it,eci,eold,eci-eold=                    3                    1 -0.80210355538271494      -0.80210354777107273       -7.6116422054184341E-009 F
     orb,it,eci,eold,eci-eold=                    3                    2 -0.80210355820031864      -0.80210355538271494       -2.8176037059068904E-009 F
     orb,it,eci,eold,eci-eold=                    3                    3 -0.80210357238649610      -0.80210355820031864       -1.4186177454966753E-008 F
     orb,it,eci,eold,eci-eold=                    3                    4 -0.80210357238649610      -0.80210357238649610        0.0000000000000000      F
     orbital   3 current e=  0.373317E+00 error=0.637E-05 (eci= -0.802103572E+00 error=0.000E+00) iterations   4(   0 preconditioned, Ep,Sp= 20.0  200.0)
     orb,it,eci,eold,eci-eold=                    4                    1 -0.80143958007729477      -0.80135439029214672       -8.5189785148043207E-005 F
     orb,it,eci,eold,eci-eold=                    4                    2 -0.80144920515319062      -0.80143958007729477       -9.6250758958582594E-006 F
     orb,it,eci,eold,eci-eold=                    4                    3 -0.80149015751498132      -0.80144920515319062       -4.0952361790691505E-005 F
     orb,it,eci,eold,eci-eold=                    4                    4 -0.80152175799620140      -0.80149015751498132       -3.1600481220084298E-005 F
     orb,it,eci,eold,eci-eold=                    4                    5 -0.80152532648196384      -0.80152175799620140       -3.5684857624396216E-006 F
     orb,it,eci,eold,eci-eold=                    4                    6 -0.80152638808555643      -0.80152532648196384       -1.0616035925892220E-006 F
     orb,it,eci,eold,eci-eold=                    4                    7 -0.80155344869621492      -0.80152638808555643       -2.7060610658491413E-005 F
     orb,it,eci,eold,eci-eold=                    4                    8 -0.80156438264770991      -0.80155344869621492       -1.0933951494984662E-005 F
     orb,it,eci,eold,eci-eold=                    4                    9 -0.80157264416788521      -0.80156438264770991       -8.2615201753011291E-006 F
     orb,it,eci,eold,eci-eold=                    4                   10 -0.80157605293431122      -0.80157264416788521       -3.4087664260162853E-006 F
     orb,it,eci,eold,eci-eold=                    4                   11 -0.80158093106143835      -0.80157605293431122       -4.8781271271280957E-006 F
     orb,it,eci,eold,eci-eold=                    4                   12 -0.80158595454037207      -0.80158093106143835       -5.0234789337189056E-006 F
     orb,it,eci,eold,eci-eold=                    4                   13 -0.80158940401377188      -0.80158595454037207       -3.4494733998080562E-006 F
     orb,it,eci,eold,eci-eold=                    4                   14 -0.80160013377014883      -0.80158940401377188       -1.0729756376948174E-005 F
     orb,it,eci,eold,eci-eold=                    4                   15 -0.80160151013604097      -0.80160013377014883       -1.3763658921472910E-006 F
     orb,it,eci,eold,eci-eold=                    4                   16 -0.80160203761489557      -0.80160151013604097       -5.2747885459503152E-007 F
     orb,it,eci,eold,eci-eold=                    4                   17 -0.80160888441542810      -0.80160203761489557       -6.8468005325339476E-006 F
     orb,it,eci,eold,eci-eold=                    4                   18 -0.80160923128204753      -0.80160888441542810       -3.4686661942728847E-007 F
     orb,it,eci,eold,eci-eold=                    4                   19 -0.80160956755432800      -0.80160923128204753       -3.3627228046562152E-007 F
     orb,it,eci,eold,eci-eold=                    4                   20 -0.80161442810929928      -0.80160956755432800       -4.8605549712865681E-006 F
     orb,it,eci,eold,eci-eold=                    4                   21 -0.80161608067109713      -0.80161442810929928       -1.6525617978491169E-006 F
     orb,it,eci,eold,eci-eold=                    4                   22 -0.80161638779544397      -0.80161608067109713       -3.0712434684332379E-007 F
     orb,it,eci,eold,eci-eold=                    4                   23 -0.80161993147719401      -0.80161638779544397       -3.5436817500400508E-006 F
     orb,it,eci,eold,eci-eold=                    4                   24 -0.80162123308561650      -0.80161993147719401       -1.3016084224881652E-006 F
     orb,it,eci,eold,eci-eold=                    4                   25 -0.80162164444031991      -0.80162123308561650       -4.1135470341124858E-007 F
     orb,it,eci,eold,eci-eold=                    4                   26 -0.80162479617838056      -0.80162164444031991       -3.1517380606471690E-006 F
     orb,it,eci,eold,eci-eold=                    4                   27 -0.80162585098228667      -0.80162479617838056       -1.0548039061086811E-006 F
     orb,it,eci,eold,eci-eold=                    4                   28 -0.80162600417352103      -0.80162585098228667       -1.5319123436441373E-007 F
     orb,it,eci,eold,eci-eold=                    4                   29 -0.80162811107359300      -0.80162600417352103       -2.1069000719631248E-006 F
     orb,it,eci,eold,eci-eold=                    4                   30 -0.80162871335096775      -0.80162811107359300       -6.0227737475049281E-007 F
     orb,it,eci,eold,eci-eold=                    4                   31 -0.80162887437066677      -0.80162871335096775       -1.6101969901871627E-007 F
     orb,it,eci,eold,eci-eold=                    4                   32 -0.80163090895066302      -0.80162887437066677       -2.0345799962573352E-006 F
     orb,it,eci,eold,eci-eold=                    4                   33 -0.80163160596040861      -0.80163090895066302       -6.9700974558717377E-007 F
     orb,it,eci,eold,eci-eold=                    4                   34 -0.80163179239435611      -0.80163160596040861       -1.8643394750217368E-007 F
     orb,it,eci,eold,eci-eold=                    4                   35 -0.80163360895805358      -0.80163179239435611       -1.8165636974654120E-006 F
     orb,it,eci,eold,eci-eold=                    4                   36 -0.80163462933675378      -0.80163360895805358       -1.0203787002005527E-006 F
     orb,it,eci,eold,eci-eold=                    4                   37 -0.80163566611652159      -0.80163462933675378       -1.0367797678156876E-006 F
     orb,it,eci,eold,eci-eold=                    4                   38 -0.80163623265877904      -0.80163566611652159       -5.6654225744079412E-007 F
     orb,it,eci,eold,eci-eold=                    4                   39 -0.80163720693166285      -0.80163623265877904       -9.7427288381357613E-007 F
     orb,it,eci,eold,eci-eold=                    4                   40 -0.80163773885095324      -0.80163720693166285       -5.3191929039186903E-007 F
     orb,it,eci,eold,eci-eold=                    4                   41 -0.80163841927244628      -0.80163773885095324       -6.8042149303781940E-007 F
     orb,it,eci,eold,eci-eold=                    4                   42 -0.80163842785737005      -0.80163841927244628       -8.5849237718704785E-009 F
     orb,it,eci,eold,eci-eold=                    4                   43 -0.80163856993633176      -0.80163842785737005       -1.4207896170681522E-007 F
     orb,it,eci,eold,eci-eold=                    4                   44 -0.80163920734719973      -0.80163856993633176       -6.3741086797630686E-007 F
     orb,it,eci,eold,eci-eold=                    4                   45 -0.80163931363088659      -0.80163920734719973       -1.0628368685150491E-007 F
     orb,it,eci,eold,eci-eold=                    4                   46 -0.80163931598016835      -0.80163931363088659       -2.3492817691206369E-009 F
     orb,it,eci,eold,eci-eold=                    4                   47 -0.80163975901719875      -0.80163931598016835       -4.4303703039538789E-007 F
     orb,it,eci,eold,eci-eold=                    4                   48 -0.80164002772319709      -0.80163975901719875       -2.6870599834083464E-007 F
     orb,it,eci,eold,eci-eold=                    4                   49 -0.80164011198092466      -0.80164002772319709       -8.4257727572811802E-008 F
     orb,it,eci,eold,eci-eold=                    4                   50 -0.80164048008224575      -0.80164011198092466       -3.6810132109099669E-007 F
     orb,it,eci,eold,eci-eold=                    4                   51 -0.80164058615492317      -0.80164048008224575       -1.0607267741935544E-007 F
     orb,it,eci,eold,eci-eold=                    4                   52 -0.80164062103209222      -0.80164058615492317       -3.4877169041713785E-008 F
     orb,it,eci,eold,eci-eold=                    4                   53 -0.80164090826956147      -0.80164062103209222       -2.8723746925418681E-007 F
     orb,it,eci,eold,eci-eold=                    4                   54 -0.80164099397720612      -0.80164090826956147       -8.5707644648103098E-008 F
     orb,it,eci,eold,eci-eold=                    4                   55 -0.80164100867641974      -0.80164099397720612       -1.4699213624069785E-008 F
     orb,it,eci,eold,eci-eold=                    4                   56 -0.80164124329504571      -0.80164100867641974       -2.3461862597162764E-007 F
[...]
    8    5    8    8       -0.0001467704
    8    5    9    8        0.0000191962
    8    5   10    8       -0.0000003475
    8    5   11    8       -0.0000899525
    8    5    9    9       -0.0001259695
    8    5   10    9       -0.0000000776
    8    5   11    9       -0.0000446359
    8    5   10   10       -0.0001467800
    8    5   11   10       -0.0436043360
    8    5   11   11       -0.0003375567
    9    5    9    5        0.1369259782
    9    5   10    5       -0.0000002267
    9    5   11    5       -0.0000000656
    9    5    6    6       -0.0004808661
    9    5    7    6       -0.0000131707
    9    5    8    6       -0.1119245641
    9    5    9    6       -0.0643553649
    9    5   10    6       -0.0000054423
    9    5   11    6        0.0000008605
    9    5    7    7       -0.0019395467
    9    5    8    7       -0.0000011120
    9    5    9    7       -0.0000005193
    9    5   10    7        0.0010432423
    9    5   11    7        0.0097086316
    9    5    8    8        0.0002464812
    9    5    9    8       -0.0000082230
    9    5   10    8        0.0000006049
    9    5   11    8        0.0001622043
    9    5    9    9        0.0002819438
    9    5   10    9        0.0000002787
    9    5   11    9        0.0001163814
    9    5   10   10        0.0002842574
    9    5   11   10        0.0843042671
    9    5   11   11        0.0006531595
   10    5   10    5        0.0144486651
   10    5   11    5       -0.0000037837
   10    5    6    6       -0.0000000054
   10    5    7    6        0.0000000008
   10    5    8    6        0.0000004706
   10    5    9    6       -0.0000003872
   10    5   10    6       -0.0000000005
   10    5   11    6       -0.0000000004
   10    5    7    7       -0.0000000035
   10    5    8    7       -0.0000519436
   10    5    9    7        0.0001004131
   10    5   10    7       -0.0000000029
   10    5   11    7       -0.0000013585
   10    5    8    8       -0.0000000631
   10    5    9    8        0.0000000431
   10    5   10    8       -0.0000186837
   10    5   11    8       -0.0037886535
   10    5    9    9        0.0000000376
   10    5   10    9        0.0000361345
   10    5   11    9        0.0073251766
   10    5   10   10       -0.0000000097
   10    5   11   10       -0.0000009074
   10    5   11   11        0.0000000179
   11    5   11    5        0.0095990570
   11    5    6    6        0.0000120942
   11    5    7    6       -0.0000000012
   11    5    8    6        0.0000000183
   11    5    9    6        0.0000000724
   11    5   10    6       -0.0000000004
   11    5   11    6        0.0000000533
   11    5    7    7        0.0000181449
   11    5    8    7       -0.0007398565
   11    5    9    7        0.0014328809
   11    5   10    7       -0.0000001462
   11    5   11    7       -0.0000000265
   11    5    8    8        0.0000048159
   11    5    9    8        0.0000063697
   11    5   10    8       -0.0031839618
   11    5   11    8        0.0000113037
   11    5    9    9        0.0000268901
   11    5   10    9        0.0061517321
   11    5   11    9       -0.0000218178
   11    5   10   10        0.0000133233
   11    5   11   10        0.0000000393
   11    5   11   11        0.0000165114
    6    6    6    6        0.2925586359
    6    6    7    6        0.0000002038
    6    6    8    6        0.0005680620
    6    6    9    6        0.0002937491
    6    6   10    6       -0.0000000583
    6    6   11    6       -0.0001369547
    6    6    7    7        0.2753212082
    6    6    8    7        0.0000031518
    6    6    9    7        0.0000015193
    6    6   10    7        0.0011411904
    6    6   11    7       -0.0001548515
    6    6    8    8        0.2974958431
    6    6    9    8        0.0104814340
    6    6   10    8        0.0000015406
    6    6   11    8       -0.0000008855
    6    6    9    9        0.2829816783
    6    6   10    9        0.0000007317
    6    6   11    9       -0.0000005516
    6    6   10   10        0.2891001498
    6    6   11   10       -0.0000520449
    6    6   11   11        0.2874639823
    7    6    7    6        0.0137692575
    7    6    8    6        0.0000145565
    7    6    9    6        0.0000074971
    7    6   10    6        0.0007068983
    7    6   11    6       -0.0000422714
    7    6    7    7        0.0000003622
    7    6    8    7        0.0001877647
    7    6    9    7        0.0000972060
    7    6   10    7       -0.0000001140
    7    6   11    7       -0.0000169500
    7    6    8    8        0.0000002933
    7    6    9    8        0.0000000963
    7    6   10    8       -0.0000941174
    7    6   11    8       -0.0019262030
    7    6    9    9        0.0000001364
    7    6   10    9       -0.0000487066
    7    6   11    9       -0.0009982373
    7    6   10   10        0.0000000877
    7    6   11   10        0.0000068624
    7    6   11   11        0.0000000675
    8    6    8    6        0.1368780905
    8    6    9    6        0.0643498210
    8    6   10    6        0.0000060778
    8    6   11    6       -0.0000009446
    8    6    7    7        0.0019396827
    8    6    8    7        0.0000012314
    8    6    9    7        0.0000005304
    8    6   10    7       -0.0010430235
    8    6   11    7       -0.0097005020
    8    6    8    8       -0.0002835208
    8    6    9    8       -0.0000126554
    8    6   10    8       -0.0000006808
    8    6   11    8       -0.0001922339
    8    6    9    9       -0.0002442357
    8    6   10    9       -0.0000002869
    8    6   11    9       -0.0001137631
    8    6   10   10       -0.0002836167
    8    6   11   10       -0.0842824526
    8    6   11   11       -0.0006523935
    9    6    9    6        0.0460983889
    9    6   10    6        0.0000031259
    9    6   11    6       -0.0000004919
    9    6    7    7        0.0010032269
    9    6    8    7        0.0000006290
    9    6    9    7        0.0000002699
    9    6   10    7       -0.0005395638
    9    6   11    7       -0.0050224520
    9    6    8    8       -0.0001278461
    9    6    9    8       -0.0000211949
    9    6   10    8       -0.0000003433
    9    6   11    8       -0.0000932367
    9    6    9    9       -0.0001457334
    9    6   10    9       -0.0000001531
    9    6   11    9       -0.0000747654
    9    6   10   10       -0.0001469600
    9    6   11   10       -0.0436017917
    9    6   11   11       -0.0003377717
   10    6   10    6        0.0144429885
   10    6   11    6       -0.0000040582
   10    6    7    7        0.0000000109
   10    6    8    7       -0.0001003941
   10    6    9    7       -0.0000519341
   10    6   10    7       -0.0000000646
   10    6   11    7        0.0000126964
   10    6    8    8       -0.0000002020
   10    6    9    8       -0.0000000526
   10    6   10    8       -0.0000361056
   10    6   11    8       -0.0073216653
   10    6    9    9       -0.0000001152
   10    6   10    9       -0.0000186844
   10    6   11    9       -0.0037881517
   10    6   10   10       -0.0000001247
   10    6   11   10        0.0000024848
   10    6   11   11       -0.0000002732
   11    6   11    6        0.0095947597
   11    6    7    7       -0.0001847432
   11    6    8    7       -0.0014308897
   11    6    9    7       -0.0007414553
   11    6   10    7        0.0000003693
   11    6   11    7        0.0000001146
   11    6    8    8       -0.0001647072
   11    6    9    8       -0.0000113882
   11    6   10    8       -0.0061524068
   11    6   11    8        0.0000218419
   11    6    9    9       -0.0001520951
   11    6   10    9       -0.0031809544
   11    6   11    9        0.0000112801
   11    6   10   10       -0.0001312432
   11    6   11   10       -0.0000000224
   11    6   11   11       -0.0001637433
    7    7    7    7        0.3119433703
    7    7    8    7        0.0000006122
    7    7    9    7        0.0000002475
    7    7   10    7        0.0014592223
    7    7   11    7       -0.0002186214
    7    7    8    8        0.2870035533
    7    7    9    8       -0.0000000309
    7    7   10    8        0.0000000363
    7    7   11    8       -0.0000032276
    7    7    9    9        0.2870202245
    7    7   10    9       -0.0000000034
    7    7   11    9       -0.0000020898
    7    7   10   10        0.2971606849
    7    7   11   10       -0.0011409751
    7    7   11   11        0.3038097339
    8    7    8    7        0.0149796999
    8    7    9    7       -0.0000000034
    8    7   10    7       -0.0000001284
    8    7   11    7       -0.0000003671
    8    7    8    8        0.0000013741
    8    7    9    8        0.0000001161
    8    7   10    8        0.0006561949
    8    7   11    8       -0.0000304495
    8    7    9    9        0.0000010185
    8    7   10    9        0.0000000014
    8    7   11    9        0.0000000297
    8    7   10   10        0.0000011116
    8    7   11   10       -0.0000006758
    8    7   11   11        0.0000152484
    9    7    9    7        0.0149913721
    9    7   10    7       -0.0000000516
    9    7   11    7       -0.0000002173
    9    7    8    8        0.0000004620
    9    7    9    8        0.0000001758
    9    7   10    8        0.0000000010
    9    7   11    8        0.0000000303
    9    7    9    9        0.0000005193
    9    7   10    9        0.0006457820
    9    7   11    9       -0.0000306461
    9    7   10   10        0.0000004615
    9    7   11   10       -0.0000002477
    9    7   11   11        0.0000094698
   10    7   10    7        0.0145354014
   10    7   11    7       -0.0000757983
   10    7    8    8        0.0011107356
   10    7    9    8        0.0000000180
   10    7   10    8        0.0000000667
   10    7   11    8        0.0000014876
   10    7    9    9        0.0011034673
   10    7   10    9        0.0000000320
   10    7   11    9        0.0000009848
   10    7   10   10       -0.0002194614
   10    7   11   10        0.0008906231
   10    7   11   11        0.0062042795
   11    7   11    7        0.0199637170
   11    7    8    8       -0.0000990059
   11    7    9    8        0.0000001721
   11    7   10    8        0.0000001215
   11    7   11    8        0.0000270522
   11    7    9    9       -0.0000992729
   11    7   10    9        0.0000000862
   11    7   11    9        0.0000172962
   11    7   10   10        0.0000313816
   11    7   11   10        0.0114473771
   11    7   11   11       -0.0000976307
    8    8    8    8        0.3150023892
    8    8    9    8       -0.0000008847
    8    8   10    8        0.0000004292
    8    8   11    8        0.0000002557
    8    8    9    9        0.2879069286
    8    8   10    9        0.0000001253
    8    8   11    9        0.0000001546
    8    8   10   10        0.2985367588
    8    8   11   10        0.0005180131
    8    8   11   11        0.2973612718
    9    8    9    8        0.0141618236
    9    8   10    8        0.0000000514
    9    8   11    8        0.0000000147
    9    8    9    9        0.0000009102
    9    8   10    9        0.0000000679
    9    8   11    9        0.0000000183
    9    8   10   10        0.0000000077
    9    8   11   10        0.0000014752
    9    8   11   11       -0.0000002403
   10    8   10    8        0.0154837167
   10    8   11    8        0.0000461190
   10    8    9    9        0.0000002912
   10    8   10    9        0.0000000006
   10    8   11    9        0.0000001199
   10    8   10   10        0.0000004245
   10    8   11   10        0.0000003877
   10    8   11   11        0.0000618806
   11    8   11    8        0.0103645052
   11    8    9    9        0.0000002233
   11    8   10    9        0.0000001199
   11    8   11    9       -0.0000002983
   11    8   10   10        0.0000003086
   11    8   11   10        0.0001612243
   11    8   11   11        0.0000011181
    9    9    9    9        0.3150093071
    9    9   10    9        0.0000001257
    9    9   11    9        0.0000001724
    9    9   10   10        0.2985249839
    9    9   11   10        0.0005167668
    9    9   11   11        0.2973537218
   10    9   10    9        0.0154683324
   10    9   11    9        0.0000461663
   10    9   10   10        0.0000001580
   10    9   11   10        0.0000001351
   10    9   11   11        0.0000398166
   11    9   11    9        0.0103658254
   11    9   10   10        0.0000001922
   11    9   11   10        0.0001045608
   11    9   11   11        0.0000007352
   10   10   10   10        0.3370265436
   10   10   11   10        0.0006532967
   10   10   11   11        0.3351244696
   11   10   11   10        0.0917896603
   11   10   11   11        0.0010604574
   11   11   11   11        0.3497329821
 end_two_electron_integrals


 output epsi filename:./pspw_hf_H2.emovecs

 Total PSPW energy     :  -0.7998858663E+00


=== Spin Contamination ===

 <Sexact^2> =    0.0000000000000000     
 <S^2>      =    0.0000000000000000     



== Center of Charge ==

spin up     (    0.0000,    0.0000,    0.0034 )
spin down   (    0.0000,    0.0000,    0.0034 )
     total  (    0.0000,    0.0000,    0.0034 )
ionic       (    0.0000,    0.0000,    0.0000 )


== Molecular Dipole wrt Center of Mass ==

mu   =  (   -0.0000,   -0.0000,   -0.0068 ) au
|mu| =     0.0068 au,       0.0173 Debye

 output psi filename:./pspw_hf_H2.movecs

 Writing Crystallographic Information File:./H2.cif
   - cell not shifted (nwpw:cif_shift_cell .false.)


== Timing ==

cputime in seconds
  prologue    :   0.593313E+01
  main loop   :   0.357772E+03
  epilogue    :   0.164028E-01
  total       :   0.363722E+03
  cputime/step:   0.257390E+01       (     139 evalulations,      58 linesearches)


Time spent doing                        total          step       percent
  total time                 :   0.363732E+03  0.261678E+01       100.0 %
  i/o time                   :   0.261815E+00  0.188356E-02         0.1 %
  FFTs                       :   0.254885E+03  0.183371E+01        70.1 %
  dot products               :   0.913066E+01  0.656882E-01         2.5 %
  geodesic                   :   0.524986E-01  0.377688E-03         0.0 %
  ffm_dgemm                  :   0.723625E-02  0.520594E-04         0.0 %
  fmf_dgemm                  :   0.636689E-02  0.458050E-04         0.0 %
  mmm_dgemm                  :   0.241969E-02  0.174079E-04         0.0 %
  m_diagonalize              :   0.119723E-02  0.861316E-05         0.0 %
  local pseudopotentials     :   0.570563E+01  0.410477E-01         1.6 %
  non-local pseudopotentials :   0.844364E+01  0.607456E-01         2.3 %
  structure factors          :   0.528646E+00  0.380321E-02         0.1 %
  phase factors              :   0.868900E-05  0.625108E-07         0.0 %
  masking and packing        :   0.597582E+01  0.429915E-01         1.6 %
  queue fft                  :   0.780014E+01  0.561161E-01         2.1 %
  queue fft (serial)         :   0.293129E+01  0.210884E-01         0.8 %
  queue fft (message passing):   0.483285E+01  0.347687E-01         1.3 %
  HFX potential              :   0.318989E+01  0.229489E-01         0.9 %
  non-local psp FFM          :   0.798541E+01  0.574490E-01         2.2 %
  non-local psp FMF          :   0.100694E+00  0.724417E-03         0.0 %
  non-local psp FFM A        :   0.421671E-01  0.303360E-03         0.0 %
  non-local psp FFM B        :   0.136167E+00  0.979619E-03         0.0 %

== HFX Counters ==
  HFX Evalulations         =   139
  Lin ACE HFX Evalulations =     0


     >>>  JOB COMPLETED     AT Mon Apr 14 16:08:04 2025  <<<

 Task  times  cpu:      336.8s     wall:      363.8s


                                NWChem Input Module
                                -------------------


 Summary of allocated global arrays
-----------------------------------
  No active global arrays


MA_summarize_allocated_blocks: starting scan ...
MA_summarize_allocated_blocks: scan completed: 0 heap blocks, 0 stack blocks
MA usage statistics:

	allocation statistics:
					      heap	     stack
					      ----	     -----
	current number of blocks	         0	         0
	maximum number of blocks	       313	        36
	current total bytes		         0	         0
	maximum total bytes		  16366088	   5334712
	maximum total K-bytes		     16367	      5335
	maximum total M-bytes		        17	         6


                                     CITATION
                                     --------
                Please cite the following reference when publishing
                           results obtained with NWChem:

          E. Apra, E. J. Bylaska, W. A. de Jong, N. Govind, K. Kowalski,
       T. P. Straatsma, M. Valiev, H. J. J. van Dam, Y. Alexeev, J. Anchell,
       V. Anisimov, F. W. Aquino, R. Atta-Fynn, J. Autschbach, N. P. Bauman,
     J. C. Becca, D. E. Bernholdt, K. Bhaskaran-Nair, S. Bogatko, P. Borowski,
         J. Boschen, J. Brabec, A. Bruner, E. Cauet, Y. Chen, G. N. Chuev,
      C. J. Cramer, J. Daily, M. J. O. Deegan, T. H. Dunning Jr., M. Dupuis,
   K. G. Dyall, G. I. Fann, S. A. Fischer, A. Fonari, H. Fruchtl, L. Gagliardi,
      J. Garza, N. Gawande, S. Ghosh, K. Glaesemann, A. W. Gotz, J. Hammond,
       V. Helms, E. D. Hermes, K. Hirao, S. Hirata, M. Jacquelin, L. Jensen,
   B. G. Johnson, H. Jonsson, R. A. Kendall, M. Klemm, R. Kobayashi, V. Konkov,
      S. Krishnamoorthy, M. Krishnan, Z. Lin, R. D. Lins, R. J. Littlefield,
      A. J. Logsdail, K. Lopata, W. Ma, A. V. Marenich, J. Martin del Campo,
   D. Mejia-Rodriguez, J. E. Moore, J. M. Mullin, T. Nakajima, D. R. Nascimento,
    J. A. Nichols, P. J. Nichols, J. Nieplocha, A. Otero-de-la-Roza, B. Palmer,
    A. Panyala, T. Pirojsirikul, B. Peng, R. Peverati, J. Pittner, L. Pollack,
   R. M. Richard, P. Sadayappan, G. C. Schatz, W. A. Shelton, D. W. Silverstein,
   D. M. A. Smith, T. A. Soares, D. Song, M. Swart, H. L. Taylor, G. S. Thomas,
            V. Tipparaju, D. G. Truhlar, K. Tsemekhman, T. Van Voorhis,
      A. Vazquez-Mayagoitia, P. Verma, O. Villa, A. Vishnu, K. D. Vogiatzis,
        D. Wang, J. H. Weare, M. J. Williamson, T. L. Windus, K. Wolinski,
        A. T. Wong, Q. Wu, C. Yang, Q. Yu, M. Zacharias, Z. Zhang, Y. Zhao,
                                and R. J. Harrison
                        "NWChem: Past, present, and future
                         J. Chem. Phys. 152, 184102 (2020)
                               doi:10.1063/5.0004997

                                      AUTHORS
                                      -------
  E. Apra, E. J. Bylaska, N. Govind, K. Kowalski, M. Valiev, D. Mejia-Rodriguez,
       A. Kunitsa, N. P. Bauman, A. Panyala, W. A. de Jong, T. P. Straatsma,
   H. J. J. van Dam, D. Wang, T. L. Windus, J. Hammond, J. Autschbach, A. Woods,
    K. Bhaskaran-Nair, J. Brabec, K. Lopata, S. A. Fischer, S. Krishnamoorthy,
     M. Jacquelin, W. Ma, M. Klemm, O. Villa, Y. Chen, V. Anisimov, F. Aquino,
     S. Hirata, M. T. Hackler, E. Hermes, L. Jensen, J. E. Moore, J. C. Becca,
      V. Konjkov, T. Risthaus, M. Malagoli, A. Marenich, A. Otero-de-la-Roza,
        J. Mullin, P. Nichols, R. Peverati, J. Pittner, Y. Zhao, P.-D. Fan,
        A. Fonari, M. J. Williamson, R. J. Harrison, J. R. Rehr, M. Dupuis,
     D. Silverstein, D. M. A. Smith, J. Nieplocha, V. Tipparaju, M. Krishnan,
     B. E. Van Kuiken, A. Vazquez-Mayagoitia, M. Swart, Q. Wu, T. Van Voorhis,
     A. A. Auer, M. Nooijen, L. D. Crosby, E. Brown, G. Cisneros, G. I. Fann,
   H. Fruchtl, J. Garza, K. Hirao, R. A. Kendall, J. A. Nichols, K. Tsemekhman,
    K. Wolinski, J. Anchell, D. E. Bernholdt, P. Borowski, T. Clark, D. Clerc,
   H. Dachsel, M. J. O. Deegan, K. Dyall, D. Elwood, E. Glendening, M. Gutowski,
   A. C. Hess, J. Jaffe, B. G. Johnson, J. Ju, R. Kobayashi, R. Kutteh, Z. Lin,
   R. Littlefield, X. Long, B. Meng, T. Nakajima, S. Niu, L. Pollack, M. Rosing,
   K. Glaesemann, G. Sandrone, M. Stave, H. Taylor, G. Thomas, J. H. van Lenthe,
                               A. T. Wong, Z. Zhang.

 Total times  cpu:      336.8s     wall:      363.8s
