 argument  1 = H2-5.0.nw



============================== echo of input deck ==============================
title "swnc: e theory=pspw4 xc=hf formula=H2 charge=0 mult=1"
#machinejob:expert

echo

start pspw_hf_H2

memory heap 1200 mb stack 1200 mb global 10 mb

charge 0

geometry
H    0.00000    0.00000   -2.50000
H    0.00000    0.00000    2.50000
end

nwpw
  ### pseudopotential block begin ###
  ### pseudopotential block end   ###
  simulation_cell
     SC 20.0000
     boundary_conditions aperiodic
  end

  cutoff 50.0
  mult 1
  xc hf
  lmbfgs
  tolerances 1.0e-9 1.0e-9

  virtual 10
end
set nwpw:cif_filename H2

#set nwpw:CI_maxit_orb 15
#set nwpw:CI_maxit_linesearch 15
set pspw:HFX_screening_radius 14.0


set nwpw:2qintegrals .true.
set nwpw:3x3_virtual .true.

task pspw energy

================================================================================


                                         
                                         


             Northwest Computational Chemistry Package (NWChem) 7.2.3
             --------------------------------------------------------


                    Environmental Molecular Sciences Laboratory
                       Pacific Northwest National Laboratory
                                Richland, WA 99352

                              Copyright (c) 1994-2022
                       Pacific Northwest National Laboratory
                            Battelle Memorial Institute

             NWChem is an open-source computational chemistry package
                        distributed under the terms of the
                      Educational Community License (ECL) 2.0
             A copy of the license is included with this distribution
                              in the LICENSE.TXT file

                                  ACKNOWLEDGMENT
                                  --------------

            This software and its documentation were developed at the
            EMSL at Pacific Northwest National Laboratory, a multiprogram
            national laboratory, operated for the U.S. Department of Energy
            by Battelle under Contract Number DE-AC05-76RL01830. Support
            for this work was provided by the Department of Energy Office
            of Biological and Environmental Research, Office of Basic
            Energy Sciences, and the Office of Advanced Scientific Computing.


           Job information
           ---------------

    hostname        = mqs-al
    program         = nwchem
    date            = Wed Apr 23 09:55:51 2025

    compiled        = Thu_Oct_31_08:55:15_2024
    source          = /home/conda/feedstock_root/build_artifacts/nwchem_1730356057992/work
    nwchem branch   = 7.2.3
    nwchem revision = c400b04
    ga revision     = 5.8.0
    use scalapack   = T
    input           = H2-5.0.nw
    prefix          = pspw_hf_H2.
    data base       = ./pspw_hf_H2.db
    status          = startup
    nproc           =       24
    time left       =     -1s



           Memory information
           ------------------

    heap     =  157286394 doubles =   1200.0 Mbytes
    stack    =  157286399 doubles =   1200.0 Mbytes
    global   =    1310720 doubles =     10.0 Mbytes (distinct from heap & stack)
    total    =  315883513 doubles =   2410.0 Mbytes
    verify   = yes
    hardfail = no 


           Directory information
           ---------------------

  0 permanent = .
  0 scratch   = .




                                NWChem Input Module
                                -------------------


               swnc: e theory=pspw4 xc=hf formula=H2 charge=0 mult=1
               -----------------------------------------------------

 Scaling coordinates for geometry "geometry" by  1.889725989
 (inverse scale =  0.529177249)

  zeroes
  zeroes
  zeroes
  zeroes
  zeroes
  zeroes
  zeroes
  zeroes
  zeroes
  zeroes
  zeroes
  zeroes
  zeroes
  zeroes
  zeroes
  zeroes
  zeroes
  zeroes
  zeroes
  zeroes
  zeroes
  zeroes
  zeroes
  zeroes
  zeroes
  zeroes
  zeroes
  zeroes
  zeroes
  zeroes
  zeroes
  zeroes
  zeroes
  zeroes
  zeroes
  zeroes
  zeroes
  zeroes
  zeroes
  zeroes
  zeroes
  zeroes
  zeroes
  zeroes
  zeroes
  zeroes
  zeroes
  zeroes
 ORDER OF PRIMARY AXIS IS BEING SET TO 4
 D4H symmetry detected

          ------
          auto-z
          ------
     1 autoz failed with cvr_scaling = 1.2 changing to 1.3
     2 autoz failed with cvr_scaling = 1.3 changing to 1.4
     3 autoz failed with cvr_scaling = 1.4 changing to 1.5
     4 autoz failed with cvr_scaling = 1.5 changing to 1.6
     5 autoz failed with cvr_scaling = 1.6 changing to 1.7

 AUTOZ failed to generate good internal coordinates.
 Cartesian coordinates will be used in optimizations.



                             Geometry "geometry" -> ""
                             -------------------------

 Output coordinates in angstroms (scale by  1.889725989 to convert to a.u.)

  No.       Tag          Charge          X              Y              Z
 ---- ---------------- ---------- -------------- -------------- --------------
    1 H                    1.0000     0.00000000     0.00000000    -2.50000000
    2 H                    1.0000     0.00000000     0.00000000     2.50000000

      Atomic Mass 
      ----------- 

      H                  1.007825


 Effective nuclear repulsion energy (a.u.)       0.1058354498

            Nuclear Dipole moment (a.u.) 
            ----------------------------
        X                 Y               Z
 ---------------- ---------------- ----------------
     0.0000000000     0.0000000000     0.0000000000

      Symmetry information
      --------------------

 Group name             D4h       
 Group number             28
 Group order              16
 No. of unique centers     1

      Symmetry unique atoms

     1


            XYZ format geometry
            -------------------
     2
 geometry
 H                     0.00000000     0.00000000    -2.50000000
 H                     0.00000000     0.00000000     2.50000000

          ****************************************************
          *                                                  *
          *               NWPW PSPW Calculation              *
          *                                                  *
          * [ (Grassmann/Stiefel manifold implementation)  ] *
          *                                                  *
          *      [ NorthWest Chemistry implementation ]      *
          *                                                  *
          *            version #5.10   06/12/02              *
          *                                                  *
          *    This code was developed by Eric J. Bylaska,   *
          *    and was based upon algorithms and code        *
          *    developed by the group of Prof. John H. Weare *
          *                                                  *
          ****************************************************
     >>>  JOB STARTED       AT Wed Apr 23 09:55:51 2025  <<<
          ================ input data ========================

 input psi filename:./pspw_hf_H2.movecs

 number of processors used:        24
 processor grid           :  24 x   1
 parallel mapping         :2d-hilbert
 parallel mapping         :  balanced
 number of threads        :         1
 parallel io              :       off

 options:
      boundary conditions  = aperiodic   (version4)
      electron spin        = restricted
      exchange-correlation = Hartree-Fock
      - HFX relaxed
      - HFX restricted orbitals :    1
      - HFX free-space coulomb solver


 elements involved in the cluster:
      1: H   valence charge:  1.0000  lmax=  1
             comment    : Parameterized (Chem.Phys.Lett., vol 322, page 447) Hamman psp
             pseudpotential type            :   0
             highest angular component      :   1
             local potential used           :   1
             number of non-local projections:   1
             aperiodic cutoff radius        :  1.000
             cutoff =   0.800   0.800


 total charge:   0.000

 atomic composition:
     H   :    2

 number of electrons: spin up=     1 (   1 per task)  down=     1 (   1 per task) (Fourier space)
 number of orbitals : spin up=     1 (   1 per task)  down=     1 (   1 per task) (Fourier space)

 supercell:
      cell_name:  cell_default                                      
      lattice:    a1=<  20.000   0.000   0.000 >
                  a2=<   0.000  20.000   0.000 >
                  a3=<   0.000   0.000  20.000 >
      reciprocal: b1=<   0.314   0.000   0.000 >
                  b2=<   0.000   0.314   0.000 >
                  b3=<   0.000   0.000   0.314 >
      lattice:    a=      20.000 b=     20.000 c=      20.000
                  alpha=  90.000 beta=  90.000 gamma=  90.000
                  omega=      8000.0

      density cutoff=100.000  fft= 96x 96x 96(   191162 waves     7965 per task)
      wavefnc cutoff= 50.000  fft= 96x 96x 96(    67522 waves     2813 per task)

 technical parameters:
      time step=      5.80     fictitious mass=  400000.0
      tolerance=0.100E-08 (energy)   0.100E-08 (density)
      maximum iterations =      1000 (   10 inner    100 outer )





== Energy Calculation ==


          ============ Grassmann lmbfgs iteration ============
     >>>  ITERATION STARTED AT Wed Apr 23 09:55:58 2025  <<<
    iter.           Energy         DeltaE       DeltaRho 
    ------------------------------------------------------
      10   -0.7676402498E+00   -0.14513E-02    0.72788E-02
     -  10 steepest descent iterations performed
      20   -0.7721016226E+00   -0.13443E-03    0.47818E-04
      30   -0.7724062320E+00   -0.78570E-05    0.39483E-05
      40   -0.7724284153E+00   -0.47955E-06    0.12527E-06
      50   -0.7724301578E+00   -0.27285E-07    0.84817E-08
      60   -0.7724302581E+00   -0.28344E-08    0.13525E-09
      70   -0.7724302640E+00   -0.59819E-09    0.67767E-11
  *** tolerance ok. iteration terminated
     >>>  ITERATION ENDED   AT Wed Apr 23 09:56:20 2025  <<<


==  Summary Of Results  ==

 number of electrons: spin up=    1.00000  down=    1.00000 (real space)

 total     energy    :  -0.7724302640E+00 (   -0.38622E+00/ion)
 total orbital energy:  -0.5738693199E+00 (   -0.57387E+00/electron)
 hartree   energy    :   0.6087927876E+00 (    0.60879E+00/electron)
 exc-corr  energy    :   0.0000000000E+00 (    0.00000E+00/electron)
 HF exchange energy  :  -0.3043963938E+00 (   -0.30440E+00/electron)
 ion-ion   energy    :   0.1058354498E+00 (    0.52918E-01/ion)

 kinetic (planewave) :   0.6598876592E+00 (    0.65989E+00/electron)
 V_local (planewave) :  -0.1689842634E+01 (   -0.16898E+01/electron)
 V_nl    (planewave) :  -0.1527071324E+00 (   -0.15271E+00/electron)
 V_Coul  (planewave) :   0.1217585575E+01 (    0.12176E+01/electron)
 V_xc.   (planewave) :   0.0000000000E+00 (    0.00000E+00/electron)
 K.S. HFX energy     :  -0.6087927876E+00 (   -0.60879E+00/electron)
 Virial Coefficient  :  -0.9470766468E+00

 orbital energies:
    -0.2869347E+00 (  -7.808eV)


== Virtual Orbital Calculation ==


 input epsi filename:./pspw_hf_H2.emovecs

 COVOs Mimimization
 ------------------
CI gradient algorithm =         3
maxit_sweeps          =         3
maxit_orb             =       120
maxit_linesearch      =        15
maxerror              = 0.100E-08

     orb,it,eci,eold,eci-eold=                    1                    1 -0.93313504814497583      -0.91168304791110455       -2.1452000233871282E-002 F
     orb,it,eci,eold,eci-eold=                    1                    2 -0.94643723954634362      -0.93313504814497583       -1.3302191401367791E-002 F
     orb,it,eci,eold,eci-eold=                    1                    3 -0.94888474258221733      -0.94643723954634362       -2.4475030358737104E-003 F
     orb,it,eci,eold,eci-eold=                    1                    4 -0.95368725683990241      -0.94888474258221733       -4.8025142576850754E-003 F
     orb,it,eci,eold,eci-eold=                    1                    5 -0.95867463444784040      -0.95368725683990241       -4.9873776079379928E-003 F
     orb,it,eci,eold,eci-eold=                    1                    6 -0.95877906661530976      -0.95867463444784040       -1.0443216746935935E-004 F
     orb,it,eci,eold,eci-eold=                    1                    7 -0.95882909605785493      -0.95877906661530976       -5.0029442545174163E-005 F
     orb,it,eci,eold,eci-eold=                    1                    8 -0.96432711148694972      -0.95882909605785493       -5.4980154290947825E-003 F
     orb,it,eci,eold,eci-eold=                    1                    9 -0.96649726853886597      -0.96432711148694972       -2.1701570519162550E-003 F
     orb,it,eci,eold,eci-eold=                    1                   10 -0.96723550774140887      -0.96649726853886597       -7.3823920254290076E-004 F
     orb,it,eci,eold,eci-eold=                    1                   11 -0.96811387516716874      -0.96723550774140887       -8.7836742575986282E-004 F
     orb,it,eci,eold,eci-eold=                    1                   12 -0.97007317459932074      -0.96811387516716874       -1.9592994321520063E-003 F
     orb,it,eci,eold,eci-eold=                    1                   13 -0.97109599174442474      -0.97007317459932074       -1.0228171451039936E-003 F
     orb,it,eci,eold,eci-eold=                    1                   14 -0.97202530546911803      -0.97109599174442474       -9.2931372469329254E-004 F
     orb,it,eci,eold,eci-eold=                    1                   15 -0.97249225602449263      -0.97202530546911803       -4.6695055537460117E-004 F
     orb,it,eci,eold,eci-eold=                    1                   16 -0.97348580499259951      -0.97249225602449263       -9.9354896810688320E-004 F
     orb,it,eci,eold,eci-eold=                    1                   17 -0.97373350205092368      -0.97348580499259951       -2.4769705832416999E-004 F
     orb,it,eci,eold,eci-eold=                    1                   18 -0.97392448757425998      -0.97373350205092368       -1.9098552333629559E-004 F
     orb,it,eci,eold,eci-eold=                    1                   19 -0.97431837089428308      -0.97392448757425998       -3.9388332002310289E-004 F
     orb,it,eci,eold,eci-eold=                    1                   20 -0.97432340206289136      -0.97431837089428308       -5.0311686082826768E-006 F
     orb,it,eci,eold,eci-eold=                    1                   21 -0.97453668452719577      -0.97432340206289136       -2.1328246430440956E-004 F
     orb,it,eci,eold,eci-eold=                    1                   22 -0.97517937470324290      -0.97453668452719577       -6.4269017604712264E-004 F
     orb,it,eci,eold,eci-eold=                    1                   23 -0.97552837336456211      -0.97517937470324290       -3.4899866131921087E-004 F
     orb,it,eci,eold,eci-eold=                    1                   24 -0.97577298498076082      -0.97552837336456211       -2.4461161619870886E-004 F
     orb,it,eci,eold,eci-eold=                    1                   25 -0.97590549895558132      -0.97577298498076082       -1.3251397482050287E-004 F
     orb,it,eci,eold,eci-eold=                    1                   26 -0.97627855151938525      -0.97590549895558132       -3.7305256380393281E-004 F
     orb,it,eci,eold,eci-eold=                    1                   27 -0.97649978365860357      -0.97627855151938525       -2.2123213921831919E-004 F
     orb,it,eci,eold,eci-eold=                    1                   28 -0.97669357717017458      -0.97649978365860357       -1.9379351157100544E-004 F
     orb,it,eci,eold,eci-eold=                    1                   29 -0.97678075154573063      -0.97669357717017458       -8.7174375556053896E-005 F
     orb,it,eci,eold,eci-eold=                    1                   30 -0.97695602547899152      -0.97678075154573063       -1.7527393326088880E-004 F
     orb,it,eci,eold,eci-eold=                    1                   31 -0.97699252419000127      -0.97695602547899152       -3.6498711009746998E-005 F
     orb,it,eci,eold,eci-eold=                    1                   32 -0.97703015242902902      -0.97699252419000127       -3.7628239027753807E-005 F
     orb,it,eci,eold,eci-eold=                    1                   33 -0.97718152598201613      -0.97703015242902902       -1.5137355298711075E-004 F
     orb,it,eci,eold,eci-eold=                    1                   34 -0.97719115721100092      -0.97718152598201613       -9.6312289847855226E-006 F
     orb,it,eci,eold,eci-eold=                    1                   35 -0.97720013751470092      -0.97719115721100092       -8.9803037000013575E-006 F
     orb,it,eci,eold,eci-eold=                    1                   36 -0.97732796849230108      -0.97720013751470092       -1.2783097760016293E-004 F
     orb,it,eci,eold,eci-eold=                    1                   37 -0.97736057821404909      -0.97732796849230108       -3.2609721748011467E-005 F
     orb,it,eci,eold,eci-eold=                    1                   38 -0.97737225392293636      -0.97736057821404909       -1.1675708887270986E-005 F
     orb,it,eci,eold,eci-eold=                    1                   39 -0.97743846816027591      -0.97737225392293636       -6.6214237339545789E-005 F
     orb,it,eci,eold,eci-eold=                    1                   40 -0.97744965484189761      -0.97743846816027591       -1.1186681621699890E-005 F
     orb,it,eci,eold,eci-eold=                    1                   41 -0.97745767331018252      -0.97744965484189761       -8.0184682849093747E-006 F
     orb,it,eci,eold,eci-eold=                    1                   42 -0.97752494351476726      -0.97745767331018252       -6.7270204584746196E-005 F
     orb,it,eci,eold,eci-eold=                    1                   43 -0.97755785654326421      -0.97752494351476726       -3.2913028496950325E-005 F
     orb,it,eci,eold,eci-eold=                    1                   44 -0.97756765254447597      -0.97755785654326421       -9.7960012117592754E-006 F
     orb,it,eci,eold,eci-eold=                    1                   45 -0.97761799641000358      -0.97756765254447597       -5.0343865527602283E-005 F
     orb,it,eci,eold,eci-eold=                    1                   46 -0.97763405962039518      -0.97761799641000358       -1.6063210391603633E-005 F
     orb,it,eci,eold,eci-eold=                    1                   47 -0.97763945933585383      -0.97763405962039518       -5.3997154586538088E-006 F
     orb,it,eci,eold,eci-eold=                    1                   48 -0.97767886655460667      -0.97763945933585383       -3.9407218752840478E-005 F
     orb,it,eci,eold,eci-eold=                    1                   49 -0.97768918207994882      -0.97767886655460667       -1.0315525342141640E-005 F
     orb,it,eci,eold,eci-eold=                    1                   50 -0.97769106840030762      -0.97768918207994882       -1.8863203588015409E-006 F
     orb,it,eci,eold,eci-eold=                    1                   51 -0.97772641082273926      -0.97769106840030762       -3.5342422431638987E-005 F
     orb,it,eci,eold,eci-eold=                    1                   52 -0.97774836026157863      -0.97772641082273926       -2.1949438839374835E-005 F
     orb,it,eci,eold,eci-eold=                    1                   53 -0.97775380060047468      -0.97774836026157863       -5.4403388960455601E-006 F
     orb,it,eci,eold,eci-eold=                    1                   54 -0.97777804819181990      -0.97775380060047468       -2.4247591345227804E-005 F
     orb,it,eci,eold,eci-eold=                    1                   55 -0.97778586882113594      -0.97777804819181990       -7.8206293160354434E-006 F
     orb,it,eci,eold,eci-eold=                    1                   56 -0.97779035462883224      -0.97778586882113594       -4.4858076962972504E-006 F
     orb,it,eci,eold,eci-eold=                    1                   57 -0.97781583762844482      -0.97779035462883224       -2.5482999612580493E-005 F
     orb,it,eci,eold,eci-eold=                    1                   58 -0.97782236711266490      -0.97781583762844482       -6.5294842200858128E-006 F
     orb,it,eci,eold,eci-eold=                    1                   59 -0.97782244071550850      -0.97782236711266490       -7.3602843597697643E-008 F
     orb,it,eci,eold,eci-eold=                    1                   60 -0.97784209486927631      -0.97782244071550850       -1.9654153767811877E-005 F
     orb,it,eci,eold,eci-eold=                    1                   61 -0.97785535912068133      -0.97784209486927631       -1.3264251405020744E-005 F
     orb,it,eci,eold,eci-eold=                    1                   62 -0.97785901199001479      -0.97785535912068133       -3.6528693334592077E-006 F
     orb,it,eci,eold,eci-eold=                    1                   63 -0.97787534175061785      -0.97785901199001479       -1.6329760603062127E-005 F
     orb,it,eci,eold,eci-eold=                    1                   64 -0.97788016576530623      -0.97787534175061785       -4.8240146883760104E-006 F
     orb,it,eci,eold,eci-eold=                    1                   65 -0.97788172805173768      -0.97788016576530623       -1.5622864314446261E-006 F
     orb,it,eci,eold,eci-eold=                    1                   66 -0.97789735356127638      -0.97788172805173768       -1.5625509538708116E-005 F
     orb,it,eci,eold,eci-eold=                    1                   67 -0.97790553018978876      -0.97789735356127638       -8.1766285123796578E-006 F
     orb,it,eci,eold,eci-eold=                    1                   68 -0.97790704057026168      -0.97790553018978876       -1.5103804729132975E-006 F
     orb,it,eci,eold,eci-eold=                    1                   69 -0.97791705416328645      -0.97790704057026168       -1.0013593024771339E-005 F
     orb,it,eci,eold,eci-eold=                    1                   70 -0.97792222534070794      -0.97791705416328645       -5.1711774214924233E-006 F
     orb,it,eci,eold,eci-eold=                    1                   71 -0.97792494058720369      -0.97792222534070794       -2.7152464957547195E-006 F
     orb,it,eci,eold,eci-eold=                    1                   72 -0.97793369853888934      -0.97792494058720369       -8.7579516856450823E-006 F
     orb,it,eci,eold,eci-eold=                    1                   73 -0.97793547788154878      -0.97793369853888934       -1.7793426594359119E-006 F
     orb,it,eci,eold,eci-eold=                    1                   74 -0.97793664536125635      -0.97793547788154878       -1.1674797075755805E-006 F
     orb,it,eci,eold,eci-eold=                    1                   75 -0.97794424157025872      -0.97793664536125635       -7.5962090023695694E-006 F
     orb,it,eci,eold,eci-eold=                    1                   76 -0.97794628987161025      -0.97794424157025872       -2.0483013515315562E-006 F
     orb,it,eci,eold,eci-eold=                    1                   77 -0.97794652012754846      -0.97794628987161025       -2.3025593820502621E-007 F
     orb,it,eci,eold,eci-eold=                    1                   78 -0.97795192093462102      -0.97794652012754846       -5.4008070725641844E-006 F
     orb,it,eci,eold,eci-eold=                    1                   79 -0.97795476700526862      -0.97795192093462102       -2.8460706475996744E-006 F
     orb,it,eci,eold,eci-eold=                    1                   80 -0.97795579168133151      -0.97795476700526862       -1.0246760628884743E-006 F
     orb,it,eci,eold,eci-eold=                    1                   81 -0.97796089460610147      -0.97795579168133151       -5.1029247699618807E-006 F
     orb,it,eci,eold,eci-eold=                    1                   82 -0.97796180358343854      -0.97796089460610147       -9.0897733706629680E-007 F
     orb,it,eci,eold,eci-eold=                    1                   83 -0.97796218436010740      -0.97796180358343854       -3.8077666886238148E-007 F
     orb,it,eci,eold,eci-eold=                    1                   84 -0.97796778634595205      -0.97796218436010740       -5.6019858446498816E-006 F
     orb,it,eci,eold,eci-eold=                    1                   85 -0.97796826016350336      -0.97796778634595205       -4.7381755130526670E-007 F
     orb,it,eci,eold,eci-eold=                    1                   86 -0.97796835132071813      -0.97796826016350336       -9.1157214776593776E-008 F
     orb,it,eci,eold,eci-eold=                    1                   87 -0.97797254323811678      -0.97796835132071813       -4.1919173986437741E-006 F
     orb,it,eci,eold,eci-eold=                    1                   88 -0.97797377273965502      -0.97797254323811678       -1.2295015382468577E-006 F
     orb,it,eci,eold,eci-eold=                    1                   89 -0.97797407551204096      -0.97797377273965502       -3.0277238594056399E-007 F
     orb,it,eci,eold,eci-eold=                    1                   90 -0.97797771256780375      -0.97797407551204096       -3.6370557627840583E-006 F
     orb,it,eci,eold,eci-eold=                    1                   91 -0.97797981440039539      -0.97797771256780375       -2.1018325916388747E-006 F
     orb,it,eci,eold,eci-eold=                    1                   92 -0.97798145329179254      -0.97797981440039539       -1.6388913971487895E-006 F
     orb,it,eci,eold,eci-eold=                    1                   93 -0.97798219117512453      -0.97798145329179254       -7.3788333199154010E-007 F
     orb,it,eci,eold,eci-eold=                    1                   94 -0.97798402486100955      -0.97798219117512453       -1.8336858850220850E-006 F
     orb,it,eci,eold,eci-eold=                    1                   95 -0.97798423287215541      -0.97798402486100955       -2.0801114586355141E-007 F
     orb,it,eci,eold,eci-eold=                    1                   96 -0.97798431043648937      -0.97798423287215541       -7.7564333955670861E-008 F
     orb,it,eci,eold,eci-eold=                    1                   97 -0.97798558166828842      -0.97798431043648937       -1.2712317990493105E-006 F
     orb,it,eci,eold,eci-eold=                    1                   98 -0.97798601955444675      -0.97798558166828842       -4.3788615833317834E-007 F
     orb,it,eci,eold,eci-eold=                    1                   99 -0.97798609465773367      -0.97798601955444675       -7.5103286922839629E-008 F
     orb,it,eci,eold,eci-eold=                    1                  100 -0.97798722325437237      -0.97798609465773367       -1.1285966386997970E-006 F
     orb,it,eci,eold,eci-eold=                    1                  101 -0.97798793835521736      -0.97798722325437237       -7.1510084498349613E-007 F
     orb,it,eci,eold,eci-eold=                    1                  102 -0.97798815764341973      -0.97798793835521736       -2.1928820237437918E-007 F
     orb,it,eci,eold,eci-eold=                    1                  103 -0.97798914732796249      -0.97798815764341973       -9.8968454276260331E-007 F
     orb,it,eci,eold,eci-eold=                    1                  104 -0.97798956645746782      -0.97798914732796249       -4.1912950532463356E-007 F
     orb,it,eci,eold,eci-eold=                    1                  105 -0.97798969630763055      -0.97798956645746782       -1.2985016273336925E-007 F
     orb,it,eci,eold,eci-eold=                    1                  106 -0.97799042263482550      -0.97798969630763055       -7.2632719494425402E-007 F
     orb,it,eci,eold,eci-eold=                    1                  107 -0.97799073473106768      -0.97799042263482550       -3.1209624218320187E-007 F
     orb,it,eci,eold,eci-eold=                    1                  108 -0.97799088602082795      -0.97799073473106768       -1.5128976027511953E-007 F
     orb,it,eci,eold,eci-eold=                    1                  109 -0.97799159755775023      -0.97799088602082795       -7.1153692227099441E-007 F
     orb,it,eci,eold,eci-eold=                    1                  110 -0.97799182253972905      -0.97799159755775023       -2.2498197882470095E-007 F
     orb,it,eci,eold,eci-eold=                    1                  111 -0.97799186783591741      -0.97799182253972905       -4.5296188355692379E-008 F
     orb,it,eci,eold,eci-eold=                    1                  112 -0.97799238034474212      -0.97799186783591741       -5.1250882471265413E-007 F
     orb,it,eci,eold,eci-eold=                    1                  113 -0.97799262064889136      -0.97799238034474212       -2.4030414924602894E-007 F
     orb,it,eci,eold,eci-eold=                    1                  114 -0.97799269748875972      -0.97799262064889136       -7.6839868357048147E-008 F
     orb,it,eci,eold,eci-eold=                    1                  115 -0.97799315952409271      -0.97799269748875972       -4.6203533299316035E-007 F
     orb,it,eci,eold,eci-eold=                    1                  116 -0.97799333442610215      -0.97799315952409271       -1.7490200943104384E-007 F
     orb,it,eci,eold,eci-eold=                    1                  117 -0.97799337126467312      -0.97799333442610215       -3.6838570971475804E-008 F
     orb,it,eci,eold,eci-eold=                    1                  118 -0.97799373170888770      -0.97799337126467312       -3.6044421458658604E-007 F
     orb,it,eci,eold,eci-eold=                    1                  119 -0.97799392129962215      -0.97799373170888770       -1.8959073444513308E-007 F
     orb,it,eci,eold,eci-eold=                    1                  120 -0.97799396951066209      -0.97799392129962215       -4.8211039938017564E-008 F
     orb,it,eci,eold,eci-eold=                    1                  121 -0.97799420751479149      -0.97799396951066209       -2.3800412940477855E-007 F
     orbital   1 current e= -0.169200E+00 error=0.719E-01 (eci= -0.977994208E+00 error=0.238E-06) iterations 121(   0 preconditioned, Ep,Sp= 20.0  200.0)
     orb,it,eci,eold,eci-eold=                    1                    1 -0.97799445622776160      -0.97799420751479149       -2.4871297010786719E-007 F
     orb,it,eci,eold,eci-eold=                    1                    2 -0.97799451544669735      -0.97799445622776160       -5.9218935755112057E-008 F
     orb,it,eci,eold,eci-eold=                    1                    3 -0.97799535959412931      -0.97799451544669735       -8.4414743195537767E-007 F
     orb,it,eci,eold,eci-eold=                    1                    4 -0.97799542851531551      -0.97799535959412931       -6.8921186202608453E-008 F
     orb,it,eci,eold,eci-eold=                    1                    5 -0.97799545465447979      -0.97799542851531551       -2.6139164277516613E-008 F
     orb,it,eci,eold,eci-eold=                    1                    6 -0.97799580559187604      -0.97799545465447979       -3.5093739625402520E-007 F
     orb,it,eci,eold,eci-eold=                    1                    7 -0.97799599641219981      -0.97799580559187604       -1.9082032376438463E-007 F
     orb,it,eci,eold,eci-eold=                    1                    8 -0.97799609953129185      -0.97799599641219981       -1.0311909204308023E-007 F
     orb,it,eci,eold,eci-eold=                    1                    9 -0.97799613474856251      -0.97799609953129185       -3.5217270655252264E-008 F
     orb,it,eci,eold,eci-eold=                    1                   10 -0.97799624081744363      -0.97799613474856251       -1.0606888112274504E-007 F
     orb,it,eci,eold,eci-eold=                    1                   11 -0.97799624438019106      -0.97799624081744363       -3.5627474304078532E-009 F
     orb,it,eci,eold,eci-eold=                    1                   12 -0.97799625826387437      -0.97799624438019106       -1.3883683314119821E-008 F
     orb,it,eci,eold,eci-eold=                    1                   13 -0.97799633121963647      -0.97799625826387437       -7.2955762098203536E-008 F
     orb,it,eci,eold,eci-eold=                    1                   14 -0.97799633359998228      -0.97799633121963647       -2.3803458093496488E-009 F
     orb,it,eci,eold,eci-eold=                    1                   15 -0.97799633392402696      -0.97799633359998228       -3.2404467997793063E-010 F
     orbital   1 current e= -0.169207E+00 error=0.697E-05 (eci= -0.977996334E+00 error=0.324E-09) iterations  15(   0 preconditioned, Ep,Sp= 20.0  200.0)
     orb,it,eci,eold,eci-eold=                    1                    1 -0.97799643421306603      -0.97799633392402696       -1.0028903907333131E-007 F
     orb,it,eci,eold,eci-eold=                    1                    2 -0.97799646250718297      -0.97799643421306603       -2.8294116938276659E-008 F
     orb,it,eci,eold,eci-eold=                    1                    3 -0.97799647139619827      -0.97799646250718297       -8.8890153016052409E-009 F
     orb,it,eci,eold,eci-eold=                    1                    4 -0.97799647322941252      -0.97799647139619827       -1.8332142470711688E-009 F
     orb,it,eci,eold,eci-eold=                    1                    5 -0.97799647789433963      -0.97799647322941252       -4.6649271112642055E-009 F
     orb,it,eci,eold,eci-eold=                    1                    6 -0.97799648727823685      -0.97799647789433963       -9.3838972148319044E-009 F
     orb,it,eci,eold,eci-eold=                    1                    7 -0.97799649094702834      -0.97799648727823685       -3.6687914928279497E-009 F
     orb,it,eci,eold,eci-eold=                    1                    8 -0.97799649094702834      -0.97799649094702834        0.0000000000000000      F
     orbital   1 current e= -0.169206E+00 error=0.115E-05 (eci= -0.977996491E+00 error=0.000E+00) iterations   8(   0 preconditioned, Ep,Sp= 20.0  200.0)
     orb,it,eci,eold,eci-eold=                    2                    1 -0.77578822413695647      -0.77530014290537608       -4.8808123158039507E-004 F
     orb,it,eci,eold,eci-eold=                    2                    2 -0.77581800477681839      -0.77578822413695647       -2.9780639861920477E-005 F
     orb,it,eci,eold,eci-eold=                    2                    3 -0.77585697797076325      -0.77581800477681839       -3.8973193944857876E-005 F
     orb,it,eci,eold,eci-eold=                    2                    4 -0.77596475453591007      -0.77585697797076325       -1.0777656514682210E-004 F
     orb,it,eci,eold,eci-eold=                    2                    5 -0.77603348844082465      -0.77596475453591007       -6.8733904914575206E-005 F
     orb,it,eci,eold,eci-eold=                    2                    6 -0.77612502308246756      -0.77603348844082465       -9.1534641642909698E-005 F
     orb,it,eci,eold,eci-eold=                    2                    7 -0.77618649749011670      -0.77612502308246756       -6.1474407649142471E-005 F
     orb,it,eci,eold,eci-eold=                    2                    8 -0.77623744822470497      -0.77618649749011670       -5.0950734588273150E-005 F
     orb,it,eci,eold,eci-eold=                    2                    9 -0.77626242555916369      -0.77623744822470497       -2.4977334458720080E-005 F
     orb,it,eci,eold,eci-eold=                    2                   10 -0.77628641720310032      -0.77626242555916369       -2.3991643936627227E-005 F
     orb,it,eci,eold,eci-eold=                    2                   11 -0.77629467956499132      -0.77628641720310032       -8.2623618909982710E-006 F
     orb,it,eci,eold,eci-eold=                    2                   12 -0.77629900419016962      -0.77629467956499132       -4.3246251782980139E-006 F
     orb,it,eci,eold,eci-eold=                    2                   13 -0.77633619139484455      -0.77629900419016962       -3.7187204674937746E-005 F
     orb,it,eci,eold,eci-eold=                    2                   14 -0.77635706479736599      -0.77633619139484455       -2.0873402521437434E-005 F
     orb,it,eci,eold,eci-eold=                    2                   15 -0.77637194521380049      -0.77635706479736599       -1.4880416434492894E-005 F
     orb,it,eci,eold,eci-eold=                    2                   16 -0.77638034806455813      -0.77637194521380049       -8.4028507576494604E-006 F
     orb,it,eci,eold,eci-eold=                    2                   17 -0.77641163698518900      -0.77638034806455813       -3.1288920630867523E-005 F
     orb,it,eci,eold,eci-eold=                    2                   18 -0.77642114178622312      -0.77641163698518900       -9.5048010341214351E-006 F
     orb,it,eci,eold,eci-eold=                    2                   19 -0.77642302304661492      -0.77642114178622312       -1.8812603918005877E-006 F
     orb,it,eci,eold,eci-eold=                    2                   20 -0.77643998318971885      -0.77642302304661492       -1.6960143103927905E-005 F
     orb,it,eci,eold,eci-eold=                    2                   21 -0.77644499985271920      -0.77643998318971885       -5.0166630003456447E-006 F
     orb,it,eci,eold,eci-eold=                    2                   22 -0.77644792281600483      -0.77644499985271920       -2.9229632856342391E-006 F
     orb,it,eci,eold,eci-eold=                    2                   23 -0.77646502011238283      -0.77644792281600483       -1.7097296377999172E-005 F
     orb,it,eci,eold,eci-eold=                    2                   24 -0.77647167656088745      -0.77646502011238283       -6.6564485046161082E-006 F
     orb,it,eci,eold,eci-eold=                    2                   25 -0.77647360252391984      -0.77647167656088745       -1.9259630323897881E-006 F
     orb,it,eci,eold,eci-eold=                    2                   26 -0.77648443531130495      -0.77647360252391984       -1.0832787385117726E-005 F
     orb,it,eci,eold,eci-eold=                    2                   27 -0.77648775223370792      -0.77648443531130495       -3.3169224029627742E-006 F
     orb,it,eci,eold,eci-eold=                    2                   28 -0.77648993105200370      -0.77648775223370792       -2.1788182957838131E-006 F
     orb,it,eci,eold,eci-eold=                    2                   29 -0.77650129491144060      -0.77648993105200370       -1.1363859436896995E-005 F
     orb,it,eci,eold,eci-eold=                    2                   30 -0.77650293544146098      -0.77650129491144060       -1.6405300203858886E-006 F
     orb,it,eci,eold,eci-eold=                    2                   31 -0.77650350045468741      -0.77650293544146098       -5.6501322642787954E-007 F
     orb,it,eci,eold,eci-eold=                    2                   32 -0.77651187966661284      -0.77650350045468741       -8.3792119254244568E-006 F
     orb,it,eci,eold,eci-eold=                    2                   33 -0.77651216413428781      -0.77651187966661284       -2.8446767497136705E-007 F
     orb,it,eci,eold,eci-eold=                    2                   34 -0.77651277019786358      -0.77651216413428781       -6.0606357576986625E-007 F
     orb,it,eci,eold,eci-eold=                    2                   35 -0.77652089433950644      -0.77651277019786358       -8.1241416428623481E-006 F
     orb,it,eci,eold,eci-eold=                    2                   36 -0.77652529825679739      -0.77652089433950644       -4.4039172909515756E-006 F
     orb,it,eci,eold,eci-eold=                    2                   37 -0.77652801284442208      -0.77652529825679739       -2.7145876246859046E-006 F
     orb,it,eci,eold,eci-eold=                    2                   38 -0.77652922048735773      -0.77652801284442208       -1.2076429356522311E-006 F
     orb,it,eci,eold,eci-eold=                    2                   39 -0.77653335496824039      -0.77652922048735773       -4.1344808826559998E-006 F
     orb,it,eci,eold,eci-eold=                    2                   40 -0.77653488484949396      -0.77653335496824039       -1.5298812535702311E-006 F
     orb,it,eci,eold,eci-eold=                    2                   41 -0.77653527422333579      -0.77653488484949396       -3.8937384183590495E-007 F
     orb,it,eci,eold,eci-eold=                    2                   42 -0.77653748764144970      -0.77653527422333579       -2.2134181139055187E-006 F
     orb,it,eci,eold,eci-eold=                    2                   43 -0.77653821204605034      -0.77653748764144970       -7.2440460063827317E-007 F
     orb,it,eci,eold,eci-eold=                    2                   44 -0.77653871556294973      -0.77653821204605034       -5.0351689939720501E-007 F
     orb,it,eci,eold,eci-eold=                    2                   45 -0.77654097374644193      -0.77653871556294973       -2.2581834921986399E-006 F
     orb,it,eci,eold,eci-eold=                    2                   46 -0.77654157789010791      -0.77654097374644193       -6.0414366598315894E-007 F
     orb,it,eci,eold,eci-eold=                    2                   47 -0.77654174966546774      -0.77654157789010791       -1.7177535982515479E-007 F
     orb,it,eci,eold,eci-eold=                    2                   48 -0.77654348979201249      -0.77654174966546774       -1.7401265447469783E-006 F
     orb,it,eci,eold,eci-eold=                    2                   49 -0.77654438367731360      -0.77654348979201249       -8.9388530111200737E-007 F
     orb,it,eci,eold,eci-eold=                    2                   50 -0.77654473892097120      -0.77654438367731360       -3.5524365760153387E-007 F
     orb,it,eci,eold,eci-eold=                    2                   51 -0.77654642733200674      -0.77654473892097120       -1.6884110355386284E-006 F
     orb,it,eci,eold,eci-eold=                    2                   52 -0.77654691837613465      -0.77654642733200674       -4.9104412791489693E-007 F
     orb,it,eci,eold,eci-eold=                    2                   53 -0.77654699765182966      -0.77654691837613465       -7.9275695008540481E-008 F
     orb,it,eci,eold,eci-eold=                    2                   54 -0.77654827497855805      -0.77654699765182966       -1.2773267283883172E-006 F
     orb,it,eci,eold,eci-eold=                    2                   55 -0.77654876095143766      -0.77654827497855805       -4.8597287960472357E-007 F
     orb,it,eci,eold,eci-eold=                    2                   56 -0.77654880616579303      -0.77654876095143766       -4.5214355370859494E-008 F
     orb,it,eci,eold,eci-eold=                    2                   57 -0.77654979036859162      -0.77654880616579303       -9.8420279859290360E-007 F
     orb,it,eci,eold,eci-eold=                    2                   58 -0.77655040909706852      -0.77654979036859162       -6.1872847689770083E-007 F
     orb,it,eci,eold,eci-eold=                    2                   59 -0.77655062929457219      -0.77655040909706852       -2.2019750367530122E-007 F
     orb,it,eci,eold,eci-eold=                    2                   60 -0.77655144565263257      -0.77655062929457219       -8.1635806037372305E-007 F
     orb,it,eci,eold,eci-eold=                    2                   61 -0.77655158332350549      -0.77655144565263257       -1.3767087292393398E-007 F
     orb,it,eci,eold,eci-eold=                    2                   62 -0.77655162383013898      -0.77655158332350549       -4.0506633491865784E-008 F
     orb,it,eci,eold,eci-eold=                    2                   63 -0.77655230898632088      -0.77655162383013898       -6.8515618190101435E-007 F
     orb,it,eci,eold,eci-eold=                    2                   64 -0.77655265087869196      -0.77655230898632088       -3.4189237108073200E-007 F
     orb,it,eci,eold,eci-eold=                    2                   65 -0.77655272987324664      -0.77655265087869196       -7.8994554675304585E-008 F
     orb,it,eci,eold,eci-eold=                    2                   66 -0.77655320935684113      -0.77655272987324664       -4.7948359449545563E-007 F
     orb,it,eci,eold,eci-eold=                    2                   67 -0.77655335503335454      -0.77655320935684113       -1.4567651340779975E-007 F
     orb,it,eci,eold,eci-eold=                    2                   68 -0.77655341557631186      -0.77655335503335454       -6.0542957314169144E-008 F
     orb,it,eci,eold,eci-eold=                    2                   69 -0.77655387764104733      -0.77655341557631186       -4.6206473547361071E-007 F
     orb,it,eci,eold,eci-eold=                    2                   70 -0.77655405126115484      -0.77655387764104733       -1.7362010751309498E-007 F
     orb,it,eci,eold,eci-eold=                    2                   71 -0.77655408276870852      -0.77655405126115484       -3.1507553677201372E-008 F
     orb,it,eci,eold,eci-eold=                    2                   72 -0.77655443857596618      -0.77655408276870852       -3.5580725765704813E-007 F
     orb,it,eci,eold,eci-eold=                    2                   73 -0.77655458682139522      -0.77655443857596618       -1.4824542904356974E-007 F
     orb,it,eci,eold,eci-eold=                    2                   74 -0.77655461874344289      -0.77655458682139522       -3.1922047671884002E-008 F
     orb,it,eci,eold,eci-eold=                    2                   75 -0.77655491125383280      -0.77655461874344289       -2.9251038990985023E-007 F
     orb,it,eci,eold,eci-eold=                    2                   76 -0.77655503174032758      -0.77655491125383280       -1.2048649478124673E-007 F
     orb,it,eci,eold,eci-eold=                    2                   77 -0.77655505995870655      -0.77655503174032758       -2.8218378966826663E-008 F
     orb,it,eci,eold,eci-eold=                    2                   78 -0.77655529936757561      -0.77655505995870655       -2.3940886906270720E-007 F
     orb,it,eci,eold,eci-eold=                    2                   79 -0.77655539414462627      -0.77655529936757561       -9.4777050652083972E-008 F
     orb,it,eci,eold,eci-eold=                    2                   80 -0.77655541577614562      -0.77655539414462627       -2.1631519353526585E-008 F
     orb,it,eci,eold,eci-eold=                    2                   81 -0.77655560673965007      -0.77655541577614562       -1.9096350445391153E-007 F
     orb,it,eci,eold,eci-eold=                    2                   82 -0.77655568644670003      -0.77655560673965007       -7.9707049960298093E-008 F
     orb,it,eci,eold,eci-eold=                    2                   83 -0.77655570725766832      -0.77655568644670003       -2.0810968281992359E-008 F
     orb,it,eci,eold,eci-eold=                    2                   84 -0.77655585577258446      -0.77655570725766832       -1.4851491614287227E-007 F
     orb,it,eci,eold,eci-eold=                    2                   85 -0.77655590811233965      -0.77655585577258446       -5.2339755196584292E-008 F
     orb,it,eci,eold,eci-eold=                    2                   86 -0.77655592287768971      -0.77655590811233965       -1.4765350053735915E-008 F
     orb,it,eci,eold,eci-eold=                    2                   87 -0.77655604302514247      -0.77655592287768971       -1.2014745276456296E-007 F
     orb,it,eci,eold,eci-eold=                    2                   88 -0.77655609058166186      -0.77655604302514247       -4.7556519389146956E-008 F
     orb,it,eci,eold,eci-eold=                    2                   89 -0.77655610345888015      -0.77655609058166186       -1.2877218291684756E-008 F
     orb,it,eci,eold,eci-eold=                    2                   90 -0.77655619510797935      -0.77655610345888015       -9.1649099198676254E-008 F
     orb,it,eci,eold,eci-eold=                    2                   91 -0.77655622779819844      -0.77655619510797935       -3.2690219087250227E-008 F
     orb,it,eci,eold,eci-eold=                    2                   92 -0.77655623846766397      -0.77655622779819844       -1.0669465533297284E-008 F
     orb,it,eci,eold,eci-eold=                    2                   93 -0.77655631476577880      -0.77655623846766397       -7.6298114826123253E-008 F
     orb,it,eci,eold,eci-eold=                    2                   94 -0.77655633494348109      -0.77655631476577880       -2.0177702286794386E-008 F
     orb,it,eci,eold,eci-eold=                    2                   95 -0.77655633612321640      -0.77655633494348109       -1.1797353094422647E-009 F
     orb,it,eci,eold,eci-eold=                    2                   96 -0.77655639061481552      -0.77655633612321640       -5.4491599121853085E-008 F
     orb,it,eci,eold,eci-eold=                    2                   97 -0.77655641590009461      -0.77655639061481552       -2.5285279092734925E-008 F
     orb,it,eci,eold,eci-eold=                    2                   98 -0.77655642251020507      -0.77655641590009461       -6.6101104589932902E-009 F
     orb,it,eci,eold,eci-eold=                    2                   99 -0.77655647220685387      -0.77655642251020507       -4.9696648796171417E-008 F
     orb,it,eci,eold,eci-eold=                    2                  100 -0.77655649494616674      -0.77655647220685387       -2.2739312877106954E-008 F
     orb,it,eci,eold,eci-eold=                    2                  101 -0.77655650138511989      -0.77655649494616674       -6.4389531484465579E-009 F
     orb,it,eci,eold,eci-eold=                    2                  102 -0.77655654374821093      -0.77655650138511989       -4.2363091035113598E-008 F
     orb,it,eci,eold,eci-eold=                    2                  103 -0.77655656149549590      -0.77655654374821093       -1.7747284974944932E-008 F
     orb,it,eci,eold,eci-eold=                    2                  104 -0.77655656657481620      -0.77655656149549590       -5.0793202976961993E-009 F
     orb,it,eci,eold,eci-eold=                    2                  105 -0.77655660239226565      -0.77655656657481620       -3.5817449450803451E-008 F
     orb,it,eci,eold,eci-eold=                    2                  106 -0.77655661623720984      -0.77655660239226565       -1.3844944191099273E-008 F
     orb,it,eci,eold,eci-eold=                    2                  107 -0.77655661910912444      -0.77655661623720984       -2.8719145950262259E-009 F
     orb,it,eci,eold,eci-eold=                    2                  108 -0.77655664517914613      -0.77655661910912444       -2.6070021696966705E-008 F
     orb,it,eci,eold,eci-eold=                    2                  109 -0.77655665466353518      -0.77655664517914613       -9.4843890519058505E-009 F
     orb,it,eci,eold,eci-eold=                    2                  110 -0.77655665725040623      -0.77655665466353518       -2.5868710507026549E-009 F
     orb,it,eci,eold,eci-eold=                    2                  111 -0.77655667877269585      -0.77655665725040623       -2.1522289617159629E-008 F
     orb,it,eci,eold,eci-eold=                    2                  112 -0.77655668691268387      -0.77655667877269585       -8.1399880169641392E-009 F
     orb,it,eci,eold,eci-eold=                    2                  113 -0.77655668893108909      -0.77655668691268387       -2.0184052207383729E-009 F
     orb,it,eci,eold,eci-eold=                    2                  114 -0.77655670566996871      -0.77655668893108909       -1.6738879615729729E-008 F
     orb,it,eci,eold,eci-eold=                    2                  115 -0.77655671175237284      -0.77655670566996871       -6.0824041359097691E-009 F
     orb,it,eci,eold,eci-eold=                    2                  116 -0.77655671343715538      -0.77655671175237284       -1.6847825357046986E-009 F
     orb,it,eci,eold,eci-eold=                    2                  117 -0.77655672765107175      -0.77655671343715538       -1.4213916377237013E-008 F
     orb,it,eci,eold,eci-eold=                    2                  118 -0.77655673295084549      -0.77655672765107175       -5.2997737309823378E-009 F
     orb,it,eci,eold,eci-eold=                    2                  119 -0.77655673394369651      -0.77655673295084549       -9.9285102361790223E-010 F
     orbital   2 current e=  0.356235E+00 error=0.555E-01 (eci= -0.776556734E+00 error=0.993E-09) iterations 119(   0 preconditioned, Ep,Sp= 20.0  200.0)
     orb,it,eci,eold,eci-eold=                    2                    1 -0.77655674348502424      -0.77655673394369651       -9.5413277279021713E-009 F
     orb,it,eci,eold,eci-eold=                    2                    2 -0.77655674613714076      -0.77655674348502424       -2.6521165263915236E-009 F
     orb,it,eci,eold,eci-eold=                    2                    3 -0.77655678252020333      -0.77655674613714076       -3.6383062562705959E-008 F
     orb,it,eci,eold,eci-eold=                    2                    4 -0.77655679733371652      -0.77655678252020333       -1.4813513193878691E-008 F
     orb,it,eci,eold,eci-eold=                    2                    5 -0.77655679733371652      -0.77655679733371652        0.0000000000000000      F
     orbital   2 current e=  0.356163E+00 error=0.726E-04 (eci= -0.776556797E+00 error=0.000E+00) iterations   5(   0 preconditioned, Ep,Sp= 20.0  200.0)
     orb,it,eci,eold,eci-eold=                    2                    1 -0.77655680216304579      -0.77655679704082647       -5.1222193153677154E-009 F
     orb,it,eci,eold,eci-eold=                    2                    2 -0.77655680466712662      -0.77655680216304579       -2.5040808315779373E-009 F
     orb,it,eci,eold,eci-eold=                    2                    3 -0.77655680886514611      -0.77655680466712662       -4.1980194875890220E-009 F
     orb,it,eci,eold,eci-eold=                    2                    4 -0.77655680934938953      -0.77655680886514611       -4.8424342313779789E-010 F
     orbital   2 current e=  0.356112E+00 error=0.510E-04 (eci= -0.776556809E+00 error=0.484E-09) iterations   4(   0 preconditioned, Ep,Sp= 20.0  200.0)
     orb,it,eci,eold,eci-eold=                    3                    1 -0.77405450194732595      -0.77393054849000631       -1.2395345731963658E-004 F
     orb,it,eci,eold,eci-eold=                    3                    2 -0.77407973443002120      -0.77405450194732595       -2.5232482695258796E-005 F
     orb,it,eci,eold,eci-eold=                    3                    3 -0.77411398199114467      -0.77407973443002120       -3.4247561123468273E-005 F
     orb,it,eci,eold,eci-eold=                    3                    4 -0.77413725443503456      -0.77411398199114467       -2.3272443889887917E-005 F
     orb,it,eci,eold,eci-eold=                    3                    5 -0.77416111697492063      -0.77413725443503456       -2.3862539886065903E-005 F
     orb,it,eci,eold,eci-eold=                    3                    6 -0.77417160459008483      -0.77416111697492063       -1.0487615164200825E-005 F
     orb,it,eci,eold,eci-eold=                    3                    7 -0.77419766876118368      -0.77417160459008483       -2.6064171098849620E-005 F
     orb,it,eci,eold,eci-eold=                    3                    8 -0.77420004974158774      -0.77419766876118368       -2.3809804040597626E-006 F
     orb,it,eci,eold,eci-eold=                    3                    9 -0.77420660788319706      -0.77420004974158774       -6.5581416093252187E-006 F
     orb,it,eci,eold,eci-eold=                    3                   10 -0.77422334747468946      -0.77420660788319706       -1.6739591492398453E-005 F
     orb,it,eci,eold,eci-eold=                    3                   11 -0.77422655416066055      -0.77422334747468946       -3.2066859710910833E-006 F
     orb,it,eci,eold,eci-eold=                    3                   12 -0.77423341261272649      -0.77422655416066055       -6.8584520659387138E-006 F
     orb,it,eci,eold,eci-eold=                    3                   13 -0.77424797485997754      -0.77423341261272649       -1.4562247251048710E-005 F
     orb,it,eci,eold,eci-eold=                    3                   14 -0.77424906295578066      -0.77424797485997754       -1.0880958031256327E-006 F
     orb,it,eci,eold,eci-eold=                    3                   15 -0.77425324053487543      -0.77424906295578066       -4.1775790947662372E-006 F
     orb,it,eci,eold,eci-eold=                    3                   16 -0.77426680867638709      -0.77425324053487543       -1.3568141511655085E-005 F
     orb,it,eci,eold,eci-eold=                    3                   17 -0.77426684618579644      -0.77426680867638709       -3.7509409356317747E-008 F
     orb,it,eci,eold,eci-eold=                    3                   18 -0.77426727513987070      -0.77426684618579644       -4.2895407426080112E-007 F
     orb,it,eci,eold,eci-eold=                    3                   19 -0.77427840503153078      -0.77426727513987070       -1.1129891660077718E-005 F
     orb,it,eci,eold,eci-eold=                    3                   20 -0.77428098532358125      -0.77427840503153078       -2.5802920504691684E-006 F
     orb,it,eci,eold,eci-eold=                    3                   21 -0.77428155170649027      -0.77428098532358125       -5.6638290901744881E-007 F
     orb,it,eci,eold,eci-eold=                    3                   22 -0.77429194210479046      -0.77428155170649027       -1.0390398300197390E-005 F
     orb,it,eci,eold,eci-eold=                    3                   23 -0.77429279682706276      -0.77429194210479046       -8.5472227229210773E-007 F
     orb,it,eci,eold,eci-eold=                    3                   24 -0.77429308196805935      -0.77429279682706276       -2.8514099659204817E-007 F
     orb,it,eci,eold,eci-eold=                    3                   25 -0.77430042933385235      -0.77429308196805935       -7.3473657929978842E-006 F
     orb,it,eci,eold,eci-eold=                    3                   26 -0.77430090634496263      -0.77430042933385235       -4.7701111027809162E-007 F
     orb,it,eci,eold,eci-eold=                    3                   27 -0.77430113269110068      -0.77430090634496263       -2.2634613805472270E-007 F
     orb,it,eci,eold,eci-eold=                    3                   28 -0.77430707036243818      -0.77430113269110068       -5.9376713374970080E-006 F
     orb,it,eci,eold,eci-eold=                    3                   29 -0.77430722260240115      -0.77430707036243818       -1.5223996296942488E-007 F
     orb,it,eci,eold,eci-eold=                    3                   30 -0.77430729526492337      -0.77430722260240115       -7.2662522221378367E-008 F
     orb,it,eci,eold,eci-eold=                    3                   31 -0.77431232639435688      -0.77430729526492337       -5.0311294335081413E-006 F
     orb,it,eci,eold,eci-eold=                    3                   32 -0.77431241843309251      -0.77431232639435688       -9.2038735632904434E-008 F
     orb,it,eci,eold,eci-eold=                    3                   33 -0.77431247983239737      -0.77431241843309251       -6.1399304862597148E-008 F
     orb,it,eci,eold,eci-eold=                    3                   34 -0.77431638335441089      -0.77431247983239737       -3.9035220135152926E-006 F
     orb,it,eci,eold,eci-eold=                    3                   35 -0.77431852494148012      -0.77431638335441089       -2.1415870692376160E-006 F
     orb,it,eci,eold,eci-eold=                    3                   36 -0.77431981712990428      -0.77431852494148012       -1.2921884241512416E-006 F
     orb,it,eci,eold,eci-eold=                    3                   37 -0.77432031908764842      -0.77431981712990428       -5.0195774414785177E-007 F
     orb,it,eci,eold,eci-eold=                    3                   38 -0.77432169298472675      -0.77432031908764842       -1.3738970783272464E-006 F
     orb,it,eci,eold,eci-eold=                    3                   39 -0.77432184599955489      -0.77432169298472675       -1.5301482814145118E-007 F
     orb,it,eci,eold,eci-eold=                    3                   40 -0.77432196852756408      -0.77432184599955489       -1.2252800918322038E-007 F
     orb,it,eci,eold,eci-eold=                    3                   41 -0.77432310460278386      -0.77432196852756408       -1.1360752197875357E-006 F
     orb,it,eci,eold,eci-eold=                    3                   42 -0.77432354990494556      -0.77432310460278386       -4.4530216170013404E-007 F
     orb,it,eci,eold,eci-eold=                    3                   43 -0.77432368060057488      -0.77432354990494556       -1.3069562931899981E-007 F
     orb,it,eci,eold,eci-eold=                    3                   44 -0.77432462010129099      -0.77432368060057488       -9.3950071611281771E-007 F
     orb,it,eci,eold,eci-eold=                    3                   45 -0.77432496805770756      -0.77432462010129099       -3.4795641656870657E-007 F
     orb,it,eci,eold,eci-eold=                    3                   46 -0.77432505695423925      -0.77432496805770756       -8.8896531691418090E-008 F
     orb,it,eci,eold,eci-eold=                    3                   47 -0.77432586720711061      -0.77432505695423925       -8.1025287135272350E-007 F
     orb,it,eci,eold,eci-eold=                    3                   48 -0.77432616219973127      -0.77432586720711061       -2.9499262066412513E-007 F
     orb,it,eci,eold,eci-eold=                    3                   49 -0.77432617871586173      -0.77432616219973127       -1.6516130463273271E-008 F
     orb,it,eci,eold,eci-eold=                    3                   50 -0.77432673273199748      -0.77432617871586173       -5.5401613574534991E-007 F
     orb,it,eci,eold,eci-eold=                    3                   51 -0.77432705130422375      -0.77432673273199748       -3.1857222626552328E-007 F
     orb,it,eci,eold,eci-eold=                    3                   52 -0.77432715699265309      -0.77432705130422375       -1.0568842934155498E-007 F
     orb,it,eci,eold,eci-eold=                    3                   53 -0.77432762073862493      -0.77432715699265309       -4.6374597184595245E-007 F
     orb,it,eci,eold,eci-eold=                    3                   54 -0.77432781405188389      -0.77432762073862493       -1.9331325895599605E-007 F
     orb,it,eci,eold,eci-eold=                    3                   55 -0.77432790872009027      -0.77432781405188389       -9.4668206385151166E-008 F
     orb,it,eci,eold,eci-eold=                    3                   56 -0.77432831182929251      -0.77432790872009027       -4.0310920224051472E-007 F
     orb,it,eci,eold,eci-eold=                    3                   57 -0.77432840735668851      -0.77432831182929251       -9.5527395993499908E-008 F
     orb,it,eci,eold,eci-eold=                    3                   58 -0.77432843002685336      -0.77432840735668851       -2.2670164856464226E-008 F
     orb,it,eci,eold,eci-eold=                    3                   59 -0.77432871995232277      -0.77432843002685336       -2.8992546940997954E-007 F
     orb,it,eci,eold,eci-eold=                    3                   60 -0.77432883777620076      -0.77432871995232277       -1.1782387798753291E-007 F
     orb,it,eci,eold,eci-eold=                    3                   61 -0.77432886786380017      -0.77432883777620076       -3.0087599411920962E-008 F
     orb,it,eci,eold,eci-eold=                    3                   62 -0.77432908093882435      -0.77432886786380017       -2.1307502418022040E-007 F
     orb,it,eci,eold,eci-eold=                    3                   63 -0.77432913997078412      -0.77432908093882435       -5.9031959764865860E-008 F
     orb,it,eci,eold,eci-eold=                    3                   64 -0.77432915509811073      -0.77432913997078412       -1.5127326613573189E-008 F
     orb,it,eci,eold,eci-eold=                    3                   65 -0.77432932918217490      -0.77432915509811073       -1.7408406416397071E-007 F
     orb,it,eci,eold,eci-eold=                    3                   66 -0.77432939326443140      -0.77432932918217490       -6.4082256501230006E-008 F
     orb,it,eci,eold,eci-eold=                    3                   67 -0.77432940473298151      -0.77432939326443140       -1.1468550109583475E-008 F
     orb,it,eci,eold,eci-eold=                    3                   68 -0.77432954173105562      -0.77432940473298151       -1.3699807410727516E-007 F
     orb,it,eci,eold,eci-eold=                    3                   69 -0.77432960304001475      -0.77432954173105562       -6.1308959131700647E-008 F
     orb,it,eci,eold,eci-eold=                    3                   70 -0.77432961810328738      -0.77432960304001475       -1.5063272629234348E-008 F
     orb,it,eci,eold,eci-eold=                    3                   71 -0.77432972813451217      -0.77432961810328738       -1.1003122479813499E-007 F
     orb,it,eci,eold,eci-eold=                    3                   72 -0.77432977354807486      -0.77432972813451217       -4.5413562688167985E-008 F
     orb,it,eci,eold,eci-eold=                    3                   73 -0.77432978685417830      -0.77432977354807486       -1.3306103441301786E-008 F
     orb,it,eci,eold,eci-eold=                    3                   74 -0.77432987650263763      -0.77432978685417830       -8.9648459322688723E-008 F
     orb,it,eci,eold,eci-eold=                    3                   75 -0.77432991339781077      -0.77432987650263763       -3.6895173138873361E-008 F
     orb,it,eci,eold,eci-eold=                    3                   76 -0.77432992508246123      -0.77432991339781077       -1.1684650469412361E-008 F
     orb,it,eci,eold,eci-eold=                    3                   77 -0.77432999709479411      -0.77432992508246123       -7.2012332874571428E-008 F
     orb,it,eci,eold,eci-eold=                    3                   78 -0.77433002174912857      -0.77432999709479411       -2.4654334462859140E-008 F
     orb,it,eci,eold,eci-eold=                    3                   79 -0.77433002816830976      -0.77433002174912857       -6.4191811866010084E-009 F
     orb,it,eci,eold,eci-eold=                    3                   80 -0.77433008258467650      -0.77433002816830976       -5.4416366745968503E-008 F
     orb,it,eci,eold,eci-eold=                    3                   81 -0.77433010375674183      -0.77433008258467650       -2.1172065323149525E-008 F
     orb,it,eci,eold,eci-eold=                    3                   82 -0.77433011006562391      -0.77433010375674183       -6.3088820834167336E-009 F
     orb,it,eci,eold,eci-eold=                    3                   83 -0.77433015278950523      -0.77433011006562391       -4.2723881321649060E-008 F
     orb,it,eci,eold,eci-eold=                    3                   84 -0.77433016558644696      -0.77433015278950523       -1.2796941728510092E-008 F
     orb,it,eci,eold,eci-eold=                    3                   85 -0.77433016838715407      -0.77433016558644696       -2.8007071106728176E-009 F
     orb,it,eci,eold,eci-eold=                    3                   86 -0.77433020088866733      -0.77433016838715407       -3.2501513258509362E-008 F
     orb,it,eci,eold,eci-eold=                    3                   87 -0.77433021192551366      -0.77433020088866733       -1.1036846325751526E-008 F
     orb,it,eci,eold,eci-eold=                    3                   88 -0.77433021375337674      -0.77433021192551366       -1.8278630831147780E-009 F
     orb,it,eci,eold,eci-eold=                    3                   89 -0.77433023901566900      -0.77433021375337674       -2.5262292258076968E-008 F
     orb,it,eci,eold,eci-eold=                    3                   90 -0.77433024952153384      -0.77433023901566900       -1.0505864844745361E-008 F
     orb,it,eci,eold,eci-eold=                    3                   91 -0.77433025177297832      -0.77433024952153384       -2.2514444752985696E-009 F
     orb,it,eci,eold,eci-eold=                    3                   92 -0.77433027177776803      -0.77433025177297832       -2.0004789713645721E-008 F
     orb,it,eci,eold,eci-eold=                    3                   93 -0.77433027954345246      -0.77433027177776803       -7.7656844288398474E-009 F
     orb,it,eci,eold,eci-eold=                    3                   94 -0.77433028105662494      -0.77433027954345246       -1.5131724762085241E-009 F
     orb,it,eci,eold,eci-eold=                    3                   95 -0.77433029524161079      -0.77433028105662494       -1.4184985852594423E-008 F
     orb,it,eci,eold,eci-eold=                    3                   96 -0.77433030112115908      -0.77433029524161079       -5.8795482926754516E-009 F
     orb,it,eci,eold,eci-eold=                    3                   97 -0.77433030337313635      -0.77433030112115908       -2.2519772713280872E-009 F
     orb,it,eci,eold,eci-eold=                    3                   98 -0.77433031674917729      -0.77433030337313635       -1.3376040941537326E-008 F
     orb,it,eci,eold,eci-eold=                    3                   99 -0.77433032316245365      -0.77433031674917729       -6.4132763544222371E-009 F
     orb,it,eci,eold,eci-eold=                    3                  100 -0.77433032549447267      -0.77433032316245365       -2.3320190223330428E-009 F
     orb,it,eci,eold,eci-eold=                    3                  101 -0.77433033618010005      -0.77433032549447267       -1.0685627382933660E-008 F
     orb,it,eci,eold,eci-eold=                    3                  102 -0.77433033867436463      -0.77433033618010005       -2.4942645726611090E-009 F
     orb,it,eci,eold,eci-eold=                    3                  103 -0.77433033908284055      -0.77433033867436463       -4.0847591975534669E-010 F
     orbital   3 current e=  0.490282E+00 error=0.352E-01 (eci= -0.774330339E+00 error=0.408E-09) iterations 103(   0 preconditioned, Ep,Sp= 20.0  200.0)
     orb,it,eci,eold,eci-eold=                    3                    1 -0.77433036093296792      -0.77433033908284055       -2.1850127374101191E-008 F
     orb,it,eci,eold,eci-eold=                    3                    2 -0.77433036838111358      -0.77433036093296792       -7.4481456557862202E-009 F
     orb,it,eci,eold,eci-eold=                    3                    3 -0.77433036847497894      -0.77433036838111358       -9.3865359929168335E-011 F
     orbital   3 current e=  0.490474E+00 error=0.192E-03 (eci= -0.774330368E+00 error=0.939E-10) iterations   3(   0 preconditioned, Ep,Sp= 20.0  200.0)
     orb,it,eci,eold,eci-eold=                    3                    1 -0.77433037032578067      -0.77433036847497894       -1.8508017340934657E-009 F
     orb,it,eci,eold,eci-eold=                    3                    2 -0.77433037063229526      -0.77433037032578067       -3.0651459148600679E-010 F
     orbital   3 current e=  0.490506E+00 error=0.318E-04 (eci= -0.774330371E+00 error=0.307E-09) iterations   2(   0 preconditioned, Ep,Sp= 20.0  200.0)
     orb,it,eci,eold,eci-eold=                    4                    1 -0.77396809133942468      -0.77383969445129386       -1.2839688813082173E-004 F
     orb,it,eci,eold,eci-eold=                    4                    2 -0.77400017719967573      -0.77396809133942468       -3.2085860251052090E-005 F
     orb,it,eci,eold,eci-eold=                    4                    3 -0.77404810695714821      -0.77400017719967573       -4.7929757472475742E-005 F
     orb,it,eci,eold,eci-eold=                    4                    4 -0.77407076176510081      -0.77404810695714821       -2.2654807952604550E-005 F
     orb,it,eci,eold,eci-eold=                    4                    5 -0.77414483084253072      -0.77407076176510081       -7.4069077429905761E-005 F
     orb,it,eci,eold,eci-eold=                    4                    6 -0.77418627095357317      -0.77414483084253072       -4.1440111042456707E-005 F
     orb,it,eci,eold,eci-eold=                    4                    7 -0.77419418781025295      -0.77418627095357317       -7.9168566797793716E-006 F
     orb,it,eci,eold,eci-eold=                    4                    8 -0.77419666524654440      -0.77419418781025295       -2.4774362914481429E-006 F
     orb,it,eci,eold,eci-eold=                    4                    9 -0.77423221769110584      -0.77419666524654440       -3.5552444561437468E-005 F
     orb,it,eci,eold,eci-eold=                    4                   10 -0.77424986330103085      -0.77423221769110584       -1.7645609925009964E-005 F
     orb,it,eci,eold,eci-eold=                    4                   11 -0.77425996630606764      -0.77424986330103085       -1.0103005036787849E-005 F
     orb,it,eci,eold,eci-eold=                    4                   12 -0.77426534366098265      -0.77425996630606764       -5.3773549150148980E-006 F
     orb,it,eci,eold,eci-eold=                    4                   13 -0.77428145301311480      -0.77426534366098265       -1.6109352132143151E-005 F
     orb,it,eci,eold,eci-eold=                    4                   14 -0.77429124250517301      -0.77428145301311480       -9.7894920582097811E-006 F
     orb,it,eci,eold,eci-eold=                    4                   15 -0.77429802721302299      -0.77429124250517301       -6.7847078499827518E-006 F
     orb,it,eci,eold,eci-eold=                    4                   16 -0.77430097495363348      -0.77429802721302299       -2.9477406104927439E-006 F
     orb,it,eci,eold,eci-eold=                    4                   17 -0.77430996038245703      -0.77430097495363348       -8.9854288235491353E-006 F
     orb,it,eci,eold,eci-eold=                    4                   18 -0.77431069010070197      -0.77430996038245703       -7.2971824494061366E-007 F
     orb,it,eci,eold,eci-eold=                    4                   19 -0.77431128101531410      -0.77431069010070197       -5.9091461213078844E-007 F
     orb,it,eci,eold,eci-eold=                    4                   20 -0.77431729590317666      -0.77431128101531410       -6.0148878625598812E-006 F
     orb,it,eci,eold,eci-eold=                    4                   21 -0.77431741031319423      -0.77431729590317666       -1.1441001757095393E-007 F
     orb,it,eci,eold,eci-eold=                    4                   22 -0.77431806056983588      -0.77431741031319423       -6.5025664164330976E-007 F
     orb,it,eci,eold,eci-eold=                    4                   23 -0.77432253045592736      -0.77431806056983588       -4.4698860914849092E-006 F
     orb,it,eci,eold,eci-eold=                    4                   24 -0.77432317002627404      -0.77432253045592736       -6.3957034668327140E-007 F
     orb,it,eci,eold,eci-eold=                    4                   25 -0.77432353927088948      -0.77432317002627404       -3.6924461543907938E-007 F
     orb,it,eci,eold,eci-eold=                    4                   26 -0.77432784266904986      -0.77432353927088948       -4.3033981603768368E-006 F
     orb,it,eci,eold,eci-eold=                    4                   27 -0.77432795397806409      -0.77432784266904986       -1.1130901422795603E-007 F
     orb,it,eci,eold,eci-eold=                    4                   28 -0.77432819688068222      -0.77432795397806409       -2.4290261813053604E-007 F
     orb,it,eci,eold,eci-eold=                    4                   29 -0.77433215734240579      -0.77432819688068222       -3.9604617235733386E-006 F
     orb,it,eci,eold,eci-eold=                    4                   30 -0.77433436949144274      -0.77433215734240579       -2.2121490369508834E-006 F
     orb,it,eci,eold,eci-eold=                    4                   31 -0.77433579504248684      -0.77433436949144274       -1.4255510440985830E-006 F
     orb,it,eci,eold,eci-eold=                    4                   32 -0.77433653379734380      -0.77433579504248684       -7.3875485695484855E-007 F
     orb,it,eci,eold,eci-eold=                    4                   33 -0.77433877486697766      -0.77433653379734380       -2.2410696338681646E-006 F
     orb,it,eci,eold,eci-eold=                    4                   34 -0.77433934290224782      -0.77433877486697766       -5.6803527015425459E-007 F
     orb,it,eci,eold,eci-eold=                    4                   35 -0.77433949806109270      -0.77433934290224782       -1.5515884488337406E-007 F
     orb,it,eci,eold,eci-eold=                    4                   36 -0.77434094521554808      -0.77433949806109270       -1.4471544553806837E-006 F
     orb,it,eci,eold,eci-eold=                    4                   37 -0.77434128290012483      -0.77434094521554808       -3.3768457674554497E-007 F
     orb,it,eci,eold,eci-eold=                    4                   38 -0.77434134041904867      -0.77434128290012483       -5.7518923846089365E-008 F
     orb,it,eci,eold,eci-eold=                    4                   39 -0.77434240706307045      -0.77434134041904867       -1.0666440217743656E-006 F
     orb,it,eci,eold,eci-eold=                    4                   40 -0.77434318759644194      -0.77434240706307045       -7.8053337149164292E-007 F
     orb,it,eci,eold,eci-eold=                    4                   41 -0.77434425034730059      -0.77434318759644194       -1.0627508586491530E-006 F
     orb,it,eci,eold,eci-eold=                    4                   42 -0.77434487843411604      -0.77434425034730059       -6.2808681544623823E-007 F
     orb,it,eci,eold,eci-eold=                    4                   43 -0.77434599130750126      -0.77434487843411604       -1.1128733852228123E-006 F
     orb,it,eci,eold,eci-eold=                    4                   44 -0.77434604217586578      -0.77434599130750126       -5.0868364520617604E-008 F
     orb,it,eci,eold,eci-eold=                    4                   45 -0.77434618938390076      -0.77434604217586578       -1.4720803498402546E-007 F
     orb,it,eci,eold,eci-eold=                    4                   46 -0.77434732175539600      -0.77434618938390076       -1.1323714952382602E-006 F
     orb,it,eci,eold,eci-eold=                    4                   47 -0.77434764747067097      -0.77434732175539600       -3.2571527497360364E-007 F
     orb,it,eci,eold,eci-eold=                    4                   48 -0.77434772315155964      -0.77434764747067097       -7.5680888667051249E-008 F
     orb,it,eci,eold,eci-eold=                    4                   49 -0.77434871593583998      -0.77434772315155964       -9.9278428034033084E-007 F
     orb,it,eci,eold,eci-eold=                    4                   50 -0.77434879748267083      -0.77434871593583998       -8.1546830843493012E-008 F
     orb,it,eci,eold,eci-eold=                    4                   51 -0.77434885913287155      -0.77434879748267083       -6.1650200722240811E-008 F
     orb,it,eci,eold,eci-eold=                    4                   52 -0.77434978321768133      -0.77434885913287155       -9.2408480978356522E-007 F
     orb,it,eci,eold,eci-eold=                    4                   53 -0.77435034010079562      -0.77434978321768133       -5.5688311428880866E-007 F
     orb,it,eci,eold,eci-eold=                    4                   54 -0.77435072310954589      -0.77435034010079562       -3.8300875027097447E-007 F
     orb,it,eci,eold,eci-eold=                    4                   55 -0.77435087289688176      -0.77435072310954589       -1.4978733586801241E-007 F
     orb,it,eci,eold,eci-eold=                    4                   56 -0.77435133911289267      -0.77435087289688176       -4.6621601090812703E-007 F
     orb,it,eci,eold,eci-eold=                    4                   57 -0.77435146051795822      -0.77435133911289267       -1.2140506555624597E-007 F
     orb,it,eci,eold,eci-eold=                    4                   58 -0.77435150778748707      -0.77435146051795822       -4.7269528846705100E-008 F
     orb,it,eci,eold,eci-eold=                    4                   59 -0.77435187181376797      -0.77435150778748707       -3.6402628089682310E-007 F
[...]
    8    5    8    8       -0.0000000001
    8    5    9    8       -0.0000000000
    8    5   10    8        0.0000017918
    8    5   11    8       -0.0013646878
    8    5    9    9       -0.0000000001
    8    5   10    9       -0.0000000105
    8    5   11    9        0.0000000002
    8    5   10   10        0.0000000019
    8    5   11   10        0.0000001775
    8    5   11   11        0.0000000002
    9    5    9    5        0.0129320459
    9    5   10    5       -0.0000003852
    9    5   11    5        0.0000000012
    9    5    6    6       -0.0000000011
    9    5    7    6        0.0000000007
    9    5    8    6        0.0000003670
    9    5    9    6        0.0000001805
    9    5   10    6       -0.0059538108
    9    5   11    6        0.0000174410
    9    5    7    7       -0.0000000002
    9    5    8    7        0.0000001058
    9    5    9    7       -0.0000003597
    9    5   10    7        0.0115125399
    9    5   11    7       -0.0000337440
    9    5    8    8       -0.0000000000
    9    5    9    8       -0.0000000000
    9    5   10    8       -0.0000000105
    9    5   11    8       -0.0000000001
    9    5    9    9       -0.0000000000
    9    5   10    9        0.0000018039
    9    5   11    9       -0.0013653117
    9    5   10   10        0.0000000008
    9    5   11   10        0.0000000740
    9    5   11   11        0.0000000001
   10    5   10    5        0.1726920015
   10    5   11    5       -0.0004793998
   10    5    6    6        0.0001405629
   10    5    7    6       -0.0000000000
   10    5    8    6       -0.1381773435
   10    5    9    6       -0.0714664333
   10    5   10    6       -0.0000009644
   10    5   11    6       -0.0000000049
   10    5    7    7        0.0001402687
   10    5    8    7       -0.0714769534
   10    5    9    7        0.1382004200
   10    5   10    7       -0.0000000800
   10    5   11    7       -0.0000000005
   10    5    8    8        0.0000089008
   10    5    9    8       -0.0000001238
   10    5   10    8        0.0000000084
   10    5   11    8       -0.0000008766
   10    5    9    9        0.0000090932
   10    5   10    9        0.0000000035
   10    5   11    9       -0.0000003636
   10    5   10   10       -0.0001263311
   10    5   11   10       -0.0457297097
   10    5   11   11        0.0002793140
   11    5   11    5        0.0137412337
   11    5    6    6       -0.0165177967
   11    5    7    6       -0.0000000000
   11    5    8    6        0.0004272585
   11    5    9    6        0.0002209833
   11    5   10    6        0.0000000022
   11    5   11    6       -0.0000001650
   11    5    7    7       -0.0165252159
   11    5    8    7        0.0002210274
   11    5    9    7       -0.0004273539
   11    5   10    7        0.0000000002
   11    5   11    7       -0.0000000139
   11    5    8    8       -0.0171816268
   11    5    9    8        0.0000000004
   11    5   10    8       -0.0000000422
   11    5   11    8        0.0000000033
   11    5    9    9       -0.0171825921
   11    5   10    9       -0.0000000175
   11    5   11    9        0.0000000014
   11    5   10   10       -0.0221849452
   11    5   11   10        0.0002123260
   11    5   11   11       -0.0212161902
    6    6    6    6        0.2900077312
    6    6    7    6       -0.0000000172
    6    6    8    6       -0.0000807969
    6    6    9    6       -0.0000418045
    6    6   10    6       -0.0000000006
    6    6   11    6        0.0000009373
    6    6    7    7        0.2647829622
    6    6    8    7       -0.0000360653
    6    6    9    7        0.0000697615
    6    6   10    7       -0.0000000000
    6    6   11    7        0.0000000710
    6    6    8    8        0.2890101158
    6    6    9    8        0.0108100961
    6    6   10    8        0.0000001275
    6    6   11    8        0.0000000017
    6    6    9    9        0.2740427288
    6    6   10    9        0.0000000663
    6    6   11    9        0.0000000008
    6    6   10   10        0.2721105522
    6    6   11   10       -0.0000466317
    6    6   11   11        0.2732605826
    7    6    7    6        0.0132121131
    7    6    8    6       -0.0000030318
    7    6    9    6        0.0000058833
    7    6   10    6       -0.0000000000
    7    6   11    6        0.0000000041
    7    6    7    7        0.0000000170
    7    6    8    7       -0.0000058613
    7    6    9    7       -0.0000030213
    7    6   10    7       -0.0000000000
    7    6   11    7        0.0000000451
    7    6    8    8        0.0108097783
    7    6    9    8       -0.0078273075
    7    6   10    8        0.0000000400
    7    6   11    8        0.0000000002
    7    6    9    9       -0.0108098107
    7    6   10    9       -0.0000000640
    7    6   11    9       -0.0000000004
    7    6   10   10       -0.0000000000
    7    6   11   10        0.0000000000
    7    6   11   11       -0.0000000000
    8    6    8    6        0.1521186246
    8    6    9    6        0.0719395439
    8    6   10    6        0.0000008934
    8    6   11    6        0.0000000052
    8    6    7    7       -0.0000694559
    8    6    8    7        0.0719478413
    8    6    9    7       -0.1260854404
    8    6   10    7        0.0000001035
    8    6   11    7        0.0000000007
    8    6    8    8        0.0000613965
    8    6    9    8        0.0000023659
    8    6   10    8       -0.0000000077
    8    6   11    8        0.0000009518
    8    6    9    9        0.0000530844
    8    6   10    9       -0.0000000033
    8    6   11    9        0.0000003791
    8    6   10   10        0.0001597794
    8    6   11   10        0.0388900817
    8    6   11   11       -0.0001330582
    9    6    9    6        0.0505739186
    9    6   10    6        0.0000004621
    9    6   11    6        0.0000000027
    9    6    7    7       -0.0000359178
    9    6    8    7        0.0238436084
    9    6    9    7       -0.0719486537
    9    6   10    7       -0.0000000315
    9    6   11    7       -0.0000000001
    9    6    8    8        0.0000275455
    9    6    9    8        0.0000044087
    9    6   10    8       -0.0000000040
    9    6   11    8        0.0000004593
    9    6    9    9        0.0000316511
    9    6   10    9       -0.0000000017
    9    6   11    9        0.0000002463
    9    6   10   10        0.0000826335
    9    6   11   10        0.0201144843
    9    6   11   11       -0.0000688249
   10    6   10    6        0.0137774370
   10    6   11    6       -0.0000004500
   10    6    7    7       -0.0000000005
   10    6    8    7        0.0000004347
   10    6    9    7       -0.0000008268
   10    6   10    7        0.0000000000
   10    6   11    7        0.0000000000
   10    6    8    8       -0.0000000009
   10    6    9    8       -0.0000000006
   10    6   10    8        0.0000137869
   10    6   11    8        0.0031476784
   10    6    9    9       -0.0000000000
   10    6   10    9        0.0000071304
   10    6   11    9        0.0016282701
   10    6   10   10        0.0000000011
   10    6   11   10        0.0000003228
   10    6   11   11       -0.0000000004
   11    6   11    6        0.0129137930
   11    6    7    7        0.0000008405
   11    6    8    7        0.0000000026
   11    6    9    7       -0.0000000049
   11    6   10    7       -0.0000000000
   11    6   11    7        0.0000000000
   11    6    8    8        0.0000009835
   11    6    9    8        0.0000000527
   11    6   10    8        0.0029002650
   11    6   11    8       -0.0000025375
   11    6    9    9        0.0000008953
   11    6   10    9        0.0015002987
   11    6   11    9       -0.0000013137
   11    6   10   10        0.0000009213
   11    6   11   10        0.0000000016
   11    6   11   11        0.0000011255
    7    7    7    7        0.2900980138
    7    7    8    7       -0.0000416543
    7    7    9    7        0.0000805303
    7    7   10    7       -0.0000000000
    7    7   11    7        0.0000000786
    7    7    8    8        0.2740822314
    7    7    9    8       -0.0108132637
    7    7   10    8        0.0000000031
    7    7   11    8        0.0000000010
    7    7    9    9        0.2890586096
    7    7   10    9       -0.0000000119
    7    7   11    9        0.0000000003
    7    7   10   10        0.2721490913
    7    7   11   10       -0.0000465610
    7    7   11   11        0.2733004031
    8    7    8    7        0.0505895685
    8    7    9    7       -0.0719624293
    8    7   10    7        0.0000000381
    8    7   11    7        0.0000000003
    8    7    8    8        0.0000317635
    8    7    9    8       -0.0000042942
    8    7   10    8       -0.0000000040
    8    7   11    8        0.0000004676
    8    7    9    9        0.0000274157
    8    7   10    9       -0.0000000010
    8    7   11    9        0.0000001232
    8    7   10   10        0.0000826428
    8    7   11   10        0.0201180812
    8    7   11   11       -0.0000688402
    9    7    9    7        0.1521686033
    9    7   10    7       -0.0000000742
    9    7   11    7       -0.0000000005
    9    7    8    8       -0.0000532325
    9    7    9    8        0.0000021092
    9    7   10    8        0.0000000070
    9    7   11    8       -0.0000008273
    9    7    9    9       -0.0000611668
    9    7   10    9        0.0000000033
    9    7   11    9       -0.0000003665
    9    7   10   10       -0.0001597793
    9    7   11   10       -0.0388981485
    9    7   11   11        0.0001331116
   10    7   10    7        0.0137806558
   10    7   11    7       -0.0000004442
   10    7    8    8       -0.0000000006
   10    7    9    8        0.0000000005
   10    7   10    8        0.0000071303
   10    7   11    8        0.0016280974
   10    7    9    9        0.0000000005
   10    7   10    9       -0.0000137845
   10    7   11    9       -0.0031480982
   10    7   10   10        0.0000000001
   10    7   11   10        0.0000000268
   10    7   11   11       -0.0000000000
   11    7   11    7        0.0129189783
   11    7    8    8        0.0000001287
   11    7    9    8       -0.0000000421
   11    7   10    8        0.0015016345
   11    7   11    8       -0.0000013144
   11    7    9    9        0.0000000294
   11    7   10    9       -0.0029035948
   11    7   11    9        0.0000025432
   11    7   10   10        0.0000000775
   11    7   11   10        0.0000000002
   11    7   11   11        0.0000000947
    8    8    8    8        0.2992391037
    8    8    9    8       -0.0000000374
    8    8   10    8       -0.0000000032
    8    8   11    8        0.0000000019
    8    8    9    9        0.2726279964
    8    8   10    9       -0.0000000011
    8    8   11    9        0.0000000007
    8    8   10   10        0.2759767636
    8    8   11   10       -0.0000101874
    8    8   11   11        0.2775567482
    9    8    9    8        0.0139124157
    9    8   10    8       -0.0000000002
    9    8   11    8        0.0000000000
    9    8    9    9        0.0000000374
    9    8   10    9       -0.0000000003
    9    8   11    9        0.0000000001
    9    8   10   10        0.0000000001
    9    8   11   10        0.0000000349
    9    8   11   11       -0.0000000002
   10    8   10    8        0.0141875647
   10    8   11    8        0.0000018538
   10    8    9    9       -0.0000000026
   10    8   10    9        0.0000000000
   10    8   11    9        0.0000000027
   10    8   10   10       -0.0000000031
   10    8   11   10       -0.0000000022
   10    8   11   11        0.0000001274
   11    8   11    8        0.0134208397
   11    8    9    9        0.0000000018
   11    8   10    9        0.0000000027
   11    8   11    9       -0.0000000000
   11    8   10   10        0.0000000021
   11    8   11   10        0.0000003624
   11    8   11   11        0.0000000006
    9    9    9    9        0.2992439187
    9    9   10    9       -0.0000000013
    9    9   11    9        0.0000000008
    9    9   10   10        0.2759802572
    9    9   11   10       -0.0000102453
    9    9   11   11        0.2775591361
   10    9   10    9        0.0141887327
   10    9   11    9        0.0000018486
   10    9   10   10       -0.0000000013
   10    9   11   10       -0.0000000009
   10    9   11   11        0.0000000528
   11    9   11    9        0.0134222093
   11    9   10   10        0.0000000009
   11    9   11   10        0.0000001503
   11    9   11   11        0.0000000003
   10   10   10   10        0.3067408658
   10   10   11   10        0.0000180020
   10   10   11   11        0.2861187905
   11   10   11   10        0.0268175607
   11   10   11   11       -0.0000996828
   11   11   11   11        0.3194000068
 end_two_electron_integrals


 output epsi filename:./pspw_hf_H2.emovecs

 Total PSPW energy     :  -0.7724302640E+00


=== Spin Contamination ===

 <Sexact^2> =    0.0000000000000000     
 <S^2>      =    0.0000000000000000     



== Center of Charge ==

spin up     (    0.0000,    0.0000,    0.0005 )
spin down   (    0.0000,    0.0000,    0.0005 )
     total  (    0.0000,    0.0000,    0.0005 )
ionic       (    0.0000,    0.0000,    0.0000 )


== Molecular Dipole wrt Center of Mass ==

mu   =  (   -0.0000,   -0.0000,   -0.0009 ) au
|mu| =     0.0009 au,       0.0024 Debye

 output psi filename:./pspw_hf_H2.movecs

 Writing Crystallographic Information File:./H2.cif
   - cell not shifted (nwpw:cif_shift_cell .false.)


== Timing ==

cputime in seconds
  prologue    :   0.686091E+01
  main loop   :   0.112567E+04
  epilogue    :   0.300670E-01
  total       :   0.113256E+04
  cputime/step:   0.735729E+01       (     153 evalulations,      64 linesearches)


Time spent doing                        total          step       percent
  total time                 :   0.113257E+04  0.740241E+01       100.0 %
  i/o time                   :   0.505551E+00  0.330425E-02         0.0 %
  FFTs                       :   0.861292E+03  0.562936E+01        76.0 %
  dot products               :   0.108113E+02  0.706618E-01         1.0 %
  geodesic                   :   0.717449E-01  0.468921E-03         0.0 %
  ffm_dgemm                  :   0.113621E-01  0.742619E-04         0.0 %
  fmf_dgemm                  :   0.185897E-01  0.121501E-03         0.0 %
  mmm_dgemm                  :   0.315795E-02  0.206402E-04         0.0 %
  m_diagonalize              :   0.133241E-02  0.870858E-05         0.0 %
  local pseudopotentials     :   0.146391E+02  0.956805E-01         1.3 %
  non-local pseudopotentials :   0.931719E+01  0.608967E-01         0.8 %
  structure factors          :   0.213752E+01  0.139707E-01         0.2 %
  phase factors              :   0.146680E-04  0.958693E-07         0.0 %
  masking and packing        :   0.115225E+02  0.753103E-01         1.0 %
  queue fft                  :   0.139594E+02  0.912376E-01         1.2 %
  queue fft (serial)         :   0.493674E+01  0.322663E-01         0.4 %
  queue fft (message passing):   0.893272E+01  0.583838E-01         0.8 %
  HFX potential              :   0.131249E+02  0.857836E-01         1.2 %
  non-local psp FFM          :   0.865978E+01  0.565998E-01         0.8 %
  non-local psp FMF          :   0.179492E+00  0.117315E-02         0.0 %
  non-local psp FFM A        :   0.123346E+00  0.806185E-03         0.0 %
  non-local psp FFM B        :   0.269844E+00  0.176369E-02         0.0 %

== HFX Counters ==
  HFX Evalulations         =   153
  Lin ACE HFX Evalulations =     0


     >>>  JOB COMPLETED     AT Wed Apr 23 10:14:43 2025  <<<

 Task  times  cpu:     1054.6s     wall:     1132.6s


                                NWChem Input Module
                                -------------------


 Summary of allocated global arrays
-----------------------------------
  No active global arrays


MA_summarize_allocated_blocks: starting scan ...
MA_summarize_allocated_blocks: scan completed: 0 heap blocks, 0 stack blocks
MA usage statistics:

	allocation statistics:
					      heap	     stack
					      ----	     -----
	current number of blocks	         0	         0
	maximum number of blocks	       313	        36
	current total bytes		         0	         0
	maximum total bytes		  40850776	  13584728
	maximum total K-bytes		     40851	     13585
	maximum total M-bytes		        41	        14


                                     CITATION
                                     --------
                Please cite the following reference when publishing
                           results obtained with NWChem:

          E. Apra, E. J. Bylaska, W. A. de Jong, N. Govind, K. Kowalski,
       T. P. Straatsma, M. Valiev, H. J. J. van Dam, Y. Alexeev, J. Anchell,
       V. Anisimov, F. W. Aquino, R. Atta-Fynn, J. Autschbach, N. P. Bauman,
     J. C. Becca, D. E. Bernholdt, K. Bhaskaran-Nair, S. Bogatko, P. Borowski,
         J. Boschen, J. Brabec, A. Bruner, E. Cauet, Y. Chen, G. N. Chuev,
      C. J. Cramer, J. Daily, M. J. O. Deegan, T. H. Dunning Jr., M. Dupuis,
   K. G. Dyall, G. I. Fann, S. A. Fischer, A. Fonari, H. Fruchtl, L. Gagliardi,
      J. Garza, N. Gawande, S. Ghosh, K. Glaesemann, A. W. Gotz, J. Hammond,
       V. Helms, E. D. Hermes, K. Hirao, S. Hirata, M. Jacquelin, L. Jensen,
   B. G. Johnson, H. Jonsson, R. A. Kendall, M. Klemm, R. Kobayashi, V. Konkov,
      S. Krishnamoorthy, M. Krishnan, Z. Lin, R. D. Lins, R. J. Littlefield,
      A. J. Logsdail, K. Lopata, W. Ma, A. V. Marenich, J. Martin del Campo,
   D. Mejia-Rodriguez, J. E. Moore, J. M. Mullin, T. Nakajima, D. R. Nascimento,
    J. A. Nichols, P. J. Nichols, J. Nieplocha, A. Otero-de-la-Roza, B. Palmer,
    A. Panyala, T. Pirojsirikul, B. Peng, R. Peverati, J. Pittner, L. Pollack,
   R. M. Richard, P. Sadayappan, G. C. Schatz, W. A. Shelton, D. W. Silverstein,
   D. M. A. Smith, T. A. Soares, D. Song, M. Swart, H. L. Taylor, G. S. Thomas,
            V. Tipparaju, D. G. Truhlar, K. Tsemekhman, T. Van Voorhis,
      A. Vazquez-Mayagoitia, P. Verma, O. Villa, A. Vishnu, K. D. Vogiatzis,
        D. Wang, J. H. Weare, M. J. Williamson, T. L. Windus, K. Wolinski,
        A. T. Wong, Q. Wu, C. Yang, Q. Yu, M. Zacharias, Z. Zhang, Y. Zhao,
                                and R. J. Harrison
                        "NWChem: Past, present, and future
                         J. Chem. Phys. 152, 184102 (2020)
                               doi:10.1063/5.0004997

                                      AUTHORS
                                      -------
  E. Apra, E. J. Bylaska, N. Govind, K. Kowalski, M. Valiev, D. Mejia-Rodriguez,
       A. Kunitsa, N. P. Bauman, A. Panyala, W. A. de Jong, T. P. Straatsma,
   H. J. J. van Dam, D. Wang, T. L. Windus, J. Hammond, J. Autschbach, A. Woods,
    K. Bhaskaran-Nair, J. Brabec, K. Lopata, S. A. Fischer, S. Krishnamoorthy,
     M. Jacquelin, W. Ma, M. Klemm, O. Villa, Y. Chen, V. Anisimov, F. Aquino,
     S. Hirata, M. T. Hackler, E. Hermes, L. Jensen, J. E. Moore, J. C. Becca,
      V. Konjkov, T. Risthaus, M. Malagoli, A. Marenich, A. Otero-de-la-Roza,
        J. Mullin, P. Nichols, R. Peverati, J. Pittner, Y. Zhao, P.-D. Fan,
        A. Fonari, M. J. Williamson, R. J. Harrison, J. R. Rehr, M. Dupuis,
     D. Silverstein, D. M. A. Smith, J. Nieplocha, V. Tipparaju, M. Krishnan,
     B. E. Van Kuiken, A. Vazquez-Mayagoitia, M. Swart, Q. Wu, T. Van Voorhis,
     A. A. Auer, M. Nooijen, L. D. Crosby, E. Brown, G. Cisneros, G. I. Fann,
   H. Fruchtl, J. Garza, K. Hirao, R. A. Kendall, J. A. Nichols, K. Tsemekhman,
    K. Wolinski, J. Anchell, D. E. Bernholdt, P. Borowski, T. Clark, D. Clerc,
   H. Dachsel, M. J. O. Deegan, K. Dyall, D. Elwood, E. Glendening, M. Gutowski,
   A. C. Hess, J. Jaffe, B. G. Johnson, J. Ju, R. Kobayashi, R. Kutteh, Z. Lin,
   R. Littlefield, X. Long, B. Meng, T. Nakajima, S. Niu, L. Pollack, M. Rosing,
   K. Glaesemann, G. Sandrone, M. Stave, H. Taylor, G. Thomas, J. H. van Lenthe,
                               A. T. Wong, Z. Zhang.

 Total times  cpu:     1054.7s     wall:     1132.6s
