 argument  1 = H2-5.0.nw



============================== echo of input deck ==============================
title "swnc: e theory=pspw4 xc=hf formula=H2 charge=0 mult=1"
#machinejob:expert

echo

start pspw_hf_H2

memory heap 1200 mb stack 1200 mb global 10 mb

charge 0

geometry
H    0.00000    0.00000   -2.50000
H    0.00000    0.00000    2.50000
end

nwpw
  ### pseudopotential block begin ###
  ### pseudopotential block end   ###
  simulation_cell
     SC 15.0000
     boundary_conditions aperiodic
  end

  cutoff 50.0
  mult 1
  xc hf
  lmbfgs
  tolerances 1.0e-9 1.0e-9

  virtual 10
end
set nwpw:cif_filename H2

#set nwpw:CI_maxit_orb 15
#set nwpw:CI_maxit_linesearch 15
set pspw:HFX_screening_radius 14.0


set nwpw:2qintegrals .true.
set nwpw:3x3_virtual .true.

task pspw energy

================================================================================


                                         
                                         


             Northwest Computational Chemistry Package (NWChem) 7.2.3
             --------------------------------------------------------


                    Environmental Molecular Sciences Laboratory
                       Pacific Northwest National Laboratory
                                Richland, WA 99352

                              Copyright (c) 1994-2022
                       Pacific Northwest National Laboratory
                            Battelle Memorial Institute

             NWChem is an open-source computational chemistry package
                        distributed under the terms of the
                      Educational Community License (ECL) 2.0
             A copy of the license is included with this distribution
                              in the LICENSE.TXT file

                                  ACKNOWLEDGMENT
                                  --------------

            This software and its documentation were developed at the
            EMSL at Pacific Northwest National Laboratory, a multiprogram
            national laboratory, operated for the U.S. Department of Energy
            by Battelle under Contract Number DE-AC05-76RL01830. Support
            for this work was provided by the Department of Energy Office
            of Biological and Environmental Research, Office of Basic
            Energy Sciences, and the Office of Advanced Scientific Computing.


           Job information
           ---------------

    hostname        = mqs-al
    program         = nwchem
    date            = Tue Apr 15 09:33:12 2025

    compiled        = Thu_Oct_31_08:55:15_2024
    source          = /home/conda/feedstock_root/build_artifacts/nwchem_1730356057992/work
    nwchem branch   = 7.2.3
    nwchem revision = c400b04
    ga revision     = 5.8.0
    use scalapack   = T
    input           = H2-5.0.nw
    prefix          = pspw_hf_H2.
    data base       = ./pspw_hf_H2.db
    status          = startup
    nproc           =       24
    time left       =     -1s



           Memory information
           ------------------

    heap     =  157286396 doubles =   1200.0 Mbytes
    stack    =  157286401 doubles =   1200.0 Mbytes
    global   =    1310720 doubles =     10.0 Mbytes (distinct from heap & stack)
    total    =  315883517 doubles =   2410.0 Mbytes
    verify   = yes
    hardfail = no 


           Directory information
           ---------------------

  0 permanent = .
  0 scratch   = .




                                NWChem Input Module
                                -------------------


               swnc: e theory=pspw4 xc=hf formula=H2 charge=0 mult=1
               -----------------------------------------------------

 Scaling coordinates for geometry "geometry" by  1.889725989
 (inverse scale =  0.529177249)

  zeroes
  zeroes
  zeroes
  zeroes
  zeroes
  zeroes
  zeroes
  zeroes
  zeroes
  zeroes
  zeroes
  zeroes
  zeroes
  zeroes
  zeroes
  zeroes
  zeroes
  zeroes
  zeroes
  zeroes
  zeroes
  zeroes
  zeroes
  zeroes
  zeroes
  zeroes
  zeroes
  zeroes
  zeroes
  zeroes
  zeroes
  zeroes
  zeroes
  zeroes
  zeroes
  zeroes
  zeroes
  zeroes
  zeroes
  zeroes
  zeroes
  zeroes
  zeroes
  zeroes
  zeroes
  zeroes
  zeroes
  zeroes
 ORDER OF PRIMARY AXIS IS BEING SET TO 4
 D4H symmetry detected

          ------
          auto-z
          ------
     1 autoz failed with cvr_scaling = 1.2 changing to 1.3
     2 autoz failed with cvr_scaling = 1.3 changing to 1.4
     3 autoz failed with cvr_scaling = 1.4 changing to 1.5
     4 autoz failed with cvr_scaling = 1.5 changing to 1.6
     5 autoz failed with cvr_scaling = 1.6 changing to 1.7

 AUTOZ failed to generate good internal coordinates.
 Cartesian coordinates will be used in optimizations.



                             Geometry "geometry" -> ""
                             -------------------------

 Output coordinates in angstroms (scale by  1.889725989 to convert to a.u.)

  No.       Tag          Charge          X              Y              Z
 ---- ---------------- ---------- -------------- -------------- --------------
    1 H                    1.0000     0.00000000     0.00000000    -2.50000000
    2 H                    1.0000     0.00000000     0.00000000     2.50000000

      Atomic Mass 
      ----------- 

      H                  1.007825


 Effective nuclear repulsion energy (a.u.)       0.1058354498

            Nuclear Dipole moment (a.u.) 
            ----------------------------
        X                 Y               Z
 ---------------- ---------------- ----------------
     0.0000000000     0.0000000000     0.0000000000

      Symmetry information
      --------------------

 Group name             D4h       
 Group number             28
 Group order              16
 No. of unique centers     1

      Symmetry unique atoms

     1


            XYZ format geometry
            -------------------
     2
 geometry
 H                     0.00000000     0.00000000    -2.50000000
 H                     0.00000000     0.00000000     2.50000000

          ****************************************************
          *                                                  *
          *               NWPW PSPW Calculation              *
          *                                                  *
          * [ (Grassmann/Stiefel manifold implementation)  ] *
          *                                                  *
          *      [ NorthWest Chemistry implementation ]      *
          *                                                  *
          *            version #5.10   06/12/02              *
          *                                                  *
          *    This code was developed by Eric J. Bylaska,   *
          *    and was based upon algorithms and code        *
          *    developed by the group of Prof. John H. Weare *
          *                                                  *
          ****************************************************
     >>>  JOB STARTED       AT Tue Apr 15 09:33:12 2025  <<<
          ================ input data ========================

 input psi filename:./pspw_hf_H2.movecs

 number of processors used:        24
 processor grid           :  24 x   1
 parallel mapping         :2d-hilbert
 parallel mapping         :  balanced
 number of threads        :         1
 parallel io              :       off

 options:
      boundary conditions  = aperiodic   (version4)
      electron spin        = restricted
      exchange-correlation = Hartree-Fock
      - HFX relaxed
      - HFX restricted orbitals :    1
      - HFX free-space coulomb solver


 elements involved in the cluster:
      1: H   valence charge:  1.0000  lmax=  1
             comment    : Parameterized (Chem.Phys.Lett., vol 322, page 447) Hamman psp
             pseudpotential type            :   0
             highest angular component      :   1
             local potential used           :   1
             number of non-local projections:   1
             aperiodic cutoff radius        :  1.000
             cutoff =   0.800   0.800


 total charge:   0.000

 atomic composition:
     H   :    2

 number of electrons: spin up=     1 (   1 per task)  down=     1 (   1 per task) (Fourier space)
 number of orbitals : spin up=     1 (   1 per task)  down=     1 (   1 per task) (Fourier space)

 supercell:
      cell_name:  cell_default                                      
      lattice:    a1=<  15.000   0.000   0.000 >
                  a2=<   0.000  15.000   0.000 >
                  a3=<   0.000   0.000  15.000 >
      reciprocal: b1=<   0.419   0.000   0.000 >
                  b2=<   0.000   0.419   0.000 >
                  b3=<   0.000   0.000   0.419 >
      lattice:    a=      15.000 b=     15.000 c=      15.000
                  alpha=  90.000 beta=  90.000 gamma=  90.000
                  omega=      3375.0

      density cutoff=100.000  fft= 70x 70x 70(    80618 waves     3359 per task)
      wavefnc cutoff= 50.000  fft= 70x 70x 70(    28526 waves     1188 per task)

 technical parameters:
      time step=      5.80     fictitious mass=  400000.0
      tolerance=0.100E-08 (energy)   0.100E-08 (density)
      maximum iterations =      1000 (   10 inner    100 outer )





== Energy Calculation ==


          ============ Grassmann lmbfgs iteration ============
     >>>  ITERATION STARTED AT Tue Apr 15 09:33:18 2025  <<<
    iter.           Energy         DeltaE       DeltaRho 
    ------------------------------------------------------
      10   -0.7933127034E+00   -0.15510E-02    0.70128E-02
     -  10 steepest descent iterations performed
      20   -0.7983897627E+00   -0.13742E-03    0.71034E-04
      30   -0.7986630034E+00   -0.73860E-05    0.67935E-05
      40   -0.7986831091E+00   -0.39264E-06    0.18841E-06
      50   -0.7986845410E+00   -0.31219E-07    0.63282E-08
      60   -0.7986846542E+00   -0.33583E-08    0.23447E-09
      70   -0.7986846636E+00   -0.97138E-09    0.17419E-10
  *** tolerance ok. iteration terminated
     >>>  ITERATION ENDED   AT Tue Apr 15 09:33:25 2025  <<<


==  Summary Of Results  ==

 number of electrons: spin up=    1.00000  down=    1.00000 (real space)

 total     energy    :  -0.7986846636E+00 (   -0.39934E+00/ion)
 total orbital energy:  -0.6046967725E+00 (   -0.60470E+00/electron)
 hartree   energy    :   0.5996466818E+00 (    0.59965E+00/electron)
 exc-corr  energy    :   0.0000000000E+00 (    0.00000E+00/electron)
 HF exchange energy  :  -0.2998233409E+00 (   -0.29982E+00/electron)
 ion-ion   energy    :   0.1058354498E+00 (    0.52918E-01/ion)

 kinetic (planewave) :   0.6073137751E+00 (    0.60731E+00/electron)
 V_local (planewave) :  -0.1665461329E+01 (   -0.16655E+01/electron)
 V_nl    (planewave) :  -0.1461959007E+00 (   -0.14620E+00/electron)
 V_Coul  (planewave) :   0.1199293364E+01 (    0.11993E+01/electron)
 V_xc.   (planewave) :   0.0000000000E+00 (    0.00000E+00/electron)
 K.S. HFX energy     :  -0.5996466818E+00 (   -0.59965E+00/electron)
 Virial Coefficient  :  -0.1008315455E+01

 orbital energies:
    -0.3023484E+00 (  -8.227eV)


== Virtual Orbital Calculation ==


 input epsi filename:./pspw_hf_H2.emovecs

 COVOs Mimimization
 ------------------
CI gradient algorithm =         3
maxit_sweeps          =         3
maxit_orb             =       120
maxit_linesearch      =        15
maxerror              = 0.100E-08

     orb,it,eci,eold,eci-eold=                    1                    1 -0.91947631061106772      -0.91709748429857507       -2.3788263124926434E-003 F
     orb,it,eci,eold,eci-eold=                    1                    2 -0.91963790924425859      -0.91947631061106772       -1.6159863319087364E-004 F
     orb,it,eci,eold,eci-eold=                    1                    3 -0.93365242340466947      -0.91963790924425859       -1.4014514160410885E-002 F
     orb,it,eci,eold,eci-eold=                    1                    4 -0.93687086967869526      -0.93365242340466947       -3.2184462740257880E-003 F
     orb,it,eci,eold,eci-eold=                    1                    5 -0.93910815909312917      -0.93687086967869526       -2.2372894144339073E-003 F
     orb,it,eci,eold,eci-eold=                    1                    6 -0.94273530189225663      -0.93910815909312917       -3.6271427991274585E-003 F
     orb,it,eci,eold,eci-eold=                    1                    7 -0.94716831253509315      -0.94273530189225663       -4.4330106428365212E-003 F
     orb,it,eci,eold,eci-eold=                    1                    8 -0.94916412156987240      -0.94716831253509315       -1.9958090347792501E-003 F
     orb,it,eci,eold,eci-eold=                    1                    9 -0.94955721589570097      -0.94916412156987240       -3.9309432582856907E-004 F
     orb,it,eci,eold,eci-eold=                    1                   10 -0.95450112947829857      -0.94955721589570097       -4.9439135825976033E-003 F
     orb,it,eci,eold,eci-eold=                    1                   11 -0.95682829584456486      -0.95450112947829857       -2.3271663662662867E-003 F
     orb,it,eci,eold,eci-eold=                    1                   12 -0.95709605577341983      -0.95682829584456486       -2.6775992885497146E-004 F
     orb,it,eci,eold,eci-eold=                    1                   13 -0.95895774840056380      -0.95709605577341983       -1.8616926271439738E-003 F
     orb,it,eci,eold,eci-eold=                    1                   14 -0.95963389323180559      -0.95895774840056380       -6.7614483124178726E-004 F
     orb,it,eci,eold,eci-eold=                    1                   15 -0.96073910998682821      -0.95963389323180559       -1.1052167550226200E-003 F
     orb,it,eci,eold,eci-eold=                    1                   16 -0.96354432131624379      -0.96073910998682821       -2.8052113294155800E-003 F
     orb,it,eci,eold,eci-eold=                    1                   17 -0.96506002061929741      -0.96354432131624379       -1.5156993030536192E-003 F
     orb,it,eci,eold,eci-eold=                    1                   18 -0.96629014571308658      -0.96506002061929741       -1.2301250937891695E-003 F
     orb,it,eci,eold,eci-eold=                    1                   19 -0.96693599506811823      -0.96629014571308658       -6.4584935503164687E-004 F
     orb,it,eci,eold,eci-eold=                    1                   20 -0.96866004892389546      -0.96693599506811823       -1.7240538557772300E-003 F
     orb,it,eci,eold,eci-eold=                    1                   21 -0.96900438796473098      -0.96866004892389546       -3.4433904083552846E-004 F
     orb,it,eci,eold,eci-eold=                    1                   22 -0.96906152582751481      -0.96900438796473098       -5.7137862783829263E-005 F
     orb,it,eci,eold,eci-eold=                    1                   23 -0.97004145907333117      -0.96906152582751481       -9.7993324581635566E-004 F
     orb,it,eci,eold,eci-eold=                    1                   24 -0.97053863656595807      -0.97004145907333117       -4.9717749262689903E-004 F
     orb,it,eci,eold,eci-eold=                    1                   25 -0.97077686203456037      -0.97053863656595807       -2.3822546860230442E-004 F
     orb,it,eci,eold,eci-eold=                    1                   26 -0.97163657670034809      -0.97077686203456037       -8.5971466578771416E-004 F
     orb,it,eci,eold,eci-eold=                    1                   27 -0.97173875015313560      -0.97163657670034809       -1.0217345278751289E-004 F
     orb,it,eci,eold,eci-eold=                    1                   28 -0.97174720129984649      -0.97173875015313560       -8.4511467108860927E-006 F
     orb,it,eci,eold,eci-eold=                    1                   29 -0.97229592752665372      -0.97174720129984649       -5.4872622680723904E-004 F
     orb,it,eci,eold,eci-eold=                    1                   30 -0.97261445169785310      -0.97229592752665372       -3.1852417119937471E-004 F
     orb,it,eci,eold,eci-eold=                    1                   31 -0.97276880896232032      -0.97261445169785310       -1.5435726446721976E-004 F
     orb,it,eci,eold,eci-eold=                    1                   32 -0.97327100371113895      -0.97276880896232032       -5.0219474881862958E-004 F
     orb,it,eci,eold,eci-eold=                    1                   33 -0.97333508133138535      -0.97327100371113895       -6.4077620246405509E-005 F
     orb,it,eci,eold,eci-eold=                    1                   34 -0.97335948076742351      -0.97333508133138535       -2.4399436038158306E-005 F
     orb,it,eci,eold,eci-eold=                    1                   35 -0.97376255763975328      -0.97335948076742351       -4.0307687232976619E-004 F
     orb,it,eci,eold,eci-eold=                    1                   36 -0.97394432786382046      -0.97376255763975328       -1.8177022406717924E-004 F
     orb,it,eci,eold,eci-eold=                    1                   37 -0.97398296911466553      -0.97394432786382046       -3.8641250845072861E-005 F
     orb,it,eci,eold,eci-eold=                    1                   38 -0.97428098554735398      -0.97398296911466553       -2.9801643268845268E-004 F
     orb,it,eci,eold,eci-eold=                    1                   39 -0.97438041149574406      -0.97428098554735398       -9.9425948390075014E-005 F
     orb,it,eci,eold,eci-eold=                    1                   40 -0.97440368801020771      -0.97438041149574406       -2.3276514463654863E-005 F
     orb,it,eci,eold,eci-eold=                    1                   41 -0.97464217576730250      -0.97440368801020771       -2.3848775709478520E-004 F
     orb,it,eci,eold,eci-eold=                    1                   42 -0.97475860784677448      -0.97464217576730250       -1.1643207947198420E-004 F
     orb,it,eci,eold,eci-eold=                    1                   43 -0.97479694930692284      -0.97475860784677448       -3.8341460148361151E-005 F
     orb,it,eci,eold,eci-eold=                    1                   44 -0.97498256818840856      -0.97479694930692284       -1.8561888148571626E-004 F
     orb,it,eci,eold,eci-eold=                    1                   45 -0.97503113262478447      -0.97498256818840856       -4.8564436375908571E-005 F
     orb,it,eci,eold,eci-eold=                    1                   46 -0.97504787029759843      -0.97503113262478447       -1.6737672813960103E-005 F
     orb,it,eci,eold,eci-eold=                    1                   47 -0.97520517805977436      -0.97504787029759843       -1.5730776217592890E-004 F
     orb,it,eci,eold,eci-eold=                    1                   48 -0.97526547261816632      -0.97520517805977436       -6.0294558391960074E-005 F
     orb,it,eci,eold,eci-eold=                    1                   49 -0.97527766853361897      -0.97526547261816632       -1.2195915452650752E-005 F
     orb,it,eci,eold,eci-eold=                    1                   50 -0.97539866207284609      -0.97527766853361897       -1.2099353922712108E-004 F
     orb,it,eci,eold,eci-eold=                    1                   51 -0.97544382471238233      -0.97539866207284609       -4.5162639536244775E-005 F
     orb,it,eci,eold,eci-eold=                    1                   52 -0.97545285418590477      -0.97544382471238233       -9.0294735224372147E-006 F
     orb,it,eci,eold,eci-eold=                    1                   53 -0.97555217865661625      -0.97545285418590477       -9.9324470711481538E-005 F
     orb,it,eci,eold,eci-eold=                    1                   54 -0.97560339964753495      -0.97555217865661625       -5.1220990918698917E-005 F
     orb,it,eci,eold,eci-eold=                    1                   55 -0.97561857120701945      -0.97560339964753495       -1.5171559484494779E-005 F
     orb,it,eci,eold,eci-eold=                    1                   56 -0.97569731484292965      -0.97561857120701945       -7.8743635910205612E-005 F
     orb,it,eci,eold,eci-eold=                    1                   57 -0.97572975704015219      -0.97569731484292965       -3.2442197222537494E-005 F
     orb,it,eci,eold,eci-eold=                    1                   58 -0.97574314611382762      -0.97572975704015219       -1.3389073675429408E-005 F
     orb,it,eci,eold,eci-eold=                    1                   59 -0.97580767519071521      -0.97574314611382762       -6.4529076887587244E-005 F
     orb,it,eci,eold,eci-eold=                    1                   60 -0.97582666605755586      -0.97580767519071521       -1.8990866840651321E-005 F
     orb,it,eci,eold,eci-eold=                    1                   61 -0.97583319076970654      -0.97582666605755586       -6.5247121506795125E-006 F
     orb,it,eci,eold,eci-eold=                    1                   62 -0.97588427349809026      -0.97583319076970654       -5.1082728383722298E-005 F
     orb,it,eci,eold,eci-eold=                    1                   63 -0.97590317418356487      -0.97588427349809026       -1.8900685474609880E-005 F
     orb,it,eci,eold,eci-eold=                    1                   64 -0.97590885201574529      -0.97590317418356487       -5.6778321804173970E-006 F
     orb,it,eci,eold,eci-eold=                    1                   65 -0.97595252222427276      -0.97590885201574529       -4.3670208527468724E-005 F
     orb,it,eci,eold,eci-eold=                    1                   66 -0.97596887888802486      -0.97595252222427276       -1.6356663752103984E-005 F
     orb,it,eci,eold,eci-eold=                    1                   67 -0.97597194696516221      -0.97596887888802486       -3.0680771373470250E-006 F
     orb,it,eci,eold,eci-eold=                    1                   68 -0.97600386063165168      -0.97597194696516221       -3.1913666489469250E-005 F
     orb,it,eci,eold,eci-eold=                    1                   69 -0.97601533897107173      -0.97600386063165168       -1.1478339420056827E-005 F
     orb,it,eci,eold,eci-eold=                    1                   70 -0.97601745474900736      -0.97601533897107173       -2.1157779356295592E-006 F
     orb,it,eci,eold,eci-eold=                    1                   71 -0.97604098033923270      -0.97601745474900736       -2.3525590225337289E-005 F
     orb,it,eci,eold,eci-eold=                    1                   72 -0.97605019309666752      -0.97604098033923270       -9.2127574348177532E-006 F
     orb,it,eci,eold,eci-eold=                    1                   73 -0.97605275919716250      -0.97605019309666752       -2.5661004949828481E-006 F
     orb,it,eci,eold,eci-eold=                    1                   74 -0.97607164775317834      -0.97605275919716250       -1.8888556015839164E-005 F
     orb,it,eci,eold,eci-eold=                    1                   75 -0.97607814551782268      -0.97607164775317834       -6.4977646443420412E-006 F
     orb,it,eci,eold,eci-eold=                    1                   76 -0.97607991573064112      -0.97607814551782268       -1.7702128184415855E-006 F
     orb,it,eci,eold,eci-eold=                    1                   77 -0.97609600567872135      -0.97607991573064112       -1.6089948080222349E-005 F
     orb,it,eci,eold,eci-eold=                    1                   78 -0.97610360216966408      -0.97609600567872135       -7.5964909427295169E-006 F
     orb,it,eci,eold,eci-eold=                    1                   79 -0.97610578456598884      -0.97610360216966408       -2.1823963247680211E-006 F
     orb,it,eci,eold,eci-eold=                    1                   80 -0.97611891661271899      -0.97610578456598884       -1.3132046730146563E-005 F
     orb,it,eci,eold,eci-eold=                    1                   81 -0.97612372946521464      -0.97611891661271899       -4.8128524956503327E-006 F
     orb,it,eci,eold,eci-eold=                    1                   82 -0.97612493963178837      -0.97612372946521464       -1.2101665737285217E-006 F
     orb,it,eci,eold,eci-eold=                    1                   83 -0.97613501683721937      -0.97612493963178837       -1.0077205431002767E-005 F
     orb,it,eci,eold,eci-eold=                    1                   84 -0.97613965632574928      -0.97613501683721937       -4.6394885299116950E-006 F
     orb,it,eci,eold,eci-eold=                    1                   85 -0.97614134531174024      -0.97613965632574928       -1.6889859909552385E-006 F
     orb,it,eci,eold,eci-eold=                    1                   86 -0.97615002070746670      -0.97614134531174024       -8.6753957264651405E-006 F
     orb,it,eci,eold,eci-eold=                    1                   87 -0.97615258660156168      -0.97615002070746670       -2.5658940949746523E-006 F
     orb,it,eci,eold,eci-eold=                    1                   88 -0.97615330562272784      -0.97615258660156168       -7.1902116616229250E-007 F
     orb,it,eci,eold,eci-eold=                    1                   89 -0.97616084691374816      -0.97615330562272784       -7.5412910203187522E-006 F
     orb,it,eci,eold,eci-eold=                    1                   90 -0.97616399829301870      -0.97616084691374816       -3.1513792705384347E-006 F
     orb,it,eci,eold,eci-eold=                    1                   91 -0.97616442897780831      -0.97616399829301870       -4.3068478960961443E-007 F
     orb,it,eci,eold,eci-eold=                    1                   92 -0.97616982834782229      -0.97616442897780831       -5.3993700139809420E-006 F
     orb,it,eci,eold,eci-eold=                    1                   93 -0.97617234917353179      -0.97616982834782229       -2.5208257095066244E-006 F
     orb,it,eci,eold,eci-eold=                    1                   94 -0.97617308668699365      -0.97617234917353179       -7.3751346185702005E-007 F
     orb,it,eci,eold,eci-eold=                    1                   95 -0.97617750626042565      -0.97617308668699365       -4.4195734320018332E-006 F
     orb,it,eci,eold,eci-eold=                    1                   96 -0.97617911801237378      -0.97617750626042565       -1.6117519481273490E-006 F
     orb,it,eci,eold,eci-eold=                    1                   97 -0.97617964893496678      -0.97617911801237378       -5.3092259300058231E-007 F
     orb,it,eci,eold,eci-eold=                    1                   98 -0.97618326326988092      -0.97617964893496678       -3.6143349141370962E-006 F
     orb,it,eci,eold,eci-eold=                    1                   99 -0.97618434297846235      -0.97618326326988092       -1.0797085814306939E-006 F
     orb,it,eci,eold,eci-eold=                    1                  100 -0.97618446430582362      -0.97618434297846235       -1.2132736126879706E-007 F
     orb,it,eci,eold,eci-eold=                    1                  101 -0.97618682495594555      -0.97618446430582362       -2.3606501219353149E-006 F
     orb,it,eci,eold,eci-eold=                    1                  102 -0.97618769947356532      -0.97618682495594555       -8.7451761976442555E-007 F
     orb,it,eci,eold,eci-eold=                    1                  103 -0.97618795711118167      -0.97618769947356532       -2.5763761635211324E-007 F
     orb,it,eci,eold,eci-eold=                    1                  104 -0.97619010363234815      -0.97618795711118167       -2.1465211664795092E-006 F
     orb,it,eci,eold,eci-eold=                    1                  105 -0.97619113309498351      -0.97619010363234815       -1.0294626353601899E-006 F
     orb,it,eci,eold,eci-eold=                    1                  106 -0.97619145059956436      -0.97619113309498351       -3.1750458084900401E-007 F
     orb,it,eci,eold,eci-eold=                    1                  107 -0.97619323430607519      -0.97619145059956436       -1.7837065108272654E-006 F
     orb,it,eci,eold,eci-eold=                    1                  108 -0.97619395183657165      -0.97619323430607519       -7.1753049646350320E-007 F
     orb,it,eci,eold,eci-eold=                    1                  109 -0.97619418886837994      -0.97619395183657165       -2.3703180829226511E-007 F
     orb,it,eci,eold,eci-eold=                    1                  110 -0.97619568896432207      -0.97619418886837994       -1.5000959421307414E-006 F
     orb,it,eci,eold,eci-eold=                    1                  111 -0.97619629367262906      -0.97619568896432207       -6.0470830698378109E-007 F
     orb,it,eci,eold,eci-eold=                    1                  112 -0.97619647980243252      -0.97619629367262906       -1.8612980345888985E-007 F
     orb,it,eci,eold,eci-eold=                    1                  113 -0.97619774844952356      -0.97619647980243252       -1.2686470910461267E-006 F
     orb,it,eci,eold,eci-eold=                    1                  114 -0.97619818447230422      -0.97619774844952356       -4.3602278065879574E-007 F
     orb,it,eci,eold,eci-eold=                    1                  115 -0.97619824322665427      -0.97619818447230422       -5.8754350051870574E-008 F
     orb,it,eci,eold,eci-eold=                    1                  116 -0.97619911742486776      -0.97619824322665427       -8.7419821348522220E-007 F
     orb,it,eci,eold,eci-eold=                    1                  117 -0.97619949392674410      -0.97619911742486776       -3.7650187634241661E-007 F
     orb,it,eci,eold,eci-eold=                    1                  118 -0.97619960450390786      -0.97619949392674410       -1.1057716375884041E-007 F
     orb,it,eci,eold,eci-eold=                    1                  119 -0.97620034631084240      -0.97619960450390786       -7.4180693454550806E-007 F
     orb,it,eci,eold,eci-eold=                    1                  120 -0.97620064783323968      -0.97620034631084240       -3.0152239727243568E-007 F
     orb,it,eci,eold,eci-eold=                    1                  121 -0.97620074855762939      -0.97620064783323968       -1.0072438971775455E-007 F
     orbital   1 current e= -0.152623E+00 error=0.656E-01 (eci= -0.976200749E+00 error=0.101E-06) iterations 121(   0 preconditioned, Ep,Sp= 20.0  200.0)
     orb,it,eci,eold,eci-eold=                    1                    1 -0.97620260476139264      -0.97620074855762939       -1.8562037632507966E-006 F
     orb,it,eci,eold,eci-eold=                    1                    2 -0.97620307945505025      -0.97620260476139264       -4.7469365760388627E-007 F
     orb,it,eci,eold,eci-eold=                    1                    3 -0.97620345222627469      -0.97620307945505025       -3.7277122444390187E-007 F
     orb,it,eci,eold,eci-eold=                    1                    4 -0.97620407726335701      -0.97620345222627469       -6.2503708231353983E-007 F
     orb,it,eci,eold,eci-eold=                    1                    5 -0.97620445854836335      -0.97620407726335701       -3.8128500634559970E-007 F
     orb,it,eci,eold,eci-eold=                    1                    6 -0.97620466488735724      -0.97620445854836335       -2.0633899389110866E-007 F
     orb,it,eci,eold,eci-eold=                    1                    7 -0.97620467739961081      -0.97620466488735724       -1.2512253566576703E-008 F
     orb,it,eci,eold,eci-eold=                    1                    8 -0.97620468587030995      -0.97620467739961081       -8.4706991421157340E-009 F
     orb,it,eci,eold,eci-eold=                    1                    9 -0.97620491445259250      -0.97620468587030995       -2.2858228254651891E-007 F
     orb,it,eci,eold,eci-eold=                    1                   10 -0.97620502759529570      -0.97620491445259250       -1.1314270320639253E-007 F
     orb,it,eci,eold,eci-eold=                    1                   11 -0.97620510214061662      -0.97620502759529570       -7.4545320916108437E-008 F
     orb,it,eci,eold,eci-eold=                    1                   12 -0.97620513270816756      -0.97620510214061662       -3.0567550934890164E-008 F
     orb,it,eci,eold,eci-eold=                    1                   13 -0.97620517317433564      -0.97620513270816756       -4.0466168083064247E-008 F
     orb,it,eci,eold,eci-eold=                    1                   14 -0.97620519798478211      -0.97620517317433564       -2.4810446475065362E-008 F
     orb,it,eci,eold,eci-eold=                    1                   15 -0.97620522780007868      -0.97620519798478211       -2.9815296564983385E-008 F
     orb,it,eci,eold,eci-eold=                    1                   16 -0.97620524270244680      -0.97620522780007868       -1.4902368117297726E-008 F
     orb,it,eci,eold,eci-eold=                    1                   17 -0.97620525613057352      -0.97620524270244680       -1.3428126721670708E-008 F
     orb,it,eci,eold,eci-eold=                    1                   18 -0.97620526338836000      -0.97620525613057352       -7.2577864829170835E-009 F
     orb,it,eci,eold,eci-eold=                    1                   19 -0.97620527858273920      -0.97620526338836000       -1.5194379199279240E-008 F
     orb,it,eci,eold,eci-eold=                    1                   20 -0.97620528659260875      -0.97620527858273920       -8.0098695454111635E-009 F
     orb,it,eci,eold,eci-eold=                    1                   21 -0.97620529079966045      -0.97620528659260875       -4.2070517070058600E-009 F
     orb,it,eci,eold,eci-eold=                    1                   22 -0.97620529242433818      -0.97620529079966045       -1.6246777256867517E-009 F
     orb,it,eci,eold,eci-eold=                    1                   23 -0.97620529720576554      -0.97620529242433818       -4.7814273651525241E-009 F
     orb,it,eci,eold,eci-eold=                    1                   24 -0.97620529750627993      -0.97620529720576554       -3.0051439114942013E-010 F
     orbital   1 current e= -0.152606E+00 error=0.178E-04 (eci= -0.976205298E+00 error=0.301E-09) iterations  24(   0 preconditioned, Ep,Sp= 20.0  200.0)
     orb,it,eci,eold,eci-eold=                    1                    1 -0.97620530548874196      -0.97620529750627993       -7.9824620247137545E-009 F
     orb,it,eci,eold,eci-eold=                    1                    2 -0.97620530572035835      -0.97620530548874196       -2.3161639273183710E-010 F
     orbital   1 current e= -0.152605E+00 error=0.251E-06 (eci= -0.976205306E+00 error=0.232E-09) iterations   2(   0 preconditioned, Ep,Sp= 20.0  200.0)
     orb,it,eci,eold,eci-eold=                    2                    1 -0.80146818706703626      -0.80146780778383542       -3.7928320084645861E-007 F
     orb,it,eci,eold,eci-eold=                    2                    2 -0.80149057299985127      -0.80146818706703626       -2.2385932815005560E-005 F
     orb,it,eci,eold,eci-eold=                    2                    3 -0.80172679193549179      -0.80149057299985127       -2.3621893564051977E-004 F
     orb,it,eci,eold,eci-eold=                    2                    4 -0.80184484289736313      -0.80172679193549179       -1.1805096187134101E-004 F
     orb,it,eci,eold,eci-eold=                    2                    5 -0.80199664602784071      -0.80184484289736313       -1.5180313047757910E-004 F
     orb,it,eci,eold,eci-eold=                    2                    6 -0.80200365554043640      -0.80199664602784071       -7.0095125956903814E-006 F
     orb,it,eci,eold,eci-eold=                    2                    7 -0.80202387947096998      -0.80200365554043640       -2.0223930533580514E-005 F
     orb,it,eci,eold,eci-eold=                    2                    8 -0.80211865102207291      -0.80202387947096998       -9.4771551102934559E-005 F
     orb,it,eci,eold,eci-eold=                    2                    9 -0.80215772993994039      -0.80211865102207291       -3.9078917867474416E-005 F
     orb,it,eci,eold,eci-eold=                    2                   10 -0.80217704062478312      -0.80215772993994039       -1.9310684842732684E-005 F
     orb,it,eci,eold,eci-eold=                    2                   11 -0.80224295074168117      -0.80217704062478312       -6.5910116898049154E-005 F
     orb,it,eci,eold,eci-eold=                    2                   12 -0.80228228912845423      -0.80224295074168117       -3.9338386773057898E-005 F
     orb,it,eci,eold,eci-eold=                    2                   13 -0.80231015395010108      -0.80228228912845423       -2.7864821646850224E-005 F
     orb,it,eci,eold,eci-eold=                    2                   14 -0.80232372892629311      -0.80231015395010108       -1.3574976192032295E-005 F
     orb,it,eci,eold,eci-eold=                    2                   15 -0.80236422721602019      -0.80232372892629311       -4.0498289727075587E-005 F
     orb,it,eci,eold,eci-eold=                    2                   16 -0.80238032908013468      -0.80236422721602019       -1.6101864114492770E-005 F
     orb,it,eci,eold,eci-eold=                    2                   17 -0.80238527061188902      -0.80238032908013468       -4.9415317543433090E-006 F
     orb,it,eci,eold,eci-eold=                    2                   18 -0.80240689622988515      -0.80238527061188902       -2.1625617996123836E-005 F
     orb,it,eci,eold,eci-eold=                    2                   19 -0.80241580186120243      -0.80240689622988515       -8.9056313172797275E-006 F
     orb,it,eci,eold,eci-eold=                    2                   20 -0.80242458091387969      -0.80241580186120243       -8.7790526772657529E-006 F
     orb,it,eci,eold,eci-eold=                    2                   21 -0.80245933077347165      -0.80242458091387969       -3.4749859591953758E-005 F
     orb,it,eci,eold,eci-eold=                    2                   22 -0.80246471745171521      -0.80245933077347165       -5.3866782435685323E-006 F
     orb,it,eci,eold,eci-eold=                    2                   23 -0.80246566770881878      -0.80246471745171521       -9.5025710356022586E-007 F
     orb,it,eci,eold,eci-eold=                    2                   24 -0.80248796392460164      -0.80246566770881878       -2.2296215782868778E-005 F
     orb,it,eci,eold,eci-eold=                    2                   25 -0.80249233052195423      -0.80248796392460164       -4.3665973525897073E-006 F
     orb,it,eci,eold,eci-eold=                    2                   26 -0.80249333462530326      -0.80249233052195423       -1.0041033490226781E-006 F
     orb,it,eci,eold,eci-eold=                    2                   27 -0.80251018626988713      -0.80249333462530326       -1.6851644583870673E-005 F
     orb,it,eci,eold,eci-eold=                    2                   28 -0.80251897705043218      -0.80251018626988713       -8.7907805450537779E-006 F
     orb,it,eci,eold,eci-eold=                    2                   29 -0.80252057011769451      -0.80251897705043218       -1.5930672623287734E-006 F
     orb,it,eci,eold,eci-eold=                    2                   30 -0.80253168102665384      -0.80252057011769451       -1.1110908959333088E-005 F
     orb,it,eci,eold,eci-eold=                    2                   31 -0.80253790347593867      -0.80253168102665384       -6.2224492848317325E-006 F
     orb,it,eci,eold,eci-eold=                    2                   32 -0.80254153787866223      -0.80253790347593867       -3.6344027235513110E-006 F
     orb,it,eci,eold,eci-eold=                    2                   33 -0.80255372440846917      -0.80254153787866223       -1.2186529806945678E-005 F
     orb,it,eci,eold,eci-eold=                    2                   34 -0.80255487479498122      -0.80255372440846917       -1.1503865120499057E-006 F
     orb,it,eci,eold,eci-eold=                    2                   35 -0.80255562423644844      -0.80255487479498122       -7.4944146721822591E-007 F
     orb,it,eci,eold,eci-eold=                    2                   36 -0.80256595964438726      -0.80255562423644844       -1.0335407938821817E-005 F
     orb,it,eci,eold,eci-eold=                    2                   37 -0.80256773074674759      -0.80256595964438726       -1.7711023603261822E-006 F
     orb,it,eci,eold,eci-eold=                    2                   38 -0.80256788999775952      -0.80256773074674759       -1.5925101193303703E-007 F
     orb,it,eci,eold,eci-eold=                    2                   39 -0.80257360652608534      -0.80256788999775952       -5.7165283258164834E-006 F
     orb,it,eci,eold,eci-eold=                    2                   40 -0.80257644312074861      -0.80257360652608534       -2.8365946632691319E-006 F
     orb,it,eci,eold,eci-eold=                    2                   41 -0.80257756198284191      -0.80257644312074861       -1.1188620933078042E-006 F
     orb,it,eci,eold,eci-eold=                    2                   42 -0.80258293900403244      -0.80257756198284191       -5.3770211905224130E-006 F
     orb,it,eci,eold,eci-eold=                    2                   43 -0.80258531542133438      -0.80258293900403244       -2.3764173019413803E-006 F
     orb,it,eci,eold,eci-eold=                    2                   44 -0.80258617202831439      -0.80258531542133438       -8.5660698001532865E-007 F
     orb,it,eci,eold,eci-eold=                    2                   45 -0.80259004164332459      -0.80258617202831439       -3.8696150101991122E-006 F
     orb,it,eci,eold,eci-eold=                    2                   46 -0.80259134185956893      -0.80259004164332459       -1.3002162443376264E-006 F
     orb,it,eci,eold,eci-eold=                    2                   47 -0.80259194562835923      -0.80259134185956893       -6.0376879029711006E-007 F
     orb,it,eci,eold,eci-eold=                    2                   48 -0.80259520914129134      -0.80259194562835923       -3.2635129321167966E-006 F
     orb,it,eci,eold,eci-eold=                    2                   49 -0.80259684021165822      -0.80259520914129134       -1.6310703668809268E-006 F
     orb,it,eci,eold,eci-eold=                    2                   50 -0.80259756522110193      -0.80259684021165822       -7.2500944370279541E-007 F
     orb,it,eci,eold,eci-eold=                    2                   51 -0.80259988296649509      -0.80259756522110193       -2.3177453931655378E-006 F
     orb,it,eci,eold,eci-eold=                    2                   52 -0.80260029840346014      -0.80259988296649509       -4.1543696505108585E-007 F
     orb,it,eci,eold,eci-eold=                    2                   53 -0.80260062706753366      -0.80260029840346014       -3.2866407351228588E-007 F
     orb,it,eci,eold,eci-eold=                    2                   54 -0.80260272559284174      -0.80260062706753366       -2.0985253080807453E-006 F
     orb,it,eci,eold,eci-eold=                    2                   55 -0.80260346323977072      -0.80260272559284174       -7.3764692898325990E-007 F
     orb,it,eci,eold,eci-eold=                    2                   56 -0.80260364415255103      -0.80260346323977072       -1.8091278031207025E-007 F
     orb,it,eci,eold,eci-eold=                    2                   57 -0.80260506954752597      -0.80260364415255103       -1.4253949749409855E-006 F
     orb,it,eci,eold,eci-eold=                    2                   58 -0.80260554503203951      -0.80260506954752597       -4.7548451354018084E-007 F
     orb,it,eci,eold,eci-eold=                    2                   59 -0.80260571910106182      -0.80260554503203951       -1.7406902230732157E-007 F
     orb,it,eci,eold,eci-eold=                    2                   60 -0.80260701954403157      -0.80260571910106182       -1.3004429697538455E-006 F
     orb,it,eci,eold,eci-eold=                    2                   61 -0.80260747672923238      -0.80260701954403157       -4.5718520080839653E-007 F
     orb,it,eci,eold,eci-eold=                    2                   62 -0.80260754616505547      -0.80260747672923238       -6.9435823091268389E-008 F
     orb,it,eci,eold,eci-eold=                    2                   63 -0.80260850284547258      -0.80260754616505547       -9.5668041710794682E-007 F
     orb,it,eci,eold,eci-eold=                    2                   64 -0.80260889401055024      -0.80260850284547258       -3.9116507766223663E-007 F
     orb,it,eci,eold,eci-eold=                    2                   65 -0.80260898405724124      -0.80260889401055024       -9.0046690992551248E-008 F
     orb,it,eci,eold,eci-eold=                    2                   66 -0.80260985937797091      -0.80260898405724124       -8.7532072967633212E-007 F
     orb,it,eci,eold,eci-eold=                    2                   67 -0.80261032944815891      -0.80260985937797091       -4.7007018799671840E-007 F
     orb,it,eci,eold,eci-eold=                    2                   68 -0.80261045366217454      -0.80261032944815891       -1.2421401562878742E-007 F
     orb,it,eci,eold,eci-eold=                    2                   69 -0.80261113423745645      -0.80261045366217454       -6.8057528190834660E-007 F
     orb,it,eci,eold,eci-eold=                    2                   70 -0.80261134258504652      -0.80261113423745645       -2.0834759006937986E-007 F
     orb,it,eci,eold,eci-eold=                    2                   71 -0.80261138489482819      -0.80261134258504652       -4.2309781678184777E-008 F
     orb,it,eci,eold,eci-eold=                    2                   72 -0.80261189298969704      -0.80261138489482819       -5.0809486884517696E-007 F
     orb,it,eci,eold,eci-eold=                    2                   73 -0.80261207482233377      -0.80261189298969704       -1.8183263672533201E-007 F
     orb,it,eci,eold,eci-eold=                    2                   74 -0.80261210521844606      -0.80261207482233377       -3.0396112293828992E-008 F
     orb,it,eci,eold,eci-eold=                    2                   75 -0.80261248276707198      -0.80261210521844606       -3.7754862591832250E-007 F
     orb,it,eci,eold,eci-eold=                    2                   76 -0.80261267278271453      -0.80261248276707198       -1.9001564255383130E-007 F
     orb,it,eci,eold,eci-eold=                    2                   77 -0.80261274363575241      -0.80261267278271453       -7.0853037881235537E-008 F
     orb,it,eci,eold,eci-eold=                    2                   78 -0.80261306550423384      -0.80261274363575241       -3.2186848142323754E-007 F
     orb,it,eci,eold,eci-eold=                    2                   79 -0.80261315109363363      -0.80261306550423384       -8.5589399789753884E-008 F
     orb,it,eci,eold,eci-eold=                    2                   80 -0.80261317320448522      -0.80261315109363363       -2.2110851594092651E-008 F
     orb,it,eci,eold,eci-eold=                    2                   81 -0.80261341786035922      -0.80261317320448522       -2.4465587400435140E-007 F
     orb,it,eci,eold,eci-eold=                    2                   82 -0.80261353571193483      -0.80261341786035922       -1.1785157560950665E-007 F
     orb,it,eci,eold,eci-eold=                    2                   83 -0.80261357909195941      -0.80261353571193483       -4.3380024572492459E-008 F
     orb,it,eci,eold,eci-eold=                    2                   84 -0.80261380320370734      -0.80261357909195941       -2.2411174793735000E-007 F
     orb,it,eci,eold,eci-eold=                    2                   85 -0.80261386400921919      -0.80261380320370734       -6.0805511847839000E-008 F
     orb,it,eci,eold,eci-eold=                    2                   86 -0.80261386909371568      -0.80261386400921919       -5.0844964905039092E-009 F
     orb,it,eci,eold,eci-eold=                    2                   87 -0.80261402557576178      -0.80261386909371568       -1.5648204609863825E-007 F
     orb,it,eci,eold,eci-eold=                    2                   88 -0.80261410026648916      -0.80261402557576178       -7.4690727380755106E-008 F
     orb,it,eci,eold,eci-eold=                    2                   89 -0.80261411920466663      -0.80261410026648916       -1.8938177470673168E-008 F
     orb,it,eci,eold,eci-eold=                    2                   90 -0.80261424808695192      -0.80261411920466663       -1.2888228528851187E-007 F
     orb,it,eci,eold,eci-eold=                    2                   91 -0.80261428445429117      -0.80261424808695192       -3.6367339251164310E-008 F
     orb,it,eci,eold,eci-eold=                    2                   92 -0.80261428814392566      -0.80261428445429117       -3.6896344868253550E-009 F
     orb,it,eci,eold,eci-eold=                    2                   93 -0.80261438619326697      -0.80261428814392566       -9.8049341312744787E-008 F
     orb,it,eci,eold,eci-eold=                    2                   94 -0.80261443318828696      -0.80261438619326697       -4.6995019986617592E-008 F
     orb,it,eci,eold,eci-eold=                    2                   95 -0.80261444386244452      -0.80261443318828696       -1.0674157557843955E-008 F
     orb,it,eci,eold,eci-eold=                    2                   96 -0.80261452277401624      -0.80261444386244452       -7.8911571721462792E-008 F
     orb,it,eci,eold,eci-eold=                    2                   97 -0.80261455470929088      -0.80261452277401624       -3.1935274646954781E-008 F
     orb,it,eci,eold,eci-eold=                    2                   98 -0.80261456354762972      -0.80261455470929088       -8.8383388385793182E-009 F
     orb,it,eci,eold,eci-eold=                    2                   99 -0.80261462680774764      -0.80261456354762972       -6.3260117921792869E-008 F
     orb,it,eci,eold,eci-eold=                    2                  100 -0.80261464994210541      -0.80261462680774764       -2.3134357762799596E-008 F
     orb,it,eci,eold,eci-eold=                    2                  101 -0.80261465532998533      -0.80261464994210541       -5.3878799199935656E-009 F
     orb,it,eci,eold,eci-eold=                    2                  102 -0.80261470199361429      -0.80261465532998533       -4.6663628960885717E-008 F
     orb,it,eci,eold,eci-eold=                    2                  103 -0.80261472023690184      -0.80261470199361429       -1.8243287547292653E-008 F
     orb,it,eci,eold,eci-eold=                    2                  104 -0.80261472630128172      -0.80261472023690184       -6.0643798871495846E-009 F
     orb,it,eci,eold,eci-eold=                    2                  105 -0.80261476726032388      -0.80261472630128172       -4.0959042157950876E-008 F
     orb,it,eci,eold,eci-eold=                    2                  106 -0.80261478466723379      -0.80261476726032388       -1.7406909913475488E-008 F
     orb,it,eci,eold,eci-eold=                    2                  107 -0.80261478981622614      -0.80261478466723379       -5.1489923436065510E-009 F
     orb,it,eci,eold,eci-eold=                    2                  108 -0.80261482139987028      -0.80261478981622614       -3.1583644144461687E-008 F
     orb,it,eci,eold,eci-eold=                    2                  109 -0.80261483100766307      -0.80261482139987028       -9.6077927835835908E-009 F
     orb,it,eci,eold,eci-eold=                    2                  110 -0.80261483287896684      -0.80261483100766307       -1.8713037786000086E-009 F
     orb,it,eci,eold,eci-eold=                    2                  111 -0.80261485531380417      -0.80261483287896684       -2.2434837321227974E-008 F
     orb,it,eci,eold,eci-eold=                    2                  112 -0.80261486374062141      -0.80261485531380417       -8.4268172440005173E-009 F
     orb,it,eci,eold,eci-eold=                    2                  113 -0.80261486608302790      -0.80261486374062141       -2.3424064909960407E-009 F
     orb,it,eci,eold,eci-eold=                    2                  114 -0.80261488457821017      -0.80261486608302790       -1.8495182274591571E-008 F
     orb,it,eci,eold,eci-eold=                    2                  115 -0.80261489037983536      -0.80261488457821017       -5.8016251802683882E-009 F
     orb,it,eci,eold,eci-eold=                    2                  116 -0.80261489125536145      -0.80261489037983536       -8.7552609606689202E-010 F
     orbital   2 current e=  0.378417E+00 error=0.603E-01 (eci= -0.802614891E+00 error=0.876E-09) iterations 116(   0 preconditioned, Ep,Sp= 20.0  200.0)
     orb,it,eci,eold,eci-eold=                    2                    1 -0.80261493261469541      -0.80261489125536145       -4.1359333957657896E-008 F
     orb,it,eci,eold,eci-eold=                    2                    2 -0.80261494486445728      -0.80261493261469541       -1.2249761871530040E-008 F
     orb,it,eci,eold,eci-eold=                    2                    3 -0.80261496658760945      -0.80261494486445728       -2.1723152165975534E-008 F
     orb,it,eci,eold,eci-eold=                    2                    4 -0.80261497002966409      -0.80261496658760945       -3.4420546413116426E-009 F
     orb,it,eci,eold,eci-eold=                    2                    5 -0.80261497057958542      -0.80261497002966409       -5.4992133069475813E-010 F
     orbital   2 current e=  0.378323E+00 error=0.944E-04 (eci= -0.802614971E+00 error=0.550E-09) iterations   5(   0 preconditioned, Ep,Sp= 20.0  200.0)
     orb,it,eci,eold,eci-eold=                    2                    1 -0.80261498682371857      -0.80261497057958542       -1.6244133149712070E-008 F
     orb,it,eci,eold,eci-eold=                    2                    2 -0.80261499189460817      -0.80261498682371857       -5.0708895971141033E-009 F
     orb,it,eci,eold,eci-eold=                    2                    3 -0.80261499250812485      -0.80261499189460817       -6.1351668190212649E-010 F
     orbital   2 current e=  0.378292E+00 error=0.314E-04 (eci= -0.802614993E+00 error=0.614E-09) iterations   3(   0 preconditioned, Ep,Sp= 20.0  200.0)
     orb,it,eci,eold,eci-eold=                    3                    1 -0.80046867634869323      -0.80035272703731053       -1.1594931138270148E-004 F
     orb,it,eci,eold,eci-eold=                    3                    2 -0.80049972037606898      -0.80046867634869323       -3.1044027375748406E-005 F
     orb,it,eci,eold,eci-eold=                    3                    3 -0.80052585196876869      -0.80049972037606898       -2.6131592699707440E-005 F
     orb,it,eci,eold,eci-eold=                    3                    4 -0.80054410280831245      -0.80052585196876869       -1.8250839543765274E-005 F
     orb,it,eci,eold,eci-eold=                    3                    5 -0.80059534362118923      -0.80054410280831245       -5.1240812876773845E-005 F
     orb,it,eci,eold,eci-eold=                    3                    6 -0.80062215953714888      -0.80059534362118923       -2.6815915959654824E-005 F
     orb,it,eci,eold,eci-eold=                    3                    7 -0.80064954580809200      -0.80062215953714888       -2.7386270943119406E-005 F
     orb,it,eci,eold,eci-eold=                    3                    8 -0.80066771969006201      -0.80064954580809200       -1.8173881970007244E-005 F
     orb,it,eci,eold,eci-eold=                    3                    9 -0.80069137123771783      -0.80066771969006201       -2.3651547655823002E-005 F
     orb,it,eci,eold,eci-eold=                    3                   10 -0.80070303229940332      -0.80069137123771783       -1.1661061685486196E-005 F
     orb,it,eci,eold,eci-eold=                    3                   11 -0.80072107796197789      -0.80070303229940332       -1.8045662574572852E-005 F
     orb,it,eci,eold,eci-eold=                    3                   12 -0.80072151760732602      -0.80072107796197789       -4.3964534812701572E-007 F
     orb,it,eci,eold,eci-eold=                    3                   13 -0.80072628142574542      -0.80072151760732602       -4.7638184194065403E-006 F
     orb,it,eci,eold,eci-eold=                    3                   14 -0.80073830161626258      -0.80072628142574542       -1.2020190517159079E-005 F
     orb,it,eci,eold,eci-eold=                    3                   15 -0.80074005156076455      -0.80073830161626258       -1.7499445019719673E-006 F
     orb,it,eci,eold,eci-eold=                    3                   16 -0.80074352295121631      -0.80074005156076455       -3.4713904517591487E-006 F
     orb,it,eci,eold,eci-eold=                    3                   17 -0.80075400572195021      -0.80074352295121631       -1.0482770733899471E-005 F
     orb,it,eci,eold,eci-eold=                    3                   18 -0.80075679671056976      -0.80075400572195021       -2.7909886195498501E-006 F
     orb,it,eci,eold,eci-eold=                    3                   19 -0.80075962893859520      -0.80075679671056976       -2.8322280254400312E-006 F
     orb,it,eci,eold,eci-eold=                    3                   20 -0.80077048112728300      -0.80075962893859520       -1.0852188687793252E-005 F
     orb,it,eci,eold,eci-eold=                    3                   21 -0.80077397569171127      -0.80077048112728300       -3.4945644282746713E-006 F
     orb,it,eci,eold,eci-eold=                    3                   22 -0.80077542877512842      -0.80077397569171127       -1.4530834171466722E-006 F
     orb,it,eci,eold,eci-eold=                    3                   23 -0.80078276485122735      -0.80077542877512842       -7.3360760989293894E-006 F
     orb,it,eci,eold,eci-eold=                    3                   24 -0.80078398517018334      -0.80078276485122735       -1.2203189559967242E-006 F
     orb,it,eci,eold,eci-eold=                    3                   25 -0.80078429601242274      -0.80078398517018334       -3.1084223939270572E-007 F
     orb,it,eci,eold,eci-eold=                    3                   26 -0.80078937092625757      -0.80078429601242274       -5.0749138348349376E-006 F
     orb,it,eci,eold,eci-eold=                    3                   27 -0.80079125608325830      -0.80078937092625757       -1.8851570007250018E-006 F
     orb,it,eci,eold,eci-eold=                    3                   28 -0.80079205610240711      -0.80079125608325830       -8.0001914881666636E-007 F
     orb,it,eci,eold,eci-eold=                    3                   29 -0.80079670065637454      -0.80079205610240711       -4.6445539674255798E-006 F
     orb,it,eci,eold,eci-eold=                    3                   30 -0.80079787428473015      -0.80079670065637454       -1.1736283556107452E-006 F
     orb,it,eci,eold,eci-eold=                    3                   31 -0.80079818471312636      -0.80079787428473015       -3.1042839621076013E-007 F
     orb,it,eci,eold,eci-eold=                    3                   32 -0.80080234825055130      -0.80079818471312636       -4.1635374249393564E-006 F
     orb,it,eci,eold,eci-eold=                    3                   33 -0.80080378748067171      -0.80080234825055130       -1.4392301204146918E-006 F
     orb,it,eci,eold,eci-eold=                    3                   34 -0.80080378906514116      -0.80080378748067171       -1.5844694445377172E-009 F
     orb,it,eci,eold,eci-eold=                    3                   35 -0.80080665786590977      -0.80080378906514116       -2.8688007686072936E-006 F
     orb,it,eci,eold,eci-eold=                    3                   36 -0.80080772602398076      -0.80080665786590977       -1.0681580709936966E-006 F
     orb,it,eci,eold,eci-eold=                    3                   37 -0.80080778777984785      -0.80080772602398076       -6.1755867086787930E-008 F
     orb,it,eci,eold,eci-eold=                    3                   38 -0.80080986749341054      -0.80080778777984785       -2.0797135626970942E-006 F
     orb,it,eci,eold,eci-eold=                    3                   39 -0.80081092656541586      -0.80080986749341054       -1.0590720053160751E-006 F
     orb,it,eci,eold,eci-eold=                    3                   40 -0.80081133075872013      -0.80081092656541586       -4.0419330427088340E-007 F
     orb,it,eci,eold,eci-eold=                    3                   41 -0.80081327032349403      -0.80081133075872013       -1.9395647739006705E-006 F
     orb,it,eci,eold,eci-eold=                    3                   42 -0.80081401297418409      -0.80081327032349403       -7.4265069005541307E-007 F
     orb,it,eci,eold,eci-eold=                    3                   43 -0.80081433072683006      -0.80081401297418409       -3.1775264597300179E-007 F
     orb,it,eci,eold,eci-eold=                    3                   44 -0.80081600198208780      -0.80081433072683006       -1.6712552577402562E-006 F
     orb,it,eci,eold,eci-eold=                    3                   45 -0.80081652628797562      -0.80081600198208780       -5.2430588781682275E-007 F
     orb,it,eci,eold,eci-eold=                    3                   46 -0.80081668804875195      -0.80081652628797562       -1.6176077632934494E-007 F
     orb,it,eci,eold,eci-eold=                    3                   47 -0.80081800807349324      -0.80081668804875195       -1.3200247412914479E-006 F
     orb,it,eci,eold,eci-eold=                    3                   48 -0.80081837115394738      -0.80081800807349324       -3.6308045414656931E-007 F
     orb,it,eci,eold,eci-eold=                    3                   49 -0.80081841083758243      -0.80081837115394738       -3.9683635044696075E-008 F
     orb,it,eci,eold,eci-eold=                    3                   50 -0.80081939884494235      -0.80081841083758243       -9.8800735992554678E-007 F
     orb,it,eci,eold,eci-eold=                    3                   51 -0.80081976811581268      -0.80081939884494235       -3.6927087032623263E-007 F
     orb,it,eci,eold,eci-eold=                    3                   52 -0.80081982238016491      -0.80081976811581268       -5.4264352233879265E-008 F
     orb,it,eci,eold,eci-eold=                    3                   53 -0.80082058946987100      -0.80081982238016491       -7.6708970608851956E-007 F
     orb,it,eci,eold,eci-eold=                    3                   54 -0.80082090151790197      -0.80082058946987100       -3.1204803097040212E-007 F
     orb,it,eci,eold,eci-eold=                    3                   55 -0.80082098119183942      -0.80082090151790197       -7.9673937447566345E-008 F
     orb,it,eci,eold,eci-eold=                    3                   56 -0.80082161475888602      -0.80082098119183942       -6.3356704660399998E-007 F
     orb,it,eci,eold,eci-eold=                    3                   57 -0.80082185304202769      -0.80082161475888602       -2.3828314166252085E-007 F
     orb,it,eci,eold,eci-eold=                    3                   58 -0.80082192584230438      -0.80082185304202769       -7.2800276695872412E-008 F
     orb,it,eci,eold,eci-eold=                    3                   59 -0.80082245896402027      -0.80082192584230438       -5.3312171588437707E-007 F
     orb,it,eci,eold,eci-eold=                    3                   60 -0.80082259480901685      -0.80082245896402027       -1.3584499658492177E-007 F
     orb,it,eci,eold,eci-eold=                    3                   61 -0.80082260742060973      -0.80082259480901685       -1.2611592881128786E-008 F
     orb,it,eci,eold,eci-eold=                    3                   62 -0.80082303509979247      -0.80082260742060973       -4.2767918273511896E-007 F
     orb,it,eci,eold,eci-eold=                    3                   63 -0.80082320990296907      -0.80082303509979247       -1.7480317660023559E-007 F
     orb,it,eci,eold,eci-eold=                    3                   64 -0.80082323114580989      -0.80082320990296907       -2.1242840819724051E-008 F
     orb,it,eci,eold,eci-eold=                    3                   65 -0.80082357477965294      -0.80082323114580989       -3.4363384304736400E-007 F
     orb,it,eci,eold,eci-eold=                    3                   66 -0.80082370534098279      -0.80082357477965294       -1.3056132985855839E-007 F
     orb,it,eci,eold,eci-eold=                    3                   67 -0.80082371792822493      -0.80082370534098279       -1.2587242137485077E-008 F
     orb,it,eci,eold,eci-eold=                    3                   68 -0.80082395387166394      -0.80082371792822493       -2.3594343900867898E-007 F
     orb,it,eci,eold,eci-eold=                    3                   69 -0.80082401799894587      -0.80082395387166394       -6.4127281929060587E-008 F
     orb,it,eci,eold,eci-eold=                    3                   70 -0.80082402527918251      -0.80082401799894587       -7.2802366357649362E-009 F
     orb,it,eci,eold,eci-eold=                    3                   71 -0.80082422310015056      -0.80082402527918251       -1.9782096805087690E-007 F
     orb,it,eci,eold,eci-eold=                    3                   72 -0.80082433426159494      -0.80082422310015056       -1.1116144438272357E-007 F
     orb,it,eci,eold,eci-eold=                    3                   73 -0.80082437600718048      -0.80082433426159494       -4.1745585543928598E-008 F
     orb,it,eci,eold,eci-eold=                    3                   74 -0.80082457050533806      -0.80082437600718048       -1.9449815757965894E-007 F
     orb,it,eci,eold,eci-eold=                    3                   75 -0.80082462570349811      -0.80082457050533806       -5.5198160042735367E-008 F
     orb,it,eci,eold,eci-eold=                    3                   76 -0.80082463886066901      -0.80082462570349811       -1.3157170908328908E-008 F
     orb,it,eci,eold,eci-eold=                    3                   77 -0.80082480171165216      -0.80082463886066901       -1.6285098314305912E-007 F
     orb,it,eci,eold,eci-eold=                    3                   78 -0.80082484407468724      -0.80082480171165216       -4.2363035079873157E-008 F
     orb,it,eci,eold,eci-eold=                    3                   79 -0.80082485413804838      -0.80082484407468724       -1.0063361144396765E-008 F
     orb,it,eci,eold,eci-eold=                    3                   80 -0.80082501576261511      -0.80082485413804838       -1.6162456673018966E-007 F
     orb,it,eci,eold,eci-eold=                    3                   81 -0.80082510721536537      -0.80082501576261511       -9.1452750261566962E-008 F
     orb,it,eci,eold,eci-eold=                    3                   82 -0.80082515694242018      -0.80082510721536537       -4.9727054807213733E-008 F
     orb,it,eci,eold,eci-eold=                    3                   83 -0.80082517696760724      -0.80082515694242018       -2.0025187064121042E-008 F
     orb,it,eci,eold,eci-eold=                    3                   84 -0.80082524760327334      -0.80082517696760724       -7.0635666093998850E-008 F
     orb,it,eci,eold,eci-eold=                    3                   85 -0.80082525387051329      -0.80082524760327334       -6.2672399492313957E-009 F
     orb,it,eci,eold,eci-eold=                    3                   86 -0.80082525895438428      -0.80082525387051329       -5.0838709908518354E-009 F
     orb,it,eci,eold,eci-eold=                    3                   87 -0.80082532919930249      -0.80082525895438428       -7.0244918215500718E-008 F
     orb,it,eci,eold,eci-eold=                    3                   88 -0.80082536805587301      -0.80082532919930249       -3.8856570516720979E-008 F
     orb,it,eci,eold,eci-eold=                    3                   89 -0.80082539469693659      -0.80082536805587301       -2.6641063577415025E-008 F
     orb,it,eci,eold,eci-eold=                    3                   90 -0.80082540697737237      -0.80082539469693659       -1.2280435779388199E-008 F
     orb,it,eci,eold,eci-eold=                    3                   91 -0.80082544007565937      -0.80082540697737237       -3.3098287000044024E-008 F
     orb,it,eci,eold,eci-eold=                    3                   92 -0.80082544520583043      -0.80082544007565937       -5.1301710657369881E-009 F
     orb,it,eci,eold,eci-eold=                    3                   93 -0.80082544732600314      -0.80082544520583043       -2.1201727040676133E-009 F
     orb,it,eci,eold,eci-eold=                    3                   94 -0.80082547297529305      -0.80082544732600314       -2.5649289914220219E-008 F
     orb,it,eci,eold,eci-eold=                    3                   95 -0.80082548332990910      -0.80082547297529305       -1.0354616053476207E-008 F
     orb,it,eci,eold,eci-eold=                    3                   96 -0.80082548483133309      -0.80082548332990910       -1.5014239851396383E-009 F
     orb,it,eci,eold,eci-eold=                    3                   97 -0.80082550340930747      -0.80082548483133309       -1.8577974381095430E-008 F
     orb,it,eci,eold,eci-eold=                    3                   98 -0.80082551262653023      -0.80082550340930747       -9.2172227628140035E-009 F
     orb,it,eci,eold,eci-eold=                    3                   99 -0.80082551568313853      -0.80082551262653023       -3.0566082998007005E-009 F
     orb,it,eci,eold,eci-eold=                    3                  100 -0.80082553218775021      -0.80082551568313853       -1.6504611677348180E-008 F
     orb,it,eci,eold,eci-eold=                    3                  101 -0.80082553702538595      -0.80082553218775021       -4.8376357364432465E-009 F
     orb,it,eci,eold,eci-eold=                    3                  102 -0.80082553750642615      -0.80082553702538595       -4.8104020766714939E-010 F
     orbital   3 current e=  0.395808E+00 error=0.201E-01 (eci= -0.800825538E+00 error=0.481E-09) iterations 102(   0 preconditioned, Ep,Sp= 20.0  200.0)
     orb,it,eci,eold,eci-eold=                    3                    1 -0.80082557999978321      -0.80082553750642615       -4.2493357055306546E-008 F
     orb,it,eci,eold,eci-eold=                    3                    2 -0.80082559527064157      -0.80082557999978321       -1.5270858355620476E-008 F
     orb,it,eci,eold,eci-eold=                    3                    3 -0.80082560315457618      -0.80082559527064157       -7.8839346162595803E-009 F
     orb,it,eci,eold,eci-eold=                    3                    4 -0.80082560357395072      -0.80082560315457618       -4.1937453509888201E-010 F
     orbital   3 current e=  0.396341E+00 error=0.533E-03 (eci= -0.800825604E+00 error=0.419E-09) iterations   4(   0 preconditioned, Ep,Sp= 20.0  200.0)
     orb,it,eci,eold,eci-eold=                    3                    1 -0.80082561568755306      -0.80082560357395072       -1.2113602343433172E-008 F
     orb,it,eci,eold,eci-eold=                    3                    2 -0.80082562033397775      -0.80082561568755306       -4.6464246894473149E-009 F
     orb,it,eci,eold,eci-eold=                    3                    3 -0.80082563082886737      -0.80082562033397775       -1.0494889624013126E-008 F
     orb,it,eci,eold,eci-eold=                    3                    4 -0.80082563126820050      -0.80082563082886737       -4.3933312543487091E-010 F
     orbital   3 current e=  0.396527E+00 error=0.186E-03 (eci= -0.800825631E+00 error=0.439E-09) iterations   4(   0 preconditioned, Ep,Sp= 20.0  200.0)
     orb,it,eci,eold,eci-eold=                    4                    1 -0.80022004161822236      -0.80013044318004700       -8.9598438175353401E-005 F
     orb,it,eci,eold,eci-eold=                    4                    2 -0.80022897084432643      -0.80022004161822236       -8.9292261040707643E-006 F
     orb,it,eci,eold,eci-eold=                    4                    3 -0.80026863614169319      -0.80022897084432643       -3.9665297366764385E-005 F
     orb,it,eci,eold,eci-eold=                    4                    4 -0.80029909504746577      -0.80026863614169319       -3.0458905772579037E-005 F
     orb,it,eci,eold,eci-eold=                    4                    5 -0.80030462636362132      -0.80029909504746577       -5.5313161555492485E-006 F
     orb,it,eci,eold,eci-eold=                    4                    6 -0.80030667882490625      -0.80030462636362132       -2.0524612849293078E-006 F
     orb,it,eci,eold,eci-eold=                    4                    7 -0.80033207837364417      -0.80030667882490625       -2.5399548737925493E-005 F
     orb,it,eci,eold,eci-eold=                    4                    8 -0.80034141913896062      -0.80033207837364417       -9.3407653164456761E-006 F
     orb,it,eci,eold,eci-eold=                    4                    9 -0.80035164688223026      -0.80034141913896062       -1.0227743269641820E-005 F
     orb,it,eci,eold,eci-eold=                    4                   10 -0.80035557714977346      -0.80035164688223026       -3.9302675431951428E-006 F
     orb,it,eci,eold,eci-eold=                    4                   11 -0.80035931334693544      -0.80035557714977346       -3.7361971619853662E-006 F
     orb,it,eci,eold,eci-eold=                    4                   12 -0.80036476335742324      -0.80035931334693544       -5.4500104877952538E-006 F
     orb,it,eci,eold,eci-eold=                    4                   13 -0.80036649456941866      -0.80036476335742324       -1.7312119954260297E-006 F
     orb,it,eci,eold,eci-eold=                    4                   14 -0.80036712568403257      -0.80036649456941866       -6.3111461390263912E-007 F
     orb,it,eci,eold,eci-eold=                    4                   15 -0.80037027651174875      -0.80036712568403257       -3.1508277161806930E-006 F
     orb,it,eci,eold,eci-eold=                    4                   16 -0.80037641599544496      -0.80037027651174875       -6.1394836962103128E-006 F
     orb,it,eci,eold,eci-eold=                    4                   17 -0.80037827156533603      -0.80037641599544496       -1.8555698910738272E-006 F
     orb,it,eci,eold,eci-eold=                    4                   18 -0.80038084714330315      -0.80037827156533603       -2.5755779671232659E-006 F
     orb,it,eci,eold,eci-eold=                    4                   19 -0.80038685032412027      -0.80038084714330315       -6.0031808171157053E-006 F
     orb,it,eci,eold,eci-eold=                    4                   20 -0.80038767302678071      -0.80038685032412027       -8.2270266044126572E-007 F
     orb,it,eci,eold,eci-eold=                    4                   21 -0.80038864924716435      -0.80038767302678071       -9.7622038364164609E-007 F
     orb,it,eci,eold,eci-eold=                    4                   22 -0.80039300383794310      -0.80038864924716435       -4.3545907787434501E-006 F
     orb,it,eci,eold,eci-eold=                    4                   23 -0.80039362626071986      -0.80039300383794310       -6.2242277676372026E-007 F
     orb,it,eci,eold,eci-eold=                    4                   24 -0.80039395682407055      -0.80039362626071986       -3.3056335069225895E-007 F
     orb,it,eci,eold,eci-eold=                    4                   25 -0.80039772752472615      -0.80039395682407055       -3.7707006556031430E-006 F
     orb,it,eci,eold,eci-eold=                    4                   26 -0.80039873209567780      -0.80039772752472615       -1.0045709516459667E-006 F
     orb,it,eci,eold,eci-eold=                    4                   27 -0.80039903600750628      -0.80039873209567780       -3.0391182848088505E-007 F
     orb,it,eci,eold,eci-eold=                    4                   28 -0.80040226027685724      -0.80039903600750628       -3.2242693509543230E-006 F
     orb,it,eci,eold,eci-eold=                    4                   29 -0.80040234318274250      -0.80040226027685724       -8.2905885268047541E-008 F
     orb,it,eci,eold,eci-eold=                    4                   30 -0.80040234325291215      -0.80040234318274250       -7.0169647869988694E-011 F
     orbital   4 current e=  0.489596E+00 error=0.210E-01 (eci= -0.800402343E+00 error=0.702E-10) iterations  30(   0 preconditioned, Ep,Sp= 20.0  200.0)
     orb,it,eci,eold,eci-eold=                    4                    1 -0.80040790804847473      -0.80040234325291215       -5.5647955625737211E-006 F
     orb,it,eci,eold,eci-eold=                    4                    2 -0.80040965802800201      -0.80040790804847473       -1.7499795272879481E-006 F
     orb,it,eci,eold,eci-eold=                    4                    3 -0.80041040724890211      -0.80040965802800201       -7.4922090009810205E-007 F
     orb,it,eci,eold,eci-eold=                    4                    4 -0.80041241703816834      -0.80041040724890211       -2.0097892662329642E-006 F
     orb,it,eci,eold,eci-eold=                    4                    5 -0.80041330528491372      -0.80041241703816834       -8.8824674537857362E-007 F
     orb,it,eci,eold,eci-eold=                    4                    6 -0.80041377269517855      -0.80041330528491372       -4.6741026482610692E-007 F
     orb,it,eci,eold,eci-eold=                    4                    7 -0.80041512770334600      -0.80041377269517855       -1.3550081674473802E-006 F
     orb,it,eci,eold,eci-eold=                    4                    8 -0.80041580861707184      -0.80041512770334600       -6.8091372584788701E-007 F
     orb,it,eci,eold,eci-eold=                    4                    9 -0.80041612734951995      -0.80041580861707184       -3.1873244810132206E-007 F
     orb,it,eci,eold,eci-eold=                    4                   10 -0.80041626581799585      -0.80041612734951995       -1.3846847590759381E-007 F
     orb,it,eci,eold,eci-eold=                    4                   11 -0.80041665190568279      -0.80041626581799585       -3.8608768693215723E-007 F
     orb,it,eci,eold,eci-eold=                    4                   12 -0.80041670872544946      -0.80041665190568279       -5.6819766669491401E-008 F
     orb,it,eci,eold,eci-eold=                    4                   13 -0.80041675872589968      -0.80041670872544946       -5.0000450224629844E-008 F
     orb,it,eci,eold,eci-eold=                    4                   14 -0.80041696679028573      -0.80041675872589968       -2.0806438605358579E-007 F
     orb,it,eci,eold,eci-eold=                    4                   15 -0.80041700703256680      -0.80041696679028573       -4.0242281063029850E-008 F
     orb,it,eci,eold,eci-eold=                    4                   16 -0.80041703444227108      -0.80041700703256680       -2.7409704284053760E-008 F
     orb,it,eci,eold,eci-eold=                    4                   17 -0.80041714594822255      -0.80041703444227108       -1.1150595147224607E-007 F
     orb,it,eci,eold,eci-eold=                    4                   18 -0.80041714941689890      -0.80041714594822255       -3.4686763461522219E-009 F
     orb,it,eci,eold,eci-eold=                    4                   19 -0.80041715762968269      -0.80041714941689890       -8.2127837863765762E-009 F
     orb,it,eci,eold,eci-eold=                    4                   20 -0.80041722601106169      -0.80041715762968269       -6.8381379003668030E-008 F
     orb,it,eci,eold,eci-eold=                    4                   21 -0.80041725749547932      -0.80041722601106169       -3.1484417628568906E-008 F
     orb,it,eci,eold,eci-eold=                    4                   22 -0.80041727605582202      -0.80041725749547932       -1.8560342707196753E-008 F
     orb,it,eci,eold,eci-eold=                    4                   23 -0.80041730907411934      -0.80041727605582202       -3.3018297318498924E-008 F
     orb,it,eci,eold,eci-eold=                    4                   24 -0.80041733090827949      -0.80041730907411934       -2.1834160146561032E-008 F
     orb,it,eci,eold,eci-eold=                    4                   25 -0.80041735354790222      -0.80041733090827949       -2.2639622732079090E-008 F
     orb,it,eci,eold,eci-eold=                    4                   26 -0.80041736479547398      -0.80041735354790222       -1.1247571762851294E-008 F
     orb,it,eci,eold,eci-eold=                    4                   27 -0.80041738140725271      -0.80041736479547398       -1.6611778730357685E-008 F
[...]
    8    5    8    8       -0.0002999242
    8    5    9    8        0.0000272234
    8    5   10    8        0.0000000063
    8    5   11    8        0.0000227872
    8    5    9    9       -0.0002734409
    8    5   10    9        0.0000000150
    8    5   11    9        0.0000059245
    8    5   10   10        0.0033518448
    8    5   11   10       -0.0096112667
    8    5   11   11       -0.0014824641
    9    5    9    5        0.1493263947
    9    5   10    5       -0.0000023324
    9    5   11    5        0.0000000825
    9    5    6    6       -0.0015189838
    9    5    7    6       -0.0000156889
    9    5    8    6       -0.1238155082
    9    5    9    6       -0.0706287368
    9    5   10    6       -0.0000198792
    9    5   11    6        0.0000011464
    9    5    7    7        0.0011816295
    9    5    8    7        0.0000025608
    9    5    9    7        0.0000012475
    9    5   10    7        0.0051975761
    9    5   11    7        0.0738487898
    9    5    8    8        0.0005302311
    9    5    9    8       -0.0000130333
    9    5   10    8       -0.0000000153
    9    5   11    8       -0.0000403065
    9    5    9    9        0.0005792824
    9    5   10    9       -0.0000000263
    9    5   11    9       -0.0000178005
    9    5   10   10       -0.0064799087
    9    5   11   10        0.0185813267
    9    5   11   11        0.0028664696
   10    5   10    5        0.0169355089
   10    5   11    5       -0.0001588989
   10    5    6    6        0.0000000312
   10    5    7    6        0.0000000009
   10    5    8    6        0.0000030243
   10    5    9    6       -0.0000005516
   10    5   10    6        0.0000000003
   10    5   11    6        0.0000000002
   10    5    7    7       -0.0000000232
   10    5    8    7       -0.0002261860
   10    5    9    7        0.0004373145
   10    5   10    7       -0.0000000956
   10    5   11    7       -0.0000015758
   10    5    8    8       -0.0000000040
   10    5    9    8        0.0000000026
   10    5   10    8        0.0003009685
   10    5   11    8       -0.0013593848
   10    5    9    9       -0.0000000036
   10    5   10    9       -0.0005818158
   10    5   11    9        0.0026273307
   10    5   10   10        0.0000001394
   10    5   11   10       -0.0000004371
   10    5   11   11       -0.0000000547
   11    5   11    5        0.0079567208
   11    5    6    6        0.0000025418
   11    5    7    6       -0.0000000000
   11    5    8    6       -0.0000001194
   11    5    9    6        0.0000000549
   11    5   10    6       -0.0000000002
   11    5   11    6        0.0000000005
   11    5    7    7        0.0000028335
   11    5    8    7       -0.0023867093
   11    5    9    7        0.0046136781
   11    5   10    7        0.0000000038
   11    5   11    7        0.0000001290
   11    5    8    8        0.0000054115
   11    5    9    8       -0.0000019913
   11    5   10    8       -0.0012827410
   11    5   11    8        0.0000374822
   11    5    9    9        0.0000007667
   11    5   10    9        0.0024796656
   11    5   11    9       -0.0000724097
   11    5   10   10        0.0000031273
   11    5   11   10       -0.0000000020
   11    5   11   11        0.0000036082
    6    6    6    6        0.2801682218
    6    6    7    6        0.0000001578
    6    6    8    6        0.0018102026
    6    6    9    6        0.0009367056
    6    6   10    6        0.0000003095
    6    6   11    6        0.0000335806
    6    6    7    7        0.2690693842
    6    6    8    7        0.0000037177
    6    6    9    7        0.0000017897
    6    6   10    7       -0.0037264338
    6    6   11    7        0.0002784306
    6    6    8    8        0.2856562502
    6    6    9    8        0.0106230820
    6    6   10    8        0.0000047397
    6    6   11    8       -0.0000001176
    6    6    9    9        0.2709441106
    6    6   10    9        0.0000023182
    6    6   11    9       -0.0000000698
    6    6   10   10        0.2740424726
    6    6   11   10       -0.0004621782
    6    6   11   11        0.2655697312
    7    6    7    6        0.0132255039
    7    6    8    6        0.0000171302
    7    6    9    6        0.0000088392
    7    6   10    6       -0.0006003427
    7    6   11    6        0.0000234957
    7    6    7    7       -0.0000002473
    7    6    8    7       -0.0000810323
    7    6    9    7       -0.0000419278
    7    6   10    7       -0.0000007407
    7    6   11    7       -0.0000091323
    7    6    8    8       -0.0000005479
    7    6    9    8       -0.0000002087
    7    6   10    8       -0.0004482271
    7    6   11    8       -0.0051715057
    7    6    9    9       -0.0000002193
    7    6   10    9       -0.0002318644
    7    6   11    9       -0.0026737224
    7    6   10   10        0.0000006013
    7    6   11   10       -0.0000042595
    7    6   11   11        0.0000003609
    8    6    8    6        0.1492909348
    8    6    9    6        0.0706239917
    8    6   10    6        0.0000217494
    8    6   11    6       -0.0000012230
    8    6    7    7       -0.0011813723
    8    6    8    7       -0.0000028239
    8    6    9    7       -0.0000012719
    8    6   10    7       -0.0051968807
    8    6   11    7       -0.0738372529
    8    6    8    8       -0.0005801801
    8    6    9    8       -0.0000163302
    8    6   10    8        0.0000000048
    8    6   11    8        0.0000462837
    8    6    9    9       -0.0005288137
    8    6   10    9        0.0000000207
    8    6   11    9        0.0000184189
    8    6   10   10        0.0064794128
    8    6   11   10       -0.0185780673
    8    6   11   11       -0.0028658105
    9    6    9    6        0.0496016939
    9    6   10    6        0.0000112376
    9    6   11    6       -0.0000006340
    9    6    7    7       -0.0006111684
    9    6    8    7       -0.0000014480
    9    6    9    7       -0.0000006492
    9    6   10    7       -0.0026879569
    9    6   11    7       -0.0381900493
    9    6    8    8       -0.0002747177
    9    6    9    8       -0.0000287499
    9    6   10    8        0.0000000054
    9    6   11    8        0.0000223838
    9    6    9    9       -0.0002993450
    9    6   10    9        0.0000000105
    9    6   11    9        0.0000118476
    9    6   10   10        0.0033510631
    9    6   11   10       -0.0096085345
    9    6   11   11       -0.0014824126
   10    6   10    6        0.0169288927
   10    6   11    6       -0.0001590800
   10    6    7    7       -0.0000002233
   10    6    8    7       -0.0004372464
   10    6    9    7       -0.0002261790
   10    6   10    7       -0.0000009101
   10    6   11    7       -0.0000155415
   10    6    8    8       -0.0000000114
   10    6    9    8       -0.0000000021
   10    6   10    8        0.0005817934
   10    6   11    8       -0.0026279320
   10    6    9    9       -0.0000000042
   10    6   10    9        0.0003009071
   10    6   11    9       -0.0013588521
   10    6   10   10        0.0000013344
   10    6   11   10       -0.0000042945
   10    6   11   11       -0.0000004987
   11    6   11    6        0.0079530159
   11    6    7    7        0.0000338316
   11    6    8    7       -0.0046079471
   11    6    9    7       -0.0023832008
   11    6   10    7        0.0000002772
   11    6   11    7        0.0000018110
   11    6    8    8        0.0000387724
   11    6    9    8        0.0000024896
   11    6   10    8       -0.0024752762
   11    6   11    8        0.0000723959
   11    6    9    9        0.0000346019
   11    6   10    9       -0.0012801429
   11    6   11    9        0.0000374139
   11    6   10   10        0.0000374305
   11    6   11   10        0.0000000468
   11    6   11   11        0.0000429903
    7    7    7    7        0.3100294962
    7    7    8    7        0.0000013231
    7    7    9    7        0.0000005309
    7    7   10    7       -0.0042075012
    7    7   11    7        0.0025943555
    7    7    8    8        0.2798749061
    7    7    9    8        0.0000000144
    7    7   10    8        0.0000011116
    7    7   11    8       -0.0000007500
    7    7    9    9        0.2798823990
    7    7   10    9        0.0000004642
    7    7   11    9       -0.0000003026
    7    7   10   10        0.2889878347
    7    7   11   10        0.0005699770
    7    7   11   11        0.3050763914
    8    7    8    7        0.0144137089
    8    7    9    7        0.0000000019
    8    7   10    7        0.0000001228
    8    7   11    7        0.0000016508
    8    7    8    8        0.0000012863
    8    7    9    8        0.0000000616
    8    7   10    8       -0.0001841464
    8    7   11    8        0.0001289891
    8    7    9    9        0.0000010956
    8    7   10    9        0.0000000057
    8    7   11    9        0.0000000534
    8    7   10   10        0.0000008265
    8    7   11   10        0.0000001874
    8    7   11   11       -0.0000118984
    9    7    9    7        0.0144208986
    9    7   10    7        0.0000000551
    9    7   11    7        0.0000007338
    9    7    8    8        0.0000004738
    9    7    9    8        0.0000000764
    9    7   10    8        0.0000000055
    9    7   11    8        0.0000000533
    9    7    9    9        0.0000004926
    9    7   10    9       -0.0001834308
    9    7   11    9        0.0001289900
    9    7   10   10        0.0000003331
    9    7   11   10        0.0000000874
    9    7   11   11       -0.0000049185
   10    7   10    7        0.0156269794
   10    7   11    7        0.0037541671
   10    7    8    8       -0.0028136733
   10    7    9    8        0.0000000622
   10    7   10    8       -0.0000001792
   10    7   11    8       -0.0000018924
   10    7    9    9       -0.0028134836
   10    7   10    9       -0.0000000723
   10    7   11    9       -0.0000007821
   10    7   10   10       -0.0021219156
   10    7   11   10        0.0003394040
   10    7   11   11        0.0035208357
   11    7   11    7        0.0753753629
   11    7    8    8        0.0016474424
   11    7    9    8        0.0000008776
   11    7   10    8       -0.0000000317
   11    7   11    8       -0.0000363339
   11    7    9    9        0.0016468839
   11    7   10    9       -0.0000000231
   11    7   11    9       -0.0000150013
   11    7   10   10       -0.0024817397
   11    7   11   10        0.0163914395
   11    7   11   11        0.0039266506
    8    8    8    8        0.3035766808
    8    8    9    8       -0.0000009490
    8    8   10    8        0.0000013204
    8    8   11    8       -0.0000007242
    8    8    9    9        0.2761852055
    8    8   10    9        0.0000005322
    8    8   11    9       -0.0000002651
    8    8   10   10        0.2852718615
    8    8   11   10       -0.0002281017
    8    8   11   11        0.2771360460
    9    8    9    8        0.0143115435
    9    8   10    8        0.0000000784
    9    8   11    8       -0.0000000198
    9    8    9    9        0.0000009592
    9    8   10    9        0.0000000495
    9    8   11    9       -0.0000000432
    9    8   10   10       -0.0000000772
    9    8   11   10        0.0000002093
    9    8   11   11        0.0000000371
   10    8   10    8        0.0166837209
   10    8   11    8       -0.0001250393
   10    8    9    9        0.0000011484
   10    8   10    9       -0.0000000067
   10    8   11    9        0.0000000202
   10    8   10   10        0.0000015472
   10    8   11   10        0.0000000782
   10    8   11   11       -0.0000010891
   11    8   11    8        0.0085277733
   11    8    9    9       -0.0000006384
   11    8   10    9        0.0000000207
   11    8   11    9        0.0000000078
   11    8   10   10        0.0000017329
   11    8   11   10       -0.0000050476
   11    8   11   11       -0.0000017131
    9    9    9    9        0.3035699612
    9    9   10    9        0.0000005155
    9    9   11    9       -0.0000002984
    9    9   10   10        0.2852708298
    9    9   11   10       -0.0002282791
    9    9   11   11        0.2771423141
   10    9   10    9        0.0166820316
   10    9   11    9       -0.0001251242
   10    9   10   10        0.0000006214
   10    9   11   10        0.0000000303
   10    9   11   11       -0.0000004076
   11    9   11    9        0.0085276301
   11    9   10   10        0.0000007170
   11    9   11   10       -0.0000020362
   11    9   11   11       -0.0000007077
   10   10   10   10        0.3215859079
   10   10   11   10       -0.0012120673
   10   10   11   11        0.2987346449
   11   10   11   10        0.0255040893
   11   10   11   11        0.0000923412
   11   11   11   11        0.3190603229
 end_two_electron_integrals


 output epsi filename:./pspw_hf_H2.emovecs

 Total PSPW energy     :  -0.7986846636E+00


=== Spin Contamination ===

 <Sexact^2> =    0.0000000000000000     
 <S^2>      =    0.0000000000000000     



== Center of Charge ==

spin up     (    0.0000,    0.0000,    0.0177 )
spin down   (    0.0000,    0.0000,    0.0177 )
     total  (    0.0000,    0.0000,    0.0177 )
ionic       (    0.0000,    0.0000,    0.0000 )


== Molecular Dipole wrt Center of Mass ==

mu   =  (   -0.0000,   -0.0000,   -0.0354 ) au
|mu| =     0.0354 au,       0.0900 Debye

 output psi filename:./pspw_hf_H2.movecs

 Writing Crystallographic Information File:./H2.cif
   - cell not shifted (nwpw:cif_shift_cell .false.)


== Timing ==

cputime in seconds
  prologue    :   0.604143E+01
  main loop   :   0.313295E+03
  epilogue    :   0.159881E-01
  total       :   0.319352E+03
  cputime/step:   0.202126E+01       (     155 evalulations,      65 linesearches)


Time spent doing                        total          step       percent
  total time                 :   0.319364E+03  0.206041E+01       100.0 %
  i/o time                   :   0.263736E+00  0.170152E-02         0.1 %
  FFTs                       :   0.224697E+03  0.144966E+01        70.4 %
  dot products               :   0.753737E+01  0.486282E-01         2.4 %
  geodesic                   :   0.619873E-01  0.399918E-03         0.0 %
  ffm_dgemm                  :   0.942077E-02  0.607792E-04         0.0 %
  fmf_dgemm                  :   0.725079E-02  0.467793E-04         0.0 %
  mmm_dgemm                  :   0.271993E-02  0.175479E-04         0.0 %
  m_diagonalize              :   0.133349E-02  0.860317E-05         0.0 %
  local pseudopotentials     :   0.496448E+01  0.320289E-01         1.6 %
  non-local pseudopotentials :   0.686023E+01  0.442595E-01         2.1 %
  structure factors          :   0.486465E+00  0.313848E-02         0.2 %
  phase factors              :   0.723300E-05  0.466645E-07         0.0 %
  masking and packing        :   0.552512E+01  0.356459E-01         1.7 %
  queue fft                  :   0.679767E+01  0.438559E-01         2.1 %
  queue fft (serial)         :   0.253836E+01  0.163765E-01         0.8 %
  queue fft (message passing):   0.422781E+01  0.272762E-01         1.3 %
  HFX potential              :   0.364783E+01  0.235344E-01         1.1 %
  non-local psp FFM          :   0.646319E+01  0.416980E-01         2.0 %
  non-local psp FMF          :   0.855925E-01  0.552210E-03         0.0 %
  non-local psp FFM A        :   0.350201E-01  0.225936E-03         0.0 %
  non-local psp FFM B        :   0.115165E+00  0.743001E-03         0.0 %

== HFX Counters ==
  HFX Evalulations         =   155
  Lin ACE HFX Evalulations =     0


     >>>  JOB COMPLETED     AT Tue Apr 15 09:38:31 2025  <<<

 Task  times  cpu:      295.0s     wall:      319.4s


                                NWChem Input Module
                                -------------------


 Summary of allocated global arrays
-----------------------------------
  No active global arrays


MA_summarize_allocated_blocks: starting scan ...
MA_summarize_allocated_blocks: scan completed: 0 heap blocks, 0 stack blocks
MA usage statistics:

	allocation statistics:
					      heap	     stack
					      ----	     -----
	current number of blocks	         0	         0
	maximum number of blocks	       313	        36
	current total bytes		         0	         0
	maximum total bytes		  16366104	   5334696
	maximum total K-bytes		     16367	      5335
	maximum total M-bytes		        17	         6


                                     CITATION
                                     --------
                Please cite the following reference when publishing
                           results obtained with NWChem:

          E. Apra, E. J. Bylaska, W. A. de Jong, N. Govind, K. Kowalski,
       T. P. Straatsma, M. Valiev, H. J. J. van Dam, Y. Alexeev, J. Anchell,
       V. Anisimov, F. W. Aquino, R. Atta-Fynn, J. Autschbach, N. P. Bauman,
     J. C. Becca, D. E. Bernholdt, K. Bhaskaran-Nair, S. Bogatko, P. Borowski,
         J. Boschen, J. Brabec, A. Bruner, E. Cauet, Y. Chen, G. N. Chuev,
      C. J. Cramer, J. Daily, M. J. O. Deegan, T. H. Dunning Jr., M. Dupuis,
   K. G. Dyall, G. I. Fann, S. A. Fischer, A. Fonari, H. Fruchtl, L. Gagliardi,
      J. Garza, N. Gawande, S. Ghosh, K. Glaesemann, A. W. Gotz, J. Hammond,
       V. Helms, E. D. Hermes, K. Hirao, S. Hirata, M. Jacquelin, L. Jensen,
   B. G. Johnson, H. Jonsson, R. A. Kendall, M. Klemm, R. Kobayashi, V. Konkov,
      S. Krishnamoorthy, M. Krishnan, Z. Lin, R. D. Lins, R. J. Littlefield,
      A. J. Logsdail, K. Lopata, W. Ma, A. V. Marenich, J. Martin del Campo,
   D. Mejia-Rodriguez, J. E. Moore, J. M. Mullin, T. Nakajima, D. R. Nascimento,
    J. A. Nichols, P. J. Nichols, J. Nieplocha, A. Otero-de-la-Roza, B. Palmer,
    A. Panyala, T. Pirojsirikul, B. Peng, R. Peverati, J. Pittner, L. Pollack,
   R. M. Richard, P. Sadayappan, G. C. Schatz, W. A. Shelton, D. W. Silverstein,
   D. M. A. Smith, T. A. Soares, D. Song, M. Swart, H. L. Taylor, G. S. Thomas,
            V. Tipparaju, D. G. Truhlar, K. Tsemekhman, T. Van Voorhis,
      A. Vazquez-Mayagoitia, P. Verma, O. Villa, A. Vishnu, K. D. Vogiatzis,
        D. Wang, J. H. Weare, M. J. Williamson, T. L. Windus, K. Wolinski,
        A. T. Wong, Q. Wu, C. Yang, Q. Yu, M. Zacharias, Z. Zhang, Y. Zhao,
                                and R. J. Harrison
                        "NWChem: Past, present, and future
                         J. Chem. Phys. 152, 184102 (2020)
                               doi:10.1063/5.0004997

                                      AUTHORS
                                      -------
  E. Apra, E. J. Bylaska, N. Govind, K. Kowalski, M. Valiev, D. Mejia-Rodriguez,
       A. Kunitsa, N. P. Bauman, A. Panyala, W. A. de Jong, T. P. Straatsma,
   H. J. J. van Dam, D. Wang, T. L. Windus, J. Hammond, J. Autschbach, A. Woods,
    K. Bhaskaran-Nair, J. Brabec, K. Lopata, S. A. Fischer, S. Krishnamoorthy,
     M. Jacquelin, W. Ma, M. Klemm, O. Villa, Y. Chen, V. Anisimov, F. Aquino,
     S. Hirata, M. T. Hackler, E. Hermes, L. Jensen, J. E. Moore, J. C. Becca,
      V. Konjkov, T. Risthaus, M. Malagoli, A. Marenich, A. Otero-de-la-Roza,
        J. Mullin, P. Nichols, R. Peverati, J. Pittner, Y. Zhao, P.-D. Fan,
        A. Fonari, M. J. Williamson, R. J. Harrison, J. R. Rehr, M. Dupuis,
     D. Silverstein, D. M. A. Smith, J. Nieplocha, V. Tipparaju, M. Krishnan,
     B. E. Van Kuiken, A. Vazquez-Mayagoitia, M. Swart, Q. Wu, T. Van Voorhis,
     A. A. Auer, M. Nooijen, L. D. Crosby, E. Brown, G. Cisneros, G. I. Fann,
   H. Fruchtl, J. Garza, K. Hirao, R. A. Kendall, J. A. Nichols, K. Tsemekhman,
    K. Wolinski, J. Anchell, D. E. Bernholdt, P. Borowski, T. Clark, D. Clerc,
   H. Dachsel, M. J. O. Deegan, K. Dyall, D. Elwood, E. Glendening, M. Gutowski,
   A. C. Hess, J. Jaffe, B. G. Johnson, J. Ju, R. Kobayashi, R. Kutteh, Z. Lin,
   R. Littlefield, X. Long, B. Meng, T. Nakajima, S. Niu, L. Pollack, M. Rosing,
   K. Glaesemann, G. Sandrone, M. Stave, H. Taylor, G. Thomas, J. H. van Lenthe,
                               A. T. Wong, Z. Zhang.

 Total times  cpu:      295.0s     wall:      319.4s
