 argument  1 = H2-6.0.nw



============================== echo of input deck ==============================
title "swnc: e theory=pspw4 xc=hf formula=H2 charge=0 mult=1"
#machinejob:expert

echo

start pspw_hf_H2

memory heap 1200 mb stack 1200 mb global 10 mb

charge 0

geometry
H    0.00000    0.00000   -3.00000
H    0.00000    0.00000    3.00000
end

nwpw
  ### pseudopotential block begin ###
  ### pseudopotential block end   ###
  simulation_cell
     SC 15.0000
     boundary_conditions aperiodic
  end

  cutoff 50.0
  mult 1
  xc hf
  lmbfgs
  tolerances 1.0e-9 1.0e-9

  virtual 10
end
set nwpw:cif_filename H2

#set nwpw:CI_maxit_orb 15
#set nwpw:CI_maxit_linesearch 15
set pspw:HFX_screening_radius 14.0


set nwpw:2qintegrals .true.
set nwpw:3x3_virtual .true.

task pspw energy

================================================================================


                                         
                                         


             Northwest Computational Chemistry Package (NWChem) 7.2.3
             --------------------------------------------------------


                    Environmental Molecular Sciences Laboratory
                       Pacific Northwest National Laboratory
                                Richland, WA 99352

                              Copyright (c) 1994-2022
                       Pacific Northwest National Laboratory
                            Battelle Memorial Institute

             NWChem is an open-source computational chemistry package
                        distributed under the terms of the
                      Educational Community License (ECL) 2.0
             A copy of the license is included with this distribution
                              in the LICENSE.TXT file

                                  ACKNOWLEDGMENT
                                  --------------

            This software and its documentation were developed at the
            EMSL at Pacific Northwest National Laboratory, a multiprogram
            national laboratory, operated for the U.S. Department of Energy
            by Battelle under Contract Number DE-AC05-76RL01830. Support
            for this work was provided by the Department of Energy Office
            of Biological and Environmental Research, Office of Basic
            Energy Sciences, and the Office of Advanced Scientific Computing.


           Job information
           ---------------

    hostname        = mqs-al
    program         = nwchem
    date            = Tue Apr 15 09:39:05 2025

    compiled        = Thu_Oct_31_08:55:15_2024
    source          = /home/conda/feedstock_root/build_artifacts/nwchem_1730356057992/work
    nwchem branch   = 7.2.3
    nwchem revision = c400b04
    ga revision     = 5.8.0
    use scalapack   = T
    input           = H2-6.0.nw
    prefix          = pspw_hf_H2.
    data base       = ./pspw_hf_H2.db
    status          = startup
    nproc           =       24
    time left       =     -1s



           Memory information
           ------------------

    heap     =  157286400 doubles =   1200.0 Mbytes
    stack    =  157286397 doubles =   1200.0 Mbytes
    global   =    1310720 doubles =     10.0 Mbytes (distinct from heap & stack)
    total    =  315883517 doubles =   2410.0 Mbytes
    verify   = yes
    hardfail = no 


           Directory information
           ---------------------

  0 permanent = .
  0 scratch   = .




                                NWChem Input Module
                                -------------------


               swnc: e theory=pspw4 xc=hf formula=H2 charge=0 mult=1
               -----------------------------------------------------

 Scaling coordinates for geometry "geometry" by  1.889725989
 (inverse scale =  0.529177249)

  zeroes
  zeroes
  zeroes
  zeroes
  zeroes
  zeroes
  zeroes
  zeroes
  zeroes
  zeroes
  zeroes
  zeroes
  zeroes
  zeroes
  zeroes
  zeroes
  zeroes
  zeroes
  zeroes
  zeroes
  zeroes
  zeroes
  zeroes
  zeroes
  zeroes
  zeroes
  zeroes
  zeroes
  zeroes
  zeroes
  zeroes
  zeroes
  zeroes
  zeroes
  zeroes
  zeroes
  zeroes
  zeroes
  zeroes
  zeroes
  zeroes
  zeroes
  zeroes
  zeroes
  zeroes
  zeroes
  zeroes
  zeroes
 ORDER OF PRIMARY AXIS IS BEING SET TO 4
 D4H symmetry detected

          ------
          auto-z
          ------
     1 autoz failed with cvr_scaling = 1.2 changing to 1.3
     2 autoz failed with cvr_scaling = 1.3 changing to 1.4
     3 autoz failed with cvr_scaling = 1.4 changing to 1.5
     4 autoz failed with cvr_scaling = 1.5 changing to 1.6
     5 autoz failed with cvr_scaling = 1.6 changing to 1.7

 AUTOZ failed to generate good internal coordinates.
 Cartesian coordinates will be used in optimizations.



                             Geometry "geometry" -> ""
                             -------------------------

 Output coordinates in angstroms (scale by  1.889725989 to convert to a.u.)

  No.       Tag          Charge          X              Y              Z
 ---- ---------------- ---------- -------------- -------------- --------------
    1 H                    1.0000     0.00000000     0.00000000    -3.00000000
    2 H                    1.0000     0.00000000     0.00000000     3.00000000

      Atomic Mass 
      ----------- 

      H                  1.007825


 Effective nuclear repulsion energy (a.u.)       0.0881962082

            Nuclear Dipole moment (a.u.) 
            ----------------------------
        X                 Y               Z
 ---------------- ---------------- ----------------
     0.0000000000     0.0000000000     0.0000000000

      Symmetry information
      --------------------

 Group name             D4h       
 Group number             28
 Group order              16
 No. of unique centers     1

      Symmetry unique atoms

     1


            XYZ format geometry
            -------------------
     2
 geometry
 H                     0.00000000     0.00000000    -3.00000000
 H                     0.00000000     0.00000000     3.00000000

          ****************************************************
          *                                                  *
          *               NWPW PSPW Calculation              *
          *                                                  *
          * [ (Grassmann/Stiefel manifold implementation)  ] *
          *                                                  *
          *      [ NorthWest Chemistry implementation ]      *
          *                                                  *
          *            version #5.10   06/12/02              *
          *                                                  *
          *    This code was developed by Eric J. Bylaska,   *
          *    and was based upon algorithms and code        *
          *    developed by the group of Prof. John H. Weare *
          *                                                  *
          ****************************************************
     >>>  JOB STARTED       AT Tue Apr 15 09:39:05 2025  <<<
          ================ input data ========================

 input psi filename:./pspw_hf_H2.movecs

 number of processors used:        24
 processor grid           :  24 x   1
 parallel mapping         :2d-hilbert
 parallel mapping         :  balanced
 number of threads        :         1
 parallel io              :       off

 options:
      boundary conditions  = aperiodic   (version4)
      electron spin        = restricted
      exchange-correlation = Hartree-Fock
      - HFX relaxed
      - HFX restricted orbitals :    1
      - HFX free-space coulomb solver


 elements involved in the cluster:
      1: H   valence charge:  1.0000  lmax=  1
             comment    : Parameterized (Chem.Phys.Lett., vol 322, page 447) Hamman psp
             pseudpotential type            :   0
             highest angular component      :   1
             local potential used           :   1
             number of non-local projections:   1
             aperiodic cutoff radius        :  1.000
             cutoff =   0.800   0.800


 total charge:   0.000

 atomic composition:
     H   :    2

 number of electrons: spin up=     1 (   1 per task)  down=     1 (   1 per task) (Fourier space)
 number of orbitals : spin up=     1 (   1 per task)  down=     1 (   1 per task) (Fourier space)

 supercell:
      cell_name:  cell_default                                      
      lattice:    a1=<  15.000   0.000   0.000 >
                  a2=<   0.000  15.000   0.000 >
                  a3=<   0.000   0.000  15.000 >
      reciprocal: b1=<   0.419   0.000   0.000 >
                  b2=<   0.000   0.419   0.000 >
                  b3=<   0.000   0.000   0.419 >
      lattice:    a=      15.000 b=     15.000 c=      15.000
                  alpha=  90.000 beta=  90.000 gamma=  90.000
                  omega=      3375.0

      density cutoff=100.000  fft= 70x 70x 70(    80618 waves     3359 per task)
      wavefnc cutoff= 50.000  fft= 70x 70x 70(    28526 waves     1188 per task)

 technical parameters:
      time step=      5.80     fictitious mass=  400000.0
      tolerance=0.100E-08 (energy)   0.100E-08 (density)
      maximum iterations =      1000 (   10 inner    100 outer )





== Energy Calculation ==


          ============ Grassmann lmbfgs iteration ============
     >>>  ITERATION STARTED AT Tue Apr 15 09:39:11 2025  <<<
    iter.           Energy         DeltaE       DeltaRho 
    ------------------------------------------------------
      10   -0.8263271560E+00   -0.52458E-02    0.25528E-01
     -  10 steepest descent iterations performed
      20   -0.8402775964E+00   -0.40904E-03    0.14475E-03
      30   -0.8411440362E+00   -0.19438E-04    0.23423E-04
      40   -0.8412054809E+00   -0.13054E-05    0.53552E-06
      50   -0.8412102333E+00   -0.16386E-06    0.10470E-07
      60   -0.8412105918E+00   -0.70608E-08    0.20971E-08
      70   -0.8412106179E+00   -0.72011E-09    0.14551E-09
  *** tolerance ok. iteration terminated
     >>>  ITERATION ENDED   AT Tue Apr 15 09:39:18 2025  <<<


==  Summary Of Results  ==

 number of electrons: spin up=    1.00000  down=    1.00000 (real space)

 total     energy    :  -0.8412106179E+00 (   -0.42061E+00/ion)
 total orbital energy:  -0.6214872580E+00 (   -0.62149E+00/electron)
 hartree   energy    :   0.6158391362E+00 (    0.61584E+00/electron)
 exc-corr  energy    :   0.0000000000E+00 (    0.00000E+00/electron)
 HF exchange energy  :  -0.3079195681E+00 (   -0.30792E+00/electron)
 ion-ion   energy    :   0.8819620817E-01 (    0.44098E-01/ion)

 kinetic (planewave) :   0.6010193521E+00 (    0.60102E+00/electron)
 V_local (planewave) :  -0.1687738451E+01 (   -0.16877E+01/electron)
 V_nl    (planewave) :  -0.1506072957E+00 (   -0.15061E+00/electron)
 V_Coul  (planewave) :   0.1231678272E+01 (    0.12317E+01/electron)
 V_xc.   (planewave) :   0.0000000000E+00 (    0.00000E+00/electron)
 K.S. HFX energy     :  -0.6158391362E+00 (   -0.61584E+00/electron)
 Virial Coefficient  :  -0.1009397571E+01

 orbital energies:
    -0.3107436E+00 (  -8.456eV)


== Virtual Orbital Calculation ==


 input epsi filename:./pspw_hf_H2.emovecs

 COVOs Mimimization
 ------------------
CI gradient algorithm =         3
maxit_sweeps          =         3
maxit_orb             =       120
maxit_linesearch      =        15
maxerror              = 0.100E-08

     orb,it,eci,eold,eci-eold=                    1                    1 -0.88250832534708734      -0.88096148838307986       -1.5468369640074808E-003 F
     orb,it,eci,eold,eci-eold=                    1                    2 -0.88859970204942051      -0.88250832534708734       -6.0913767023331733E-003 F
     orb,it,eci,eold,eci-eold=                    1                    3 -0.89311657405638045      -0.88859970204942051       -4.5168720069599377E-003 F
     orb,it,eci,eold,eci-eold=                    1                    4 -0.90114025384010299      -0.89311657405638045       -8.0236797837225371E-003 F
     orb,it,eci,eold,eci-eold=                    1                    5 -0.90961859870219952      -0.90114025384010299       -8.4783448620965318E-003 F
     orb,it,eci,eold,eci-eold=                    1                    6 -0.91182410143658510      -0.90961859870219952       -2.2055027343855782E-003 F
     orb,it,eci,eold,eci-eold=                    1                    7 -0.91317687139456749      -0.91182410143658510       -1.3527699579823915E-003 F
     orb,it,eci,eold,eci-eold=                    1                    8 -0.92160754536677203      -0.91317687139456749       -8.4306739722045387E-003 F
     orb,it,eci,eold,eci-eold=                    1                    9 -0.92904968316295156      -0.92160754536677203       -7.4421377961795265E-003 F
     orb,it,eci,eold,eci-eold=                    1                   10 -0.92971122692758679      -0.92904968316295156       -6.6154376463523068E-004 F
     orb,it,eci,eold,eci-eold=                    1                   11 -0.93105829034753740      -0.92971122692758679       -1.3470634199506115E-003 F
     orb,it,eci,eold,eci-eold=                    1                   12 -0.93222317815375821      -0.93105829034753740       -1.1648878062208157E-003 F
     orb,it,eci,eold,eci-eold=                    1                   13 -0.94188304546702994      -0.93222317815375821       -9.6598673132717305E-003 F
     orb,it,eci,eold,eci-eold=                    1                   14 -0.95826235159247997      -0.94188304546702994       -1.6379306125450022E-002 F
     orb,it,eci,eold,eci-eold=                    1                   15 -0.95968552959143838      -0.95826235159247997       -1.4231779989584137E-003 F
     orb,it,eci,eold,eci-eold=                    1                   16 -0.96020952278986826      -0.95968552959143838       -5.2399319842988401E-004 F
     orb,it,eci,eold,eci-eold=                    1                   17 -0.97155247669175737      -0.96020952278986826       -1.1342953901889108E-002 F
     orb,it,eci,eold,eci-eold=                    1                   18 -0.97622280377467341      -0.97155247669175737       -4.6703270829160370E-003 F
     orb,it,eci,eold,eci-eold=                    1                   19 -0.97773289850271383      -0.97622280377467341       -1.5100947280404231E-003 F
     orb,it,eci,eold,eci-eold=                    1                   20 -0.97815620868488429      -0.97773289850271383       -4.2331018217045546E-004 F
     orb,it,eci,eold,eci-eold=                    1                   21 -0.97823090080795039      -0.97815620868488429       -7.4692123066100180E-005 F
     orb,it,eci,eold,eci-eold=                    1                   22 -0.97852978574317051      -0.97823090080795039       -2.9888493522012283E-004 F
     orb,it,eci,eold,eci-eold=                    1                   23 -0.97899575176577525      -0.97852978574317051       -4.6596602260473574E-004 F
     orb,it,eci,eold,eci-eold=                    1                   24 -0.97952877025922791      -0.97899575176577525       -5.3301849345266383E-004 F
     orb,it,eci,eold,eci-eold=                    1                   25 -0.97965856944145657      -0.97952877025922791       -1.2979918222866260E-004 F
     orb,it,eci,eold,eci-eold=                    1                   26 -0.97987325643350298      -0.97965856944145657       -2.1468699204640895E-004 F
     orb,it,eci,eold,eci-eold=                    1                   27 -0.97995088998080648      -0.97987325643350298       -7.7633547303501693E-005 F
     orb,it,eci,eold,eci-eold=                    1                   28 -0.97999814897212278      -0.97995088998080648       -4.7258991316301291E-005 F
     orb,it,eci,eold,eci-eold=                    1                   29 -0.98022427515655008      -0.97999814897212278       -2.2612618442729993E-004 F
     orb,it,eci,eold,eci-eold=                    1                   30 -0.98025766782504997      -0.98022427515655008       -3.3392668499887534E-005 F
     orb,it,eci,eold,eci-eold=                    1                   31 -0.98029128275256761      -0.98025766782504997       -3.3614927517633397E-005 F
     orb,it,eci,eold,eci-eold=                    1                   32 -0.98046276693913414      -0.98029128275256761       -1.7148418656653952E-004 F
     orb,it,eci,eold,eci-eold=                    1                   33 -0.98055739172739254      -0.98046276693913414       -9.4624788258390602E-005 F
     orb,it,eci,eold,eci-eold=                    1                   34 -0.98057802668499372      -0.98055739172739254       -2.0634957601184389E-005 F
     orb,it,eci,eold,eci-eold=                    1                   35 -0.98058368025606035      -0.98057802668499372       -5.6535710666327788E-006 F
     orb,it,eci,eold,eci-eold=                    1                   36 -0.98063790589703848      -0.98058368025606035       -5.4225640978122769E-005 F
     orb,it,eci,eold,eci-eold=                    1                   37 -0.98066440653801668      -0.98063790589703848       -2.6500640978199819E-005 F
     orb,it,eci,eold,eci-eold=                    1                   38 -0.98067414275240261      -0.98066440653801668       -9.7362143859358596E-006 F
     orb,it,eci,eold,eci-eold=                    1                   39 -0.98067797351677100      -0.98067414275240261       -3.8307643683843651E-006 F
     orb,it,eci,eold,eci-eold=                    1                   40 -0.98070770536406282      -0.98067797351677100       -2.9731847291825098E-005 F
     orb,it,eci,eold,eci-eold=                    1                   41 -0.98071430699473061      -0.98070770536406282       -6.6016306677907366E-006 F
     orb,it,eci,eold,eci-eold=                    1                   42 -0.98071531469439410      -0.98071430699473061       -1.0076996634911239E-006 F
     orb,it,eci,eold,eci-eold=                    1                   43 -0.98072690851801925      -0.98071531469439410       -1.1593823625144495E-005 F
     orb,it,eci,eold,eci-eold=                    1                   44 -0.98073337688033158      -0.98072690851801925       -6.4683623123285017E-006 F
     orb,it,eci,eold,eci-eold=                    1                   45 -0.98073672987929428      -0.98073337688033158       -3.3529989627023582E-006 F
     orb,it,eci,eold,eci-eold=                    1                   46 -0.98074826970262663      -0.98073672987929428       -1.1539823332351595E-005 F
     orb,it,eci,eold,eci-eold=                    1                   47 -0.98075449561104422      -0.98074826970262663       -6.2259084175897428E-006 F
     orb,it,eci,eold,eci-eold=                    1                   48 -0.98075917914940680      -0.98075449561104422       -4.6835383625820626E-006 F
     orb,it,eci,eold,eci-eold=                    1                   49 -0.98076164131363108      -0.98075917914940680       -2.4621642242816932E-006 F
     orb,it,eci,eold,eci-eold=                    1                   50 -0.98076536394278824      -0.98076164131363108       -3.7226291571546000E-006 F
     orb,it,eci,eold,eci-eold=                    1                   51 -0.98076732412647571      -0.98076536394278824       -1.9601836874771905E-006 F
     orb,it,eci,eold,eci-eold=                    1                   52 -0.98077077641193444      -0.98076732412647571       -3.4522854587271112E-006 F
     orb,it,eci,eold,eci-eold=                    1                   53 -0.98077282373283126      -0.98077077641193444       -2.0473208968141421E-006 F
     orb,it,eci,eold,eci-eold=                    1                   54 -0.98077481428601732      -0.98077282373283126       -1.9905531860597847E-006 F
     orb,it,eci,eold,eci-eold=                    1                   55 -0.98077503164234225      -0.98077481428601732       -2.1735632493857793E-007 F
     orb,it,eci,eold,eci-eold=                    1                   56 -0.98077514945788580      -0.98077503164234225       -1.1781554354328705E-007 F
     orb,it,eci,eold,eci-eold=                    1                   57 -0.98077613206164127      -0.98077514945788580       -9.8260375547276624E-007 F
     orb,it,eci,eold,eci-eold=                    1                   58 -0.98077771018391535      -0.98077613206164127       -1.5781222740818279E-006 F
     orb,it,eci,eold,eci-eold=                    1                   59 -0.98077864949696969      -0.98077771018391535       -9.3931305433780921E-007 F
     orb,it,eci,eold,eci-eold=                    1                   60 -0.98078031226682172      -0.98077864949696969       -1.6627698520288448E-006 F
     orb,it,eci,eold,eci-eold=                    1                   61 -0.98078102635805542      -0.98078031226682172       -7.1409123370003158E-007 F
     orb,it,eci,eold,eci-eold=                    1                   62 -0.98078147949377148      -0.98078102635805542       -4.5313571606087066E-007 F
     orb,it,eci,eold,eci-eold=                    1                   63 -0.98078183711679157      -0.98078147949377148       -3.5762302008635061E-007 F
     orb,it,eci,eold,eci-eold=                    1                   64 -0.98078294886004347      -0.98078183711679157       -1.1117432519025527E-006 F
     orb,it,eci,eold,eci-eold=                    1                   65 -0.98078324253705984      -0.98078294886004347       -2.9367701637195154E-007 F
     orb,it,eci,eold,eci-eold=                    1                   66 -0.98078349363037176      -0.98078324253705984       -2.5109331192041395E-007 F
     orb,it,eci,eold,eci-eold=                    1                   67 -0.98078368607758271      -0.98078349363037176       -1.9244721094491268E-007 F
     orb,it,eci,eold,eci-eold=                    1                   68 -0.98078418859614425      -0.98078368607758271       -5.0251856154037711E-007 F
     orb,it,eci,eold,eci-eold=                    1                   69 -0.98078427053905637      -0.98078418859614425       -8.1942912122379141E-008 F
     orb,it,eci,eold,eci-eold=                    1                   70 -0.98078431724925663      -0.98078427053905637       -4.6710200263255786E-008 F
     orb,it,eci,eold,eci-eold=                    1                   71 -0.98078472916430948      -0.98078431724925663       -4.1191505284476904E-007 F
     orb,it,eci,eold,eci-eold=                    1                   72 -0.98078497372017370      -0.98078472916430948       -2.4455586422611475E-007 F
     orb,it,eci,eold,eci-eold=                    1                   73 -0.98078506260315512      -0.98078497372017370       -8.8882981419402540E-008 F
     orb,it,eci,eold,eci-eold=                    1                   74 -0.98078538077177169      -0.98078506260315512       -3.1816861656430717E-007 F
     orb,it,eci,eold,eci-eold=                    1                   75 -0.98078550123147334      -0.98078538077177169       -1.2045970165797115E-007 F
     orb,it,eci,eold,eci-eold=                    1                   76 -0.98078555786026311      -0.98078550123147334       -5.6628789768531362E-008 F
     orb,it,eci,eold,eci-eold=                    1                   77 -0.98078582378464196      -0.98078555786026311       -2.6592437885053499E-007 F
     orb,it,eci,eold,eci-eold=                    1                   78 -0.98078589641030245      -0.98078582378464196       -7.2625660485492460E-008 F
     orb,it,eci,eold,eci-eold=                    1                   79 -0.98078590740878591      -0.98078589641030245       -1.0998483457314023E-008 F
     orb,it,eci,eold,eci-eold=                    1                   80 -0.98078610983802728      -0.98078590740878591       -2.0242924136937290E-007 F
     orb,it,eci,eold,eci-eold=                    1                   81 -0.98078626450452799      -0.98078610983802728       -1.5466650071793708E-007 F
     orb,it,eci,eold,eci-eold=                    1                   82 -0.98078632300688573      -0.98078626450452799       -5.8502357735967792E-008 F
     orb,it,eci,eold,eci-eold=                    1                   83 -0.98078649320498423      -0.98078632300688573       -1.7019809850360446E-007 F
     orb,it,eci,eold,eci-eold=                    1                   84 -0.98078656587725410      -0.98078649320498423       -7.2672269868512274E-008 F
     orb,it,eci,eold,eci-eold=                    1                   85 -0.98078659918510835      -0.98078656587725410       -3.3307854252484503E-008 F
     orb,it,eci,eold,eci-eold=                    1                   86 -0.98078671434235076      -0.98078659918510835       -1.1515724240851455E-007 F
     orb,it,eci,eold,eci-eold=                    1                   87 -0.98078676515483421      -0.98078671434235076       -5.0812483443074541E-008 F
     orb,it,eci,eold,eci-eold=                    1                   88 -0.98078680503656590      -0.98078676515483421       -3.9881731694890732E-008 F
     orb,it,eci,eold,eci-eold=                    1                   89 -0.98078692779324395      -0.98078680503656590       -1.2275667804484414E-007 F
     orb,it,eci,eold,eci-eold=                    1                   90 -0.98078700569568156      -0.98078692779324395       -7.7902437611854225E-008 F
     orb,it,eci,eold,eci-eold=                    1                   91 -0.98078707135255738      -0.98078700569568156       -6.5656875825048644E-008 F
     orb,it,eci,eold,eci-eold=                    1                   92 -0.98078709969035338      -0.98078707135255738       -2.8337795998645277E-008 F
     orb,it,eci,eold,eci-eold=                    1                   93 -0.98078716414527123      -0.98078709969035338       -6.4454917847456272E-008 F
     orb,it,eci,eold,eci-eold=                    1                   94 -0.98078716438855384      -0.98078716414527123       -2.4328261627459824E-010 F
     orbital   1 current e= -0.928368E-01 error=0.176E+00 (eci= -0.980787164E+00 error=0.243E-09) iterations  94(   0 preconditioned, Ep,Sp= 20.0  200.0)
     orb,it,eci,eold,eci-eold=                    1                    1 -0.98078731114341533      -0.98078716438855384       -1.4675486148529870E-007 F
     orb,it,eci,eold,eci-eold=                    1                    2 -0.98078738842923419      -0.98078731114341533       -7.7285818855798993E-008 F
     orb,it,eci,eold,eci-eold=                    1                    3 -0.98078743755945674      -0.98078738842923419       -4.9130222556925673E-008 F
     orb,it,eci,eold,eci-eold=                    1                    4 -0.98078745621854724      -0.98078743755945674       -1.8659090494921315E-008 F
     orb,it,eci,eold,eci-eold=                    1                    5 -0.98078746431249131      -0.98078745621854724       -8.0939440705307675E-009 F
     orb,it,eci,eold,eci-eold=                    1                    6 -0.98078748081226919      -0.98078746431249131       -1.6499777877321264E-008 F
     orb,it,eci,eold,eci-eold=                    1                    7 -0.98078748251213188      -0.98078748081226919       -1.6998626950481821E-009 F
     orb,it,eci,eold,eci-eold=                    1                    8 -0.98078748251213188      -0.98078748251213188        0.0000000000000000      F
     orbital   1 current e= -0.928389E-01 error=0.212E-05 (eci= -0.980787483E+00 error=0.000E+00) iterations   8(   0 preconditioned, Ep,Sp= 20.0  200.0)
     orb,it,eci,eold,eci-eold=                    1                    1 -0.98078748741019706      -0.98078748191225285       -5.4979442110081322E-009 F
     orb,it,eci,eold,eci-eold=                    1                    2 -0.98078748823402195      -0.98078748741019706       -8.2382489718924035E-010 F
     orbital   1 current e= -0.928388E-01 error=0.611E-07 (eci= -0.980787488E+00 error=0.824E-09) iterations   2(   0 preconditioned, Ep,Sp= 20.0  200.0)
     orb,it,eci,eold,eci-eold=                    2                    1 -0.84299974673420741      -0.84228587313103276       -7.1387360317465287E-004 F
     orb,it,eci,eold,eci-eold=                    2                    2 -0.84311438347591716      -0.84299974673420741       -1.1463674170975047E-004 F
     orb,it,eci,eold,eci-eold=                    2                    3 -0.84326944385438596      -0.84311438347591716       -1.5506037846879650E-004 F
     orb,it,eci,eold,eci-eold=                    2                    4 -0.84337416684537292      -0.84326944385438596       -1.0472299098696070E-004 F
     orb,it,eci,eold,eci-eold=                    2                    5 -0.84349035064080580      -0.84337416684537292       -1.1618379543287816E-004 F
     orb,it,eci,eold,eci-eold=                    2                    6 -0.84361459720247811      -0.84349035064080580       -1.2424656167231429E-004 F
     orb,it,eci,eold,eci-eold=                    2                    7 -0.84369095296794550      -0.84361459720247811       -7.6355765467384096E-005 F
     orb,it,eci,eold,eci-eold=                    2                    8 -0.84377640319779146      -0.84369095296794550       -8.5450229845962511E-005 F
     orb,it,eci,eold,eci-eold=                    2                    9 -0.84380209576792464      -0.84377640319779146       -2.5692570133184489E-005 F
     orb,it,eci,eold,eci-eold=                    2                   10 -0.84385477087375238      -0.84380209576792464       -5.2675105827737490E-005 F
     orb,it,eci,eold,eci-eold=                    2                   11 -0.84391048994496065      -0.84385477087375238       -5.5719071208271131E-005 F
     orb,it,eci,eold,eci-eold=                    2                   12 -0.84394461530878584      -0.84391048994496065       -3.4125363825188160E-005 F
     orb,it,eci,eold,eci-eold=                    2                   13 -0.84399968702497474      -0.84394461530878584       -5.5071716188903608E-005 F
     orb,it,eci,eold,eci-eold=                    2                   14 -0.84400987905695835      -0.84399968702497474       -1.0192031983602412E-005 F
     orb,it,eci,eold,eci-eold=                    2                   15 -0.84402519193975434      -0.84400987905695835       -1.5312882795992522E-005 F
     orb,it,eci,eold,eci-eold=                    2                   16 -0.84403145162830473      -0.84402519193975434       -6.2596885503918287E-006 F
     orb,it,eci,eold,eci-eold=                    2                   17 -0.84408204522397901      -0.84403145162830473       -5.0593595674275349E-005 F
     orb,it,eci,eold,eci-eold=                    2                   18 -0.84412923982911281      -0.84408204522397901       -4.7194605133804579E-005 F
     orb,it,eci,eold,eci-eold=                    2                   19 -0.84416139645237842      -0.84412923982911281       -3.2156623265611195E-005 F
     orb,it,eci,eold,eci-eold=                    2                   20 -0.84420838203050019      -0.84416139645237842       -4.6985578121772065E-005 F
     orb,it,eci,eold,eci-eold=                    2                   21 -0.84423544243981419      -0.84420838203050019       -2.7060409313994782E-005 F
     orb,it,eci,eold,eci-eold=                    2                   22 -0.84425048669553704      -0.84423544243981419       -1.5044255722851396E-005 F
     orb,it,eci,eold,eci-eold=                    2                   23 -0.84425999158960474      -0.84425048669553704       -9.5048940677022742E-006 F
     orb,it,eci,eold,eci-eold=                    2                   24 -0.84427536919356772      -0.84425999158960474       -1.5377603962973829E-005 F
     orb,it,eci,eold,eci-eold=                    2                   25 -0.84427592115231953      -0.84427536919356772       -5.5195875181546228E-007 F
     orb,it,eci,eold,eci-eold=                    2                   26 -0.84428613487657211      -0.84427592115231953       -1.0213724252583489E-005 F
     orb,it,eci,eold,eci-eold=                    2                   27 -0.84429579534632193      -0.84428613487657211       -9.6604697498170466E-006 F
     orb,it,eci,eold,eci-eold=                    2                   28 -0.84430071516013216      -0.84429579534632193       -4.9198138102335420E-006 F
     orb,it,eci,eold,eci-eold=                    2                   29 -0.84430821496024899      -0.84430071516013216       -7.4998001168280481E-006 F
     orb,it,eci,eold,eci-eold=                    2                   30 -0.84431279730068087      -0.84430821496024899       -4.5823404318801053E-006 F
     orb,it,eci,eold,eci-eold=                    2                   31 -0.84431655681232054      -0.84431279730068087       -3.7595116396671457E-006 F
     orb,it,eci,eold,eci-eold=                    2                   32 -0.84431844131934808      -0.84431655681232054       -1.8845070275386178E-006 F
     orb,it,eci,eold,eci-eold=                    2                   33 -0.84432167880882325      -0.84431844131934808       -3.2374894751718841E-006 F
     orb,it,eci,eold,eci-eold=                    2                   34 -0.84432168003691432      -0.84432167880882325       -1.2280910732798134E-009 F
     orb,it,eci,eold,eci-eold=                    2                   35 -0.84432272624642712      -0.84432168003691432       -1.0462095128005444E-006 F
     orb,it,eci,eold,eci-eold=                    2                   36 -0.84432505316862505      -0.84432272624642712       -2.3269221979260735E-006 F
     orb,it,eci,eold,eci-eold=                    2                   37 -0.84432631572140560      -0.84432505316862505       -1.2625527805454340E-006 F
     orb,it,eci,eold,eci-eold=                    2                   38 -0.84432711776921798      -0.84432631572140560       -8.0204781238712997E-007 F
     orb,it,eci,eold,eci-eold=                    2                   39 -0.84432753597029142      -0.84432711776921798       -4.1820107343770729E-007 F
     orb,it,eci,eold,eci-eold=                    2                   40 -0.84432888365110115      -0.84432753597029142       -1.3476808097268034E-006 F
     orb,it,eci,eold,eci-eold=                    2                   41 -0.84432912876437349      -0.84432888365110115       -2.4511327234577607E-007 F
     orb,it,eci,eold,eci-eold=                    2                   42 -0.84432928499326465      -0.84432912876437349       -1.5622889115718408E-007 F
     orb,it,eci,eold,eci-eold=                    2                   43 -0.84433018068039489      -0.84432928499326465       -8.9568713024235080E-007 F
     orb,it,eci,eold,eci-eold=                    2                   44 -0.84433023796718942      -0.84433018068039489       -5.7286794530320151E-008 F
     orb,it,eci,eold,eci-eold=                    2                   45 -0.84433029469068055      -0.84433023796718942       -5.6723491126398073E-008 F
     orb,it,eci,eold,eci-eold=                    2                   46 -0.84433090836361901      -0.84433029469068055       -6.1367293846537052E-007 F
     orb,it,eci,eold,eci-eold=                    2                   47 -0.84433123763033557      -0.84433090836361901       -3.2926671655886253E-007 F
     orb,it,eci,eold,eci-eold=                    2                   48 -0.84433160365278181      -0.84433123763033557       -3.6602244624095448E-007 F
     orb,it,eci,eold,eci-eold=                    2                   49 -0.84433177847538543      -0.84433160365278181       -1.7482260361578739E-007 F
     orb,it,eci,eold,eci-eold=                    2                   50 -0.84433201163226224      -0.84433177847538543       -2.3315687680547370E-007 F
     orb,it,eci,eold,eci-eold=                    2                   51 -0.84433209374178164      -0.84433201163226224       -8.2109519405904052E-008 F
     orb,it,eci,eold,eci-eold=                    2                   52 -0.84433210502699252      -0.84433209374178164       -1.1285210876899043E-008 F
     orb,it,eci,eold,eci-eold=                    2                   53 -0.84433222198840663      -0.84433210502699252       -1.1696141410943994E-007 F
     orb,it,eci,eold,eci-eold=                    2                   54 -0.84433247879846252      -0.84433222198840663       -2.5681005588751304E-007 F
     orb,it,eci,eold,eci-eold=                    2                   55 -0.84433262170382284      -0.84433247879846252       -1.4290536032302015E-007 F
     orb,it,eci,eold,eci-eold=                    2                   56 -0.84433271761259798      -0.84433262170382284       -9.5908775143982439E-008 F
     orb,it,eci,eold,eci-eold=                    2                   57 -0.84433275389417950      -0.84433271761259798       -3.6281581516917072E-008 F
     orb,it,eci,eold,eci-eold=                    2                   58 -0.84433290898997437      -0.84433275389417950       -1.5509579487371639E-007 F
     orb,it,eci,eold,eci-eold=                    2                   59 -0.84433296588420892      -0.84433290898997437       -5.6894234545801226E-008 F
     orb,it,eci,eold,eci-eold=                    2                   60 -0.84433298313003469      -0.84433296588420892       -1.7245825767453482E-008 F
     orb,it,eci,eold,eci-eold=                    2                   61 -0.84433309918684540      -0.84433298313003469       -1.1605681071724661E-007 F
     orb,it,eci,eold,eci-eold=                    2                   62 -0.84433312476563105      -0.84433309918684540       -2.5578785645130608E-008 F
     orb,it,eci,eold,eci-eold=                    2                   63 -0.84433312588039278      -0.84433312476563105       -1.1147617273721266E-009 F
     orb,it,eci,eold,eci-eold=                    2                   64 -0.84433320485998509      -0.84433312588039278       -7.8979592310624014E-008 F
     orb,it,eci,eold,eci-eold=                    2                   65 -0.84433322599139093      -0.84433320485998509       -2.1131405847363283E-008 F
     orb,it,eci,eold,eci-eold=                    2                   66 -0.84433322667462096      -0.84433322599139093       -6.8323002810899425E-010 F
     orbital   2 current e=  0.457961E+00 error=0.227E+00 (eci= -0.844333227E+00 error=0.683E-09) iterations  66(   0 preconditioned, Ep,Sp= 20.0  200.0)
     orb,it,eci,eold,eci-eold=                    2                    1 -0.84433339976804889      -0.84433322667462096       -1.7309342792426463E-007 F
     orb,it,eci,eold,eci-eold=                    2                    2 -0.84433340488242048      -0.84433339976804889       -5.1143715928958500E-009 F
     orb,it,eci,eold,eci-eold=                    2                    3 -0.84433341036792531      -0.84433340488242048       -5.4855048281510221E-009 F
     orb,it,eci,eold,eci-eold=                    2                    4 -0.84433346354331218      -0.84433341036792531       -5.3175386871551211E-008 F
     orb,it,eci,eold,eci-eold=                    2                    5 -0.84433347218036259      -0.84433346354331218       -8.6370504082111665E-009 F
     orb,it,eci,eold,eci-eold=                    2                    6 -0.84433347365237210      -0.84433347218036259       -1.4720095142806144E-009 F
     orb,it,eci,eold,eci-eold=                    2                    7 -0.84433349713704886      -0.84433347365237210       -2.3484676758833700E-008 F
     orb,it,eci,eold,eci-eold=                    2                    8 -0.84433350351426872      -0.84433349713704886       -6.3772198632960908E-009 F
     orb,it,eci,eold,eci-eold=                    2                    9 -0.84433351007865154      -0.84433350351426872       -6.5643828150996342E-009 F
     orb,it,eci,eold,eci-eold=                    2                   10 -0.84433353057152871      -0.84433351007865154       -2.0492877172983981E-008 F
     orb,it,eci,eold,eci-eold=                    2                   11 -0.84433353097330244      -0.84433353057152871       -4.0177372540028955E-010 F
     orbital   2 current e=  0.457761E+00 error=0.200E-03 (eci= -0.844333531E+00 error=0.402E-09) iterations  11(   0 preconditioned, Ep,Sp= 20.0  200.0)
     orb,it,eci,eold,eci-eold=                    2                    1 -0.84433354860119025      -0.84433353097330244       -1.7627887816118459E-008 F
     orb,it,eci,eold,eci-eold=                    2                    2 -0.84433355910674912      -0.84433354860119025       -1.0505558867279774E-008 F
     orb,it,eci,eold,eci-eold=                    2                    3 -0.84433356592883690      -0.84433355910674912       -6.8220877835756255E-009 F
     orb,it,eci,eold,eci-eold=                    2                    4 -0.84433356625779654      -0.84433356592883690       -3.2895963730794620E-010 F
     orbital   2 current e=  0.457729E+00 error=0.320E-04 (eci= -0.844333566E+00 error=0.329E-09) iterations   4(   0 preconditioned, Ep,Sp= 20.0  200.0)
     orb,it,eci,eold,eci-eold=                    3                    1 -0.84210879487948631      -0.84165623501599018       -4.5255986349612698E-004 F
     orb,it,eci,eold,eci-eold=                    3                    2 -0.84221257600564081      -0.84210879487948631       -1.0378112615450075E-004 F
     orb,it,eci,eold,eci-eold=                    3                    3 -0.84225652447107713      -0.84221257600564081       -4.3948465436316475E-005 F
     orb,it,eci,eold,eci-eold=                    3                    4 -0.84258840019563930      -0.84225652447107713       -3.3187572456216952E-004 F
     orb,it,eci,eold,eci-eold=                    3                    5 -0.84258937290146296      -0.84258840019563930       -9.7270582366526526E-007 F
     orb,it,eci,eold,eci-eold=                    3                    6 -0.84263424890251815      -0.84258937290146296       -4.4876001055182968E-005 F
     orb,it,eci,eold,eci-eold=                    3                    7 -0.84270667376121544      -0.84263424890251815       -7.2424858697295313E-005 F
     orb,it,eci,eold,eci-eold=                    3                    8 -0.84277197615394417      -0.84270667376121544       -6.5302392728727732E-005 F
     orb,it,eci,eold,eci-eold=                    3                    9 -0.84279311922340860      -0.84277197615394417       -2.1143069464435449E-005 F
     orb,it,eci,eold,eci-eold=                    3                   10 -0.84281043103728137      -0.84279311922340860       -1.7311813872766812E-005 F
     orb,it,eci,eold,eci-eold=                    3                   11 -0.84281592172777675      -0.84281043103728137       -5.4906904953799796E-006 F
     orb,it,eci,eold,eci-eold=                    3                   12 -0.84283596110009862      -0.84281592172777675       -2.0039372321867255E-005 F
     orb,it,eci,eold,eci-eold=                    3                   13 -0.84284632604288445      -0.84283596110009862       -1.0364942785834330E-005 F
     orb,it,eci,eold,eci-eold=                    3                   14 -0.84284841832848389      -0.84284632604288445       -2.0922855994420786E-006 F
     orb,it,eci,eold,eci-eold=                    3                   15 -0.84284854946586485      -0.84284841832848389       -1.3113738095427152E-007 F
     orb,it,eci,eold,eci-eold=                    3                   16 -0.84285395197194746      -0.84284854946586485       -5.4025060826079496E-006 F
     orb,it,eci,eold,eci-eold=                    3                   17 -0.84285672366666198      -0.84285395197194746       -2.7716947145206561E-006 F
     orb,it,eci,eold,eci-eold=                    3                   18 -0.84285868668358277      -0.84285672366666198       -1.9630169207918158E-006 F
     orb,it,eci,eold,eci-eold=                    3                   19 -0.84286714431500998      -0.84285868668358277       -8.4576314272055697E-006 F
     orb,it,eci,eold,eci-eold=                    3                   20 -0.84287781665085582      -0.84286714431500998       -1.0672335845840486E-005 F
     orb,it,eci,eold,eci-eold=                    3                   21 -0.84287904474715469      -0.84287781665085582       -1.2280962988775457E-006 F
     orb,it,eci,eold,eci-eold=                    3                   22 -0.84288059090419409      -0.84287904474715469       -1.5461570394004198E-006 F
     orb,it,eci,eold,eci-eold=                    3                   23 -0.84289171103439098      -0.84288059090419409       -1.1120130196884404E-005 F
     orb,it,eci,eold,eci-eold=                    3                   24 -0.84290550802499253      -0.84289171103439098       -1.3796990601555592E-005 F
     orb,it,eci,eold,eci-eold=                    3                   25 -0.84291196989514416      -0.84290550802499253       -6.4618701516305777E-006 F
     orb,it,eci,eold,eci-eold=                    3                   26 -0.84292139153306544      -0.84291196989514416       -9.4216379212808121E-006 F
     orb,it,eci,eold,eci-eold=                    3                   27 -0.84292684593688083      -0.84292139153306544       -5.4544038153858665E-006 F
     orb,it,eci,eold,eci-eold=                    3                   28 -0.84293457200425270      -0.84292684593688083       -7.7260673718715367E-006 F
     orb,it,eci,eold,eci-eold=                    3                   29 -0.84293863452719608      -0.84293457200425270       -4.0625229433821630E-006 F
     orb,it,eci,eold,eci-eold=                    3                   30 -0.84294465466860014      -0.84293863452719608       -6.0201414040506052E-006 F
     orb,it,eci,eold,eci-eold=                    3                   31 -0.84294852218639271      -0.84294465466860014       -3.8675177925773241E-006 F
     orb,it,eci,eold,eci-eold=                    3                   32 -0.84295583869709323      -0.84294852218639271       -7.3165107005168650E-006 F
     orb,it,eci,eold,eci-eold=                    3                   33 -0.84295766453113141      -0.84295583869709323       -1.8258340381827054E-006 F
     orb,it,eci,eold,eci-eold=                    3                   34 -0.84295870072213064      -0.84295766453113141       -1.0361909992262497E-006 F
     orb,it,eci,eold,eci-eold=                    3                   35 -0.84296580224855855      -0.84295870072213064       -7.1015264279106205E-006 F
     orb,it,eci,eold,eci-eold=                    3                   36 -0.84297614405226329      -0.84296580224855855       -1.0341803704738695E-005 F
     orb,it,eci,eold,eci-eold=                    3                   37 -0.84297786367656369      -0.84297614405226329       -1.7196243004002909E-006 F
     orb,it,eci,eold,eci-eold=                    3                   38 -0.84297940310024555      -0.84297786367656369       -1.5394236818622176E-006 F
     orb,it,eci,eold,eci-eold=                    3                   39 -0.84298914245894196      -0.84297940310024555       -9.7393586964145129E-006 F
     orb,it,eci,eold,eci-eold=                    3                   40 -0.84299934454612147      -0.84298914245894196       -1.0202087179500552E-005 F
     orb,it,eci,eold,eci-eold=                    3                   41 -0.84300414745549546      -0.84299934454612147       -4.8029093739909712E-006 F
     orb,it,eci,eold,eci-eold=                    3                   42 -0.84301226854476541      -0.84300414745549546       -8.1210892699523640E-006 F
     orb,it,eci,eold,eci-eold=                    3                   43 -0.84301792424396504      -0.84301226854476541       -5.6556991996359329E-006 F
     orb,it,eci,eold,eci-eold=                    3                   44 -0.84302667438403112      -0.84301792424396504       -8.7501400660716655E-006 F
     orb,it,eci,eold,eci-eold=                    3                   45 -0.84303147867539285      -0.84302667438403112       -4.8042913617374339E-006 F
     orb,it,eci,eold,eci-eold=                    3                   46 -0.84303890806223336      -0.84303147867539285       -7.4293868405073127E-006 F
     orb,it,eci,eold,eci-eold=                    3                   47 -0.84303919042878972      -0.84303890806223336       -2.8236655635893726E-007 F
     orb,it,eci,eold,eci-eold=                    3                   48 -0.84303992159060570      -0.84303919042878972       -7.3116181598109620E-007 F
     orb,it,eci,eold,eci-eold=                    3                   49 -0.84304783444412357      -0.84303992159060570       -7.9128535178663029E-006 F
     orb,it,eci,eold,eci-eold=                    3                   50 -0.84306042392342018      -0.84304783444412357       -1.2589479296609696E-005 F
     orb,it,eci,eold,eci-eold=                    3                   51 -0.84306304923518882      -0.84306042392342018       -2.6253117686447780E-006 F
     orb,it,eci,eold,eci-eold=                    3                   52 -0.84306502515976267      -0.84306304923518882       -1.9759245738493192E-006 F
     orb,it,eci,eold,eci-eold=                    3                   53 -0.84307682274508011      -0.84306502515976267       -1.1797585317441239E-005 F
     orb,it,eci,eold,eci-eold=                    3                   54 -0.84308879715474550      -0.84307682274508011       -1.1974409665382879E-005 F
     orb,it,eci,eold,eci-eold=                    3                   55 -0.84309457656140419      -0.84308879715474550       -5.7794066586902559E-006 F
     orb,it,eci,eold,eci-eold=                    3                   56 -0.84310501312316344      -0.84309457656140419       -1.0436561759252783E-005 F
     orb,it,eci,eold,eci-eold=                    3                   57 -0.84311275682350684      -0.84310501312316344       -7.7437003433988849E-006 F
     orb,it,eci,eold,eci-eold=                    3                   58 -0.84312527384164537      -0.84311275682350684       -1.2517018138535896E-005 F
     orb,it,eci,eold,eci-eold=                    3                   59 -0.84313245844301687      -0.84312527384164537       -7.1846013715015644E-006 F
     orb,it,eci,eold,eci-eold=                    3                   60 -0.84314405601975650      -0.84313245844301687       -1.1597576739630355E-005 F
     orb,it,eci,eold,eci-eold=                    3                   61 -0.84314531293118378      -0.84314405601975650       -1.2569114272720228E-006 F
     orb,it,eci,eold,eci-eold=                    3                   62 -0.84314665439092207      -0.84314531293118378       -1.3414597382910287E-006 F
     orb,it,eci,eold,eci-eold=                    3                   63 -0.84315750273445700      -0.84314665439092207       -1.0848343534930471E-005 F
     orb,it,eci,eold,eci-eold=                    3                   64 -0.84316936015245014      -0.84315750273445700       -1.1857417993144104E-005 F
     orb,it,eci,eold,eci-eold=                    3                   65 -0.84317545125994542      -0.84316936015245014       -6.0911074952763045E-006 F
     orb,it,eci,eold,eci-eold=                    3                   66 -0.84318653960626611      -0.84317545125994542       -1.1088346320686782E-005 F
     orb,it,eci,eold,eci-eold=                    3                   67 -0.84318774149863507      -0.84318653960626611       -1.2018923689627314E-006 F
     orb,it,eci,eold,eci-eold=                    3                   68 -0.84318915559801610      -0.84318774149863507       -1.4140993810363156E-006 F
     orb,it,eci,eold,eci-eold=                    3                   69 -0.84319995374664503      -0.84318915559801610       -1.0798148628921034E-005 F
     orb,it,eci,eold,eci-eold=                    3                   70 -0.84321087634745195      -0.84319995374664503       -1.0922600806928529E-005 F
     orb,it,eci,eold,eci-eold=                    3                   71 -0.84321747932292834      -0.84321087634745195       -6.6029754763885506E-006 F
     orb,it,eci,eold,eci-eold=                    3                   72 -0.84323220683175149      -0.84321747932292834       -1.4727508823142443E-005 F
     orb,it,eci,eold,eci-eold=                    3                   73 -0.84323748107780783      -0.84323220683175149       -5.2742460563415250E-006 F
     orb,it,eci,eold,eci-eold=                    3                   74 -0.84324077939758335      -0.84323748107780783       -3.2983197755243054E-006 F
     orb,it,eci,eold,eci-eold=                    3                   75 -0.84325409146566166      -0.84324077939758335       -1.3312068078308315E-005 F
     orb,it,eci,eold,eci-eold=                    3                   76 -0.84326150398845423      -0.84325409146566166       -7.4125227925714299E-006 F
     orb,it,eci,eold,eci-eold=                    3                   77 -0.84326587987512225      -0.84326150398845423       -4.3758866680176922E-006 F
     orb,it,eci,eold,eci-eold=                    3                   78 -0.84328056704937171      -0.84326587987512225       -1.4687174249461421E-005 F
     orb,it,eci,eold,eci-eold=                    3                   79 -0.84328895389993175      -0.84328056704937171       -8.3868505600381837E-006 F
     orb,it,eci,eold,eci-eold=                    3                   80 -0.84329452139159999      -0.84328895389993175       -5.5674916682457720E-006 F
     orb,it,eci,eold,eci-eold=                    3                   81 -0.84331025424199590      -0.84329452139159999       -1.5732850395910880E-005 F
     orb,it,eci,eold,eci-eold=                    3                   82 -0.84331320756241257      -0.84331025424199590       -2.9533204166654059E-006 F
     orb,it,eci,eold,eci-eold=                    3                   83 -0.84331464392257727      -0.84331320756241257       -1.4363601646971702E-006 F
     orb,it,eci,eold,eci-eold=                    3                   84 -0.84332526661780172      -0.84331464392257727       -1.0622695224449252E-005 F
     orb,it,eci,eold,eci-eold=                    3                   85 -0.84333096867598434      -0.84332526661780172       -5.7020581826217054E-006 F
     orb,it,eci,eold,eci-eold=                    3                   86 -0.84333501305477210      -0.84333096867598434       -4.0443787877597615E-006 F
     orb,it,eci,eold,eci-eold=                    3                   87 -0.84334453517080454      -0.84333501305477210       -9.5221160324454601E-006 F
     orb,it,eci,eold,eci-eold=                    3                   88 -0.84334630254763709      -0.84334453517080454       -1.7673768325510153E-006 F
     orb,it,eci,eold,eci-eold=                    3                   89 -0.84334865637834078      -0.84334630254763709       -2.3538307036830020E-006 F
     orb,it,eci,eold,eci-eold=                    3                   90 -0.84335683088363811      -0.84334865637834078       -8.1745052973314358E-006 F
     orb,it,eci,eold,eci-eold=                    3                   91 -0.84335883287184177      -0.84335683088363811       -2.0019882036592662E-006 F
     orb,it,eci,eold,eci-eold=                    3                   92 -0.84336016772003464      -0.84335883287184177       -1.3348481928687761E-006 F
     orb,it,eci,eold,eci-eold=                    3                   93 -0.84336493451538752      -0.84336016772003464       -4.7667953528840457E-006 F
     orb,it,eci,eold,eci-eold=                    3                   94 -0.84336588157400127      -0.84336493451538752       -9.4705861375388167E-007 F
     orb,it,eci,eold,eci-eold=                    3                   95 -0.84336716270009493      -0.84336588157400127       -1.2811260936551605E-006 F
     orb,it,eci,eold,eci-eold=                    3                   96 -0.84337110123056935      -0.84336716270009493       -3.9385304744232741E-006 F
     orb,it,eci,eold,eci-eold=                    3                   97 -0.84337164430459888      -0.84337110123056935       -5.4307402952424866E-007 F
     orb,it,eci,eold,eci-eold=                    3                   98 -0.84337221530129747      -0.84337164430459888       -5.7099669859006497E-007 F
     orb,it,eci,eold,eci-eold=                    3                   99 -0.84337490222860578      -0.84337221530129747       -2.6869273083152123E-006 F
     orb,it,eci,eold,eci-eold=                    3                  100 -0.84337554022516437      -0.84337490222860578       -6.3799655858343129E-007 F
     orb,it,eci,eold,eci-eold=                    3                  101 -0.84337600107120925      -0.84337554022516437       -4.6084604488072500E-007 F
     orb,it,eci,eold,eci-eold=                    3                  102 -0.84337803577909887      -0.84337600107120925       -2.0347078896199022E-006 F
     orb,it,eci,eold,eci-eold=                    3                  103 -0.84337823134022538      -0.84337803577909887       -1.9556112651475388E-007 F
     orb,it,eci,eold,eci-eold=                    3                  104 -0.84337824062962485      -0.84337823134022538       -9.2893994718679096E-009 F
     orb,it,eci,eold,eci-eold=                    3                  105 -0.84337942230462271      -0.84337824062962485       -1.1816749978521557E-006 F
     orb,it,eci,eold,eci-eold=                    3                  106 -0.84337974870912102      -0.84337942230462271       -3.2640449831866647E-007 F
     orb,it,eci,eold,eci-eold=                    3                  107 -0.84337984171188163      -0.84337974870912102       -9.3002760603866363E-008 F
     orb,it,eci,eold,eci-eold=                    3                  108 -0.84338074141532648      -0.84337984171188163       -8.9970344485656994E-007 F
     orb,it,eci,eold,eci-eold=                    3                  109 -0.84338107268455809      -0.84338074141532648       -3.3126923160153865E-007 F
     orb,it,eci,eold,eci-eold=                    3                  110 -0.84338118379797966      -0.84338107268455809       -1.1111342157477111E-007 F
     orb,it,eci,eold,eci-eold=                    3                  111 -0.84338183421165802      -0.84338118379797966       -6.5041367836027320E-007 F
     orb,it,eci,eold,eci-eold=                    3                  112 -0.84338195217240230      -0.84338183421165802       -1.1796074428360726E-007 F
     orb,it,eci,eold,eci-eold=                    3                  113 -0.84338201241573796      -0.84338195217240230       -6.0243335653353824E-008 F
     orb,it,eci,eold,eci-eold=                    3                  114 -0.84338252063685559      -0.84338201241573796       -5.0822111763437761E-007 F
     orb,it,eci,eold,eci-eold=                    3                  115 -0.84338276114514321      -0.84338252063685559       -2.4050828761890131E-007 F
     orb,it,eci,eold,eci-eold=                    3                  116 -0.84338294585109175      -0.84338276114514321       -1.8470594853603473E-007 F
     orb,it,eci,eold,eci-eold=                    3                  117 -0.84338304189828106      -0.84338294585109175       -9.6047189312997716E-008 F
     orb,it,eci,eold,eci-eold=                    3                  118 -0.84338323015886030      -0.84338304189828106       -1.8826057923693185E-007 F
     orb,it,eci,eold,eci-eold=                    3                  119 -0.84338333619775407      -0.84338323015886030       -1.0603889377680531E-007 F
     orb,it,eci,eold,eci-eold=                    3                  120 -0.84338344583700064      -0.84338333619775407       -1.0963924657048096E-007 F
     orb,it,eci,eold,eci-eold=                    3                  121 -0.84338350303102694      -0.84338344583700064       -5.7194026292783917E-008 F
     orbital   3 current e=  0.605111E+00 error=0.144E+00 (eci= -0.843383503E+00 error=0.572E-07) iterations 121(   0 preconditioned, Ep,Sp= 20.0  200.0)
     orb,it,eci,eold,eci-eold=                    3                    1 -0.84338361997596645      -0.84338350303102694       -1.1694493950997753E-007 F
     orb,it,eci,eold,eci-eold=                    3                    2 -0.84338369000935609      -0.84338361997596645       -7.0033389643064936E-008 F
     orb,it,eci,eold,eci-eold=                    3                    3 -0.84338374606414757      -0.84338369000935609       -5.6054791475190768E-008 F
     orb,it,eci,eold,eci-eold=                    3                    4 -0.84338376659969827      -0.84338374606414757       -2.0535550704359196E-008 F
     orb,it,eci,eold,eci-eold=                    3                    5 -0.84338380202392149      -0.84338376659969827       -3.5424223221447448E-008 F
     orb,it,eci,eold,eci-eold=                    3                    6 -0.84338382185267990      -0.84338380202392149       -1.9828758412998582E-008 F
     orb,it,eci,eold,eci-eold=                    3                    7 -0.84338383156036800      -0.84338382185267990       -9.7076880978264057E-009 F
     orb,it,eci,eold,eci-eold=                    3                    8 -0.84338383679644346      -0.84338383156036800       -5.2360754621005867E-009 F
     orb,it,eci,eold,eci-eold=                    3                    9 -0.84338384749473128      -0.84338383679644346       -1.0698287811194973E-008 F
     orb,it,eci,eold,eci-eold=                    3                   10 -0.84338384792514054      -0.84338384749473128       -4.3040926378523636E-010 F
     orbital   3 current e=  0.604340E+00 error=0.771E-03 (eci= -0.843383848E+00 error=0.430E-09) iterations  10(   0 preconditioned, Ep,Sp= 20.0  200.0)
     orb,it,eci,eold,eci-eold=                    3                    1 -0.84338385656952342      -0.84338384792514054       -8.6443828761773034E-009 F
     orb,it,eci,eold,eci-eold=                    3                    2 -0.84338385656952342      -0.84338385656952342        0.0000000000000000      F
     orbital   3 current e=  0.604240E+00 error=0.994E-04 (eci= -0.843383857E+00 error=0.000E+00) iterations   2(   0 preconditioned, Ep,Sp= 20.0  200.0)
     orb,it,eci,eold,eci-eold=                    4                    1 -0.84267413375441169      -0.84221244219079394       -4.6169156361774988E-004 F
     orb,it,eci,eold,eci-eold=                    4                    2 -0.84271709523497740      -0.84267413375441169       -4.2961480565706367E-005 F
     orb,it,eci,eold,eci-eold=                    4                    3 -0.84281616023697647      -0.84271709523497740       -9.9065001999076863E-005 F
     orb,it,eci,eold,eci-eold=                    4                    4 -0.84283865563455129      -0.84281616023697647       -2.2495397574817666E-005 F
     orb,it,eci,eold,eci-eold=                    4                    5 -0.84284860188762967      -0.84283865563455129       -9.9462530783744896E-006 F
     orb,it,eci,eold,eci-eold=                    4                    6 -0.84289753012037716      -0.84284860188762967       -4.8928232747491585E-005 F
     orb,it,eci,eold,eci-eold=                    4                    7 -0.84292483391333817      -0.84289753012037716       -2.7303792961008710E-005 F
     orb,it,eci,eold,eci-eold=                    4                    8 -0.84297944701470340      -0.84292483391333817       -5.4613101365230676E-005 F
     orb,it,eci,eold,eci-eold=                    4                    9 -0.84300187944906568      -0.84297944701470340       -2.2432434362285036E-005 F
     orb,it,eci,eold,eci-eold=                    4                   10 -0.84301738013530803      -0.84300187944906568       -1.5500686242342354E-005 F
     orb,it,eci,eold,eci-eold=                    4                   11 -0.84304387420623961      -0.84301738013530803       -2.6494070931581959E-005 F
     orb,it,eci,eold,eci-eold=                    4                   12 -0.84306065389091867      -0.84304387420623961       -1.6779684679057993E-005 F
     orb,it,eci,eold,eci-eold=                    4                   13 -0.84307027553236180      -0.84306065389091867       -9.6216414431360420E-006 F
     orb,it,eci,eold,eci-eold=                    4                   14 -0.84309106827738389      -0.84307027553236180       -2.0792745022091275E-005 F
     orb,it,eci,eold,eci-eold=                    4                   15 -0.84311267299894932      -0.84309106827738389       -2.1604721565426921E-005 F
     orb,it,eci,eold,eci-eold=                    4                   16 -0.84312621212750882      -0.84311267299894932       -1.3539128559503233E-005 F
     orb,it,eci,eold,eci-eold=                    4                   17 -0.84315094560572978      -0.84312621212750882       -2.4733478220961835E-005 F
     orb,it,eci,eold,eci-eold=                    4                   18 -0.84316543789133036      -0.84315094560572978       -1.4492285600575805E-005 F
     orb,it,eci,eold,eci-eold=                    4                   19 -0.84317454175861528      -0.84316543789133036       -9.1038672849208524E-006 F
     orb,it,eci,eold,eci-eold=                    4                   20 -0.84317813210315029      -0.84317454175861528       -3.5903445350093932E-006 F
     orb,it,eci,eold,eci-eold=                    4                   21 -0.84318834412927390      -0.84317813210315029       -1.0212026123612716E-005 F
     orb,it,eci,eold,eci-eold=                    4                   22 -0.84319208509096910      -0.84318834412927390       -3.7409616951977753E-006 F
     orb,it,eci,eold,eci-eold=                    4                   23 -0.84319671139748276      -0.84319208509096910       -4.6263065136553649E-006 F
     orb,it,eci,eold,eci-eold=                    4                   24 -0.84320125264972545      -0.84319671139748276       -4.5412522426957480E-006 F
     orb,it,eci,eold,eci-eold=                    4                   25 -0.84320403865905236      -0.84320125264972545       -2.7860093269049813E-006 F
     orb,it,eci,eold,eci-eold=                    4                   26 -0.84321037439942748      -0.84320403865905236       -6.3357403751185259E-006 F
     orb,it,eci,eold,eci-eold=                    4                   27 -0.84321134992504976      -0.84321037439942748       -9.7552562228209183E-007 F
     orb,it,eci,eold,eci-eold=                    4                   28 -0.84321238941574506      -0.84321134992504976       -1.0394906952981842E-006 F
     orb,it,eci,eold,eci-eold=                    4                   29 -0.84321565039784008      -0.84321238941574506       -3.2609820950213475E-006 F
     orb,it,eci,eold,eci-eold=                    4                   30 -0.84321585802682864      -0.84321565039784008       -2.0762898855775092E-007 F
     orb,it,eci,eold,eci-eold=                    4                   31 -0.84321675577317945      -0.84321585802682864       -8.9774635081418808E-007 F
     orb,it,eci,eold,eci-eold=                    4                   32 -0.84321993554666430      -0.84321675577317945       -3.1797734848515447E-006 F
     orb,it,eci,eold,eci-eold=                    4                   33 -0.84322163314132581      -0.84321993554666430       -1.6975946615094273E-006 F
     orb,it,eci,eold,eci-eold=                    4                   34 -0.84322318407076891      -0.84322163314132581       -1.5509294430948728E-006 F
     orb,it,eci,eold,eci-eold=                    4                   35 -0.84322404345165825      -0.84322318407076891       -8.5938088933978918E-007 F
     orb,it,eci,eold,eci-eold=                    4                   36 -0.84322500050062532      -0.84322404345165825       -9.5704896707626830E-007 F
     orb,it,eci,eold,eci-eold=                    4                   37 -0.84322553661753463      -0.84322500050062532       -5.3611690931099076E-007 F
     orb,it,eci,eold,eci-eold=                    4                   38 -0.84322645713838829      -0.84322553661753463       -9.2052085365335046E-007 F
     orb,it,eci,eold,eci-eold=                    4                   39 -0.84322695320062435      -0.84322645713838829       -4.9606223606613042E-007 F
     orb,it,eci,eold,eci-eold=                    4                   40 -0.84322739265453928      -0.84322695320062435       -4.3945391492439256E-007 F
     orb,it,eci,eold,eci-eold=                    4                   41 -0.84322760726992552      -0.84322739265453928       -2.1461538624034660E-007 F
     orb,it,eci,eold,eci-eold=                    4                   42 -0.84322812591201879      -0.84322760726992552       -5.1864209327234789E-007 F
     orb,it,eci,eold,eci-eold=                    4                   43 -0.84322813649381989      -0.84322812591201879       -1.0581801102027555E-008 F
     orb,it,eci,eold,eci-eold=                    4                   44 -0.84322817216569990      -0.84322813649381989       -3.5671880005416767E-008 F
     orb,it,eci,eold,eci-eold=                    4                   45 -0.84322850110776126      -0.84322817216569990       -3.2894206136724335E-007 F
     orb,it,eci,eold,eci-eold=                    4                   46 -0.84322866287688159      -0.84322850110776126       -1.6176912032150881E-007 F
     orb,it,eci,eold,eci-eold=                    4                   47 -0.84322884404490495      -0.84322866287688159       -1.8116802336098914E-007 F
     orb,it,eci,eold,eci-eold=                    4                   48 -0.84322894484343347      -0.84322884404490495       -1.0079852852395987E-007 F
     orb,it,eci,eold,eci-eold=                    4                   49 -0.84322905737352527      -0.84322894484343347       -1.1253009180034468E-007 F
     orb,it,eci,eold,eci-eold=                    4                   50 -0.84322911172553916      -0.84322905737352527       -5.4352013889591433E-008 F
     orb,it,eci,eold,eci-eold=                    4                   51 -0.84322920121888334      -0.84322911172553916       -8.9493344179736312E-008 F
     orb,it,eci,eold,eci-eold=                    4                   52 -0.84322925578522057      -0.84322920121888334       -5.4566337226447104E-008 F
     orb,it,eci,eold,eci-eold=                    4                   53 -0.84322930771617155      -0.84322925578522057       -5.1930950983880564E-008 F
     orb,it,eci,eold,eci-eold=                    4                   54 -0.84322933421280022      -0.84322930771617155       -2.6496628668937205E-008 F
     orb,it,eci,eold,eci-eold=                    4                   55 -0.84322939164512667      -0.84322933421280022       -5.7432326450168603E-008 F
     orb,it,eci,eold,eci-eold=                    4                   56 -0.84322942248633859      -0.84322939164512667       -3.0841211917653766E-008 F
     orb,it,eci,eold,eci-eold=                    4                   57 -0.84322944269232969      -0.84322942248633859       -2.0205991102528742E-008 F
     orb,it,eci,eold,eci-eold=                    4                   58 -0.84322945220393408      -0.84322944269232969       -9.5116043929976968E-009 F
     orb,it,eci,eold,eci-eold=                    4                   59 -0.84322947829364514      -0.84322945220393408       -2.6089711058219223E-008 F
     orb,it,eci,eold,eci-eold=                    4                   60 -0.84322949330036123      -0.84322947829364514       -1.5006716092003103E-008 F
     orb,it,eci,eold,eci-eold=                    4                   61 -0.84322950277376918      -0.84322949330036123       -9.4734079469915855E-009 F
     orb,it,eci,eold,eci-eold=                    4                   62 -0.84322950699103449      -0.84322950277376918       -4.2172653147432015E-009 F
     orb,it,eci,eold,eci-eold=                    4                   63 -0.84322951899459941      -0.84322950699103449       -1.2003564919815801E-008 F
     orb,it,eci,eold,eci-eold=                    4                   64 -0.84322951899459941      -0.84322951899459941        0.0000000000000000      F
     orbital   4 current e=  0.490334E+00 error=0.463E-01 (eci= -0.843229519E+00 error=0.000E+00) iterations  64(   0 preconditioned, Ep,Sp= 20.0  200.0)
     orb,it,eci,eold,eci-eold=                    4                    1 -0.84322953810366996      -0.84322951881718411       -1.9286485852809676E-008 F
     orb,it,eci,eold,eci-eold=                    4                    2 -0.84322954259981120      -0.84322953810366996       -4.4961412370980725E-009 F
     orb,it,eci,eold,eci-eold=                    4                    3 -0.84322955099085339      -0.84322954259981120       -8.3910421944111135E-009 F
     orb,it,eci,eold,eci-eold=                    4                    4 -0.84322955270832856      -0.84322955099085339       -1.7174751620885331E-009 F
     orb,it,eci,eold,eci-eold=                    4                    5 -0.84322955270832856      -0.84322955270832856        0.0000000000000000      F
     orbital   4 current e=  0.490226E+00 error=0.108E-03 (eci= -0.843229553E+00 error=0.000E+00) iterations   5(   0 preconditioned, Ep,Sp= 20.0  200.0)
     orb,it,eci,eold,eci-eold=                    4                    1 -0.84322955900123775      -0.84322955256483523       -6.4364025220697840E-009 F
     orb,it,eci,eold,eci-eold=                    4                    2 -0.84322956087836032      -0.84322955900123775       -1.8771225684943715E-009 F
     orb,it,eci,eold,eci-eold=                    4                    3 -0.84322956087836032      -0.84322956087836032        0.0000000000000000      F
     orbital   4 current e=  0.490186E+00 error=0.403E-04 (eci= -0.843229561E+00 error=0.000E+00) iterations   3(   0 preconditioned, Ep,Sp= 20.0  200.0)
     orb,it,eci,eold,eci-eold=                    5                    1 -0.84267093399278259      -0.84221212126907985       -4.5881272370273951E-004 F
     orb,it,eci,eold,eci-eold=                    5                    2 -0.84269400653712434      -0.84267093399278259       -2.3072544341751211E-005 F
     orb,it,eci,eold,eci-eold=                    5                    3 -0.84279118973174449      -0.84269400653712434       -9.7183194620154012E-005 F
     orb,it,eci,eold,eci-eold=                    5                    4 -0.84286944832947430      -0.84279118973174449       -7.8258597729807811E-005 F
     orb,it,eci,eold,eci-eold=                    5                    5 -0.84295854733664610      -0.84286944832947430       -8.9099007171800082E-005 F
     orb,it,eci,eold,eci-eold=                    5                    6 -0.84300220440482931      -0.84295854733664610       -4.3657068183211578E-005 F
     orb,it,eci,eold,eci-eold=                    5                    7 -0.84300515597460524      -0.84300220440482931       -2.9515697759219250E-006 F
     orb,it,eci,eold,eci-eold=                    5                    8 -0.84300724603308386      -0.84300515597460524       -2.0900584786209819E-006 F
     orb,it,eci,eold,eci-eold=                    5                    9 -0.84303881899536348      -0.84300724603308386       -3.1572962279624583E-005 F
     orb,it,eci,eold,eci-eold=                    5                   10 -0.84305937804120834      -0.84303881899536348       -2.0559045844859014E-005 F
     orb,it,eci,eold,eci-eold=                    5                   11 -0.84307918756844391      -0.84305937804120834       -1.9809527235570279E-005 F
     orb,it,eci,eold,eci-eold=                    5                   12 -0.84308650530496398      -0.84307918756844391       -7.3177365200738365E-006 F
     orb,it,eci,eold,eci-eold=                    5                   13 -0.84309092664679941      -0.84308650530496398       -4.4213418354255296E-006 F
     orb,it,eci,eold,eci-eold=                    5                   14 -0.84310127558129033      -0.84309092664679941       -1.0348934490922446E-005 F
     orb,it,eci,eold,eci-eold=                    5                   15 -0.84311680200222860      -0.84310127558129033       -1.5526420938272167E-005 F
     orb,it,eci,eold,eci-eold=                    5                   16 -0.84312700847439748      -0.84311680200222860       -1.0206472168872160E-005 F
     orb,it,eci,eold,eci-eold=                    5                   17 -0.84314402881151707      -0.84312700847439748       -1.7020337119588724E-005 F
     orb,it,eci,eold,eci-eold=                    5                   18 -0.84314872725351730      -0.84314402881151707       -4.6984420002393890E-006 F
     orb,it,eci,eold,eci-eold=                    5                   19 -0.84315525119729040      -0.84314872725351730       -6.5239437730957306E-006 F
     orb,it,eci,eold,eci-eold=                    5                   20 -0.84316529771312687      -0.84315525119729040       -1.0046515836470427E-005 F
     orb,it,eci,eold,eci-eold=                    5                   21 -0.84317012344314046      -0.84316529771312687       -4.8257300135912118E-006 F
     orb,it,eci,eold,eci-eold=                    5                   22 -0.84317730859220641      -0.84317012344314046       -7.1851490659469164E-006 F
     orb,it,eci,eold,eci-eold=                    5                   23 -0.84317937988444036      -0.84317730859220641       -2.0712922339516382E-006 F
     orb,it,eci,eold,eci-eold=                    5                   24 -0.84317982341428466      -0.84317937988444036       -4.4352984429618658E-007 F
     orb,it,eci,eold,eci-eold=                    5                   25 -0.84318363572489430      -0.84317982341428466       -3.8123106096410453E-006 F
     orb,it,eci,eold,eci-eold=                    5                   26 -0.84318904673873796      -0.84318363572489430       -5.4110138436591626E-006 F
     orb,it,eci,eold,eci-eold=                    5                   27 -0.84318927420629153      -0.84318904673873796       -2.2746755357072601E-007 F
     orb,it,eci,eold,eci-eold=                    5                   28 -0.84319151745345244      -0.84318927420629153       -2.2432471609157290E-006 F
     orb,it,eci,eold,eci-eold=                    5                   29 -0.84319752750384247      -0.84319151745345244       -6.0100503900262225E-006 F
     orb,it,eci,eold,eci-eold=                    5                   30 -0.84319933065852382      -0.84319752750384247       -1.8031546813457311E-006 F
     orb,it,eci,eold,eci-eold=                    5                   31 -0.84320072726805528      -0.84319933065852382       -1.3966095314676963E-006 F
     orb,it,eci,eold,eci-eold=                    5                   32 -0.84320490686752803      -0.84320072726805528       -4.1795994727422681E-006 F
     orb,it,eci,eold,eci-eold=                    5                   33 -0.84320645080081258      -0.84320490686752803       -1.5439332845534892E-006 F
     orb,it,eci,eold,eci-eold=                    5                   34 -0.84320778792809969      -0.84320645080081258       -1.3371272871154360E-006 F
     orb,it,eci,eold,eci-eold=                    5                   35 -0.84321093923686596      -0.84320778792809969       -3.1513087662693451E-006 F
     orb,it,eci,eold,eci-eold=                    5                   36 -0.84321100500632062      -0.84321093923686596       -6.5769454660191684E-008 F
     orb,it,eci,eold,eci-eold=                    5                   37 -0.84321148385592171      -0.84321100500632062       -4.7884960108213193E-007 F
     orb,it,eci,eold,eci-eold=                    5                   38 -0.84321431285510329      -0.84321148385592171       -2.8289991815810822E-006 F
     orb,it,eci,eold,eci-eold=                    5                   39 -0.84321521929037657      -0.84321431285510329       -9.0643527328460038E-007 F
     orb,it,eci,eold,eci-eold=                    5                   40 -0.84321562005786177      -0.84321521929037657       -4.0076748519801697E-007 F
     orb,it,eci,eold,eci-eold=                    5                   41 -0.84321794691925100      -0.84321562005786177       -2.3268613892346579E-006 F
     orb,it,eci,eold,eci-eold=                    5                   42 -0.84321798389287583      -0.84321794691925100       -3.6973624828462448E-008 F
     orb,it,eci,eold,eci-eold=                    5                   43 -0.84321802210293306      -0.84321798389287583       -3.8210057229370875E-008 F
     orb,it,eci,eold,eci-eold=                    5                   44 -0.84322013865533452      -0.84321802210293306       -2.1165524014543635E-006 F
     orb,it,eci,eold,eci-eold=                    5                   45 -0.84322069140434386      -0.84322013865533452       -5.5274900934154658E-007 F
     orb,it,eci,eold,eci-eold=                    5                   46 -0.84322081989332831      -0.84322069140434386       -1.2848898445216861E-007 F
[...]
    8    5    8    8       -0.0024362469
    8    5    9    8        0.0001158082
    8    5   10    8       -0.0000004205
    8    5   11    8       -0.0000256095
    8    5    9    9       -0.0020222211
    8    5   10    9       -0.0000009026
    8    5   11    9       -0.0000580545
    8    5   10   10       -0.0091725032
    8    5   11   10       -0.0359024076
    8    5   11   11        0.0077437000
    9    5    9    5        0.0529175467
    9    5   10    5       -0.0000003849
    9    5   11    5        0.0000001897
    9    5    6    6       -0.0003010234
    9    5    7    6        0.0000087323
    9    5    8    6        0.0252818346
    9    5    9    6        0.0755963272
    9    5   10    6       -0.0000047960
    9    5   11    6        0.0000000571
    9    5    7    7        0.0076939025
    9    5    8    7       -0.0000005657
    9    5    9    7       -0.0000021519
    9    5   10    7        0.0093986683
    9    5   11    7       -0.0364743702
    9    5    8    8        0.0010507060
    9    5    9    8       -0.0002153539
    9    5   10    8        0.0000001184
    9    5   11    8        0.0000089570
    9    5    9    9        0.0012552311
    9    5   10    9        0.0000005170
    9    5   11    9        0.0000326223
    9    5   10   10        0.0047440792
    9    5   11   10        0.0185692197
    9    5   11   11       -0.0040049650
   10    5   10    5        0.0226367503
   10    5   11    5        0.0007913157
   10    5    6    6        0.0000000106
   10    5    7    6       -0.0000000003
   10    5    8    6        0.0000004327
   10    5    9    6       -0.0000012274
   10    5   10    6       -0.0000000001
   10    5   11    6       -0.0000000000
   10    5    7    7       -0.0000000561
   10    5    8    7       -0.0013409151
   10    5    9    7        0.0006937901
   10    5   10    7       -0.0000001324
   10    5   11    7        0.0000010632
   10    5    8    8       -0.0000000626
   10    5    9    8       -0.0000000539
   10    5   10    8       -0.0009384992
   10    5   11    8       -0.0034746753
   10    5    9    9        0.0000000632
   10    5   10    9        0.0004855527
   10    5   11    9        0.0017965330
   10    5   10   10       -0.0000000605
   10    5   11   10       -0.0000004219
   10    5   11   11        0.0000000843
   11    5   11    5        0.0072787542
   11    5    6    6        0.0000029863
   11    5    7    6        0.0000000003
   11    5    8    6       -0.0000000083
   11    5    9    6        0.0000000532
   11    5   10    6        0.0000000000
   11    5   11    6        0.0000000019
   11    5    7    7        0.0000038356
   11    5    8    7        0.0027012914
   11    5    9    7       -0.0013966130
   11    5   10    7        0.0000001865
   11    5   11    7        0.0000001512
   11    5    8    8        0.0000012120
   11    5    9    8       -0.0000023453
   11    5   10    8       -0.0036601439
   11    5   11    8       -0.0002824527
   11    5    9    9        0.0000067192
   11    5   10    9        0.0018935060
   11    5   11    9        0.0001460600
   11    5   10   10        0.0000043251
   11    5   11   10        0.0000000425
   11    5   11   11        0.0000046094
    6    6    6    6        0.2828447809
    6    6    7    6       -0.0000002523
    6    6    8    6       -0.0002460602
    6    6    9    6       -0.0004776746
    6    6   10    6        0.0000003095
    6    6   11    6        0.0000386155
    6    6    7    7        0.2682997234
    6    6    8    7        0.0000016056
    6    6    9    7        0.0000032665
    6    6   10    7        0.0108630584
    6    6   11    7        0.0004217396
    6    6    8    8        0.2748208613
    6    6    9    8        0.0114835568
    6    6   10    8       -0.0000012200
    6    6   11    8        0.0000003449
    6    6    9    9        0.2907166136
    6    6   10    9       -0.0000025032
    6    6   11    9        0.0000008508
    6    6   10   10        0.2837479928
    6    6   11   10        0.0003483388
    6    6   11   11        0.2661297988
    7    6    7    6        0.0131648202
    7    6    8    6        0.0000092680
    7    6    9    6        0.0000179379
    7    6   10    6        0.0027699661
    7    6   11    6        0.0000619893
    7    6    7    7        0.0000022417
    7    6    8    7        0.0007259382
    7    6    9    7        0.0014032730
    7    6   10    7        0.0000023052
    7    6   11    7       -0.0000054683
    7    6    8    8        0.0000001423
    7    6    9    8       -0.0000003046
    7    6   10    8        0.0008353297
    7    6   11    8       -0.0018829130
    7    6    9    9       -0.0000003445
    7    6   10    9        0.0016151528
    7    6   11    9       -0.0036382449
    7    6   10   10        0.0000008745
    7    6   11   10        0.0000071390
    7    6   11   11        0.0000004086
    8    6    8    6        0.0529051953
    8    6    9    6        0.0755759900
    8    6   10    6       -0.0000051509
    8    6   11    6        0.0000001318
    8    6    7    7        0.0076931631
    8    6    8    7       -0.0000008978
    8    6    9    7       -0.0000021381
    8    6   10    7        0.0093974584
    8    6   11    7       -0.0364715496
    8    6    8    8        0.0012611646
    8    6    9    8        0.0002085994
    8    6   10    8        0.0000002303
    8    6   11    8        0.0000172646
    8    6    9    9        0.0010430170
    8    6   10    9        0.0000005106
    8    6   11    9        0.0000320723
    8    6   10   10        0.0047434075
    8    6   11   10        0.0185643937
    8    6   11   11       -0.0040048189
    9    6    9    6        0.1595965785
    9    6   10    6       -0.0000099859
    9    6   11    6        0.0000002885
    9    6    7    7        0.0148741402
    9    6    8    7       -0.0000018437
    9    6    9    7       -0.0000041308
    9    6   10    7        0.0181692413
    9    6   11    7       -0.0705112110
    9    6    8    8        0.0020310046
    9    6    9    8        0.0001007914
    9    6   10    8        0.0000004303
    9    6   11    8        0.0000264594
    9    6    9    9        0.0024240239
    9    6   10    9        0.0000010113
    9    6   11    9        0.0000664586
    9    6   10   10        0.0091711619
    9    6   11   10        0.0358933617
    9    6   11   11       -0.0077429235
   10    6   10    6        0.0226307510
   10    6   11    6        0.0007912808
   10    6    7    7       -0.0000006369
   10    6    8    7        0.0006932567
   10    6    9    7        0.0013407616
   10    6   10    7       -0.0000015909
   10    6   11    7        0.0000125654
   10    6    8    8        0.0000000058
   10    6    9    8        0.0000000637
   10    6   10    8        0.0004852767
   10    6   11    8        0.0017967707
   10    6    9    9        0.0000001087
   10    6   10    9        0.0009384988
   10    6   11    9        0.0034724718
   10    6   10   10       -0.0000006707
   10    6   11   10       -0.0000049784
   10    6   11   11        0.0000010134
   11    6   11    6        0.0072767464
   11    6    7    7        0.0000457118
   11    6    8    7       -0.0013962229
   11    6    9    7       -0.0026981724
   11    6   10    7        0.0000021520
   11    6   11    7        0.0000021457
   11    6    8    8        0.0000448305
   11    6    9    8        0.0000029549
   11    6   10    8        0.0018911429
   11    6   11    8        0.0001459327
   11    6    9    9        0.0000497375
   11    6   10    9        0.0036569341
   11    6   11    9        0.0002820900
   11    6   10   10        0.0000515576
   11    6   11   10        0.0000003717
   11    6   11   11        0.0000549872
    7    7    7    7        0.3191502614
    7    7    8    7        0.0000001603
    7    7    9    7        0.0000004168
    7    7   10    7        0.0126928291
    7    7   11    7       -0.0072012146
    7    7    8    8        0.2878990176
    7    7    9    8       -0.0000007427
    7    7   10    8       -0.0000002232
    7    7   11    8        0.0000029364
    7    7    9    9        0.2878752655
    7    7   10    9       -0.0000005438
    7    7   11    9        0.0000070583
    7    7   10   10        0.3054406388
    7    7   11   10        0.0012902996
    7    7   11   11        0.3087713151
    8    7    8    7        0.0155411609
    8    7    9    7       -0.0000000698
    8    7   10    7       -0.0000002315
    8    7   11    7        0.0000011320
    8    7    8    8        0.0000003397
    8    7    9    8        0.0000000433
    8    7   10    8        0.0012739277
    8    7   11    8       -0.0001753931
    8    7    9    9        0.0000003273
    8    7   10    9       -0.0000000745
    8    7   11    9        0.0000001703
    8    7   10   10        0.0000002240
    8    7   11   10        0.0000000309
    8    7   11   11       -0.0000064959
    9    7    9    7        0.0155396894
    9    7   10    7       -0.0000005321
    9    7   11    7        0.0000026275
    9    7    8    8        0.0000007601
    9    7    9    8        0.0000000331
    9    7   10    8       -0.0000000764
    9    7   11    8        0.0000001706
    9    7    9    9        0.0000008646
    9    7   10    9        0.0012732188
    9    7   11    9       -0.0001747987
    9    7   10   10        0.0000005578
    9    7   11   10        0.0000001236
    9    7   11   11       -0.0000156560
   10    7   10    7        0.0188525633
   10    7   11    7       -0.0124114114
   10    7    8    8        0.0086498656
   10    7    9    8       -0.0000009133
   10    7   10    8       -0.0000000249
   10    7   11    8        0.0000039523
   10    7    9    9        0.0086488632
   10    7   10    9       -0.0000000603
   10    7   11    9        0.0000095200
   10    7   10   10        0.0075677834
   10    7   11   10        0.0042808245
   10    7   11   11        0.0023131005
   11    7   11    7        0.0742331176
   11    7    8    8       -0.0005519175
   11    7    9    8        0.0000035838
   11    7   10    8        0.0000000594
   11    7   11    8       -0.0000204896
   11    7    9    9       -0.0005464332
   11    7   10    9        0.0000001561
   11    7   11    9       -0.0000493380
   11    7   10   10       -0.0042124433
   11    7   11   10       -0.0265959181
   11    7   11   11        0.0047054172
    8    8    8    8        0.3185472484
    8    8    9    8        0.0000005977
    8    8   10    8       -0.0000002923
    8    8   11    8        0.0000007730
    8    8    9    9        0.2873207541
    8    8   10    9       -0.0000006253
    8    8   11    9        0.0000016388
    8    8   10   10        0.3042334781
    8    8   11   10        0.0014988650
    8    8   11   11        0.2852095759
    9    8    9    8        0.0162775340
    9    8   10    8       -0.0000000628
    9    8   11    8        0.0000001057
    9    8    9    9       -0.0000008475
    9    8   10    9       -0.0000000503
    9    8   11    9        0.0000000400
    9    8   10   10       -0.0000004603
    9    8   11   10       -0.0000018547
    9    8   11   11        0.0000003881
   10    8   10    8        0.0199914520
   10    8   11    8        0.0009563187
   10    8    9    9       -0.0000002804
   10    8   10    9       -0.0000000445
   10    8   11    9       -0.0000001923
   10    8   10   10       -0.0000003310
   10    8   11   10        0.0000002210
   10    8   11   11        0.0000029533
   11    8   11    8        0.0076847696
   11    8    9    9        0.0000006777
   11    8   10    9       -0.0000001910
   11    8   11    9        0.0000000026
   11    8   10   10        0.0000021449
   11    8   11   10        0.0000096073
   11    8   11   11       -0.0000007065
    9    9    9    9        0.3184963758
    9    9   10    9       -0.0000007730
    9    9   11    9        0.0000018526
    9    9   10   10        0.3042080767
    9    9   11   10        0.0014963313
    9    9   11   11        0.2851871854
   10    9   10    9        0.0199950359
   10    9   11    9        0.0009564747
   10    9   10   10       -0.0000008087
   10    9   11   10        0.0000005271
   10    9   11   11        0.0000071085
   11    9   11    9        0.0076827813
   11    9   10   10        0.0000051620
   11    9   11   10        0.0000231325
   11    9   11   11       -0.0000017002
   10   10   10   10        0.3511454084
   10   10   11   10        0.0029364105
   10   10   11   11        0.3186919108
   11   10   11   10        0.0369952286
   11   10   11   11       -0.0008831615
   11   11   11   11        0.3269979895
 end_two_electron_integrals


 output epsi filename:./pspw_hf_H2.emovecs

 Total PSPW energy     :  -0.8412106179E+00


=== Spin Contamination ===

 <Sexact^2> =    0.0000000000000000     
 <S^2>      =    0.0000000000000000     



== Center of Charge ==

spin up     (    0.0000,    0.0000,    0.0647 )
spin down   (    0.0000,    0.0000,    0.0647 )
     total  (    0.0000,    0.0000,    0.0647 )
ionic       (    0.0000,    0.0000,    0.0000 )


== Molecular Dipole wrt Center of Mass ==

mu   =  (   -0.0000,   -0.0000,   -0.1294 ) au
|mu| =     0.1294 au,       0.3289 Debye

 output psi filename:./pspw_hf_H2.movecs

 Writing Crystallographic Information File:./H2.cif
   - cell not shifted (nwpw:cif_shift_cell .false.)


== Timing ==

cputime in seconds
  prologue    :   0.592696E+01
  main loop   :   0.278600E+03
  epilogue    :   0.167210E-01
  total       :   0.284543E+03
  cputime/step:   0.169878E+01       (     164 evalulations,      69 linesearches)


Time spent doing                        total          step       percent
  total time                 :   0.284554E+03  0.173509E+01       100.0 %
  i/o time                   :   0.260577E+00  0.158888E-02         0.1 %
  FFTs                       :   0.199500E+03  0.121646E+01        70.1 %
  dot products               :   0.665220E+01  0.405622E-01         2.3 %
  geodesic                   :   0.629594E-01  0.383899E-03         0.0 %
  ffm_dgemm                  :   0.805733E-02  0.491300E-04         0.0 %
  fmf_dgemm                  :   0.777021E-02  0.473794E-04         0.0 %
  mmm_dgemm                  :   0.281448E-02  0.171615E-04         0.0 %
  m_diagonalize              :   0.142714E-02  0.870205E-05         0.0 %
  local pseudopotentials     :   0.439487E+01  0.267980E-01         1.5 %
  non-local pseudopotentials :   0.608236E+01  0.370876E-01         2.1 %
  structure factors          :   0.450308E+00  0.274578E-02         0.2 %
  phase factors              :   0.628600E-05  0.383293E-07         0.0 %
  masking and packing        :   0.486407E+01  0.296590E-01         1.7 %
  queue fft                  :   0.610315E+01  0.372144E-01         2.1 %
  queue fft (serial)         :   0.225169E+01  0.137298E-01         0.8 %
  queue fft (message passing):   0.382115E+01  0.232997E-01         1.3 %
  HFX potential              :   0.365195E+01  0.222680E-01         1.3 %
  non-local psp FFM          :   0.573125E+01  0.349466E-01         2.0 %
  non-local psp FMF          :   0.760367E-01  0.463639E-03         0.0 %
  non-local psp FFM A        :   0.304845E-01  0.185881E-03         0.0 %
  non-local psp FFM B        :   0.101296E+00  0.617657E-03         0.0 %

== HFX Counters ==
  HFX Evalulations         =   164
  Lin ACE HFX Evalulations =     0


     >>>  JOB COMPLETED     AT Tue Apr 15 09:43:50 2025  <<<

 Task  times  cpu:      264.6s     wall:      284.6s


                                NWChem Input Module
                                -------------------


 Summary of allocated global arrays
-----------------------------------
  No active global arrays


MA_summarize_allocated_blocks: starting scan ...
MA_summarize_allocated_blocks: scan completed: 0 heap blocks, 0 stack blocks
MA usage statistics:

	allocation statistics:
					      heap	     stack
					      ----	     -----
	current number of blocks	         0	         0
	maximum number of blocks	       313	        36
	current total bytes		         0	         0
	maximum total bytes		  16366072	   5334728
	maximum total K-bytes		     16367	      5335
	maximum total M-bytes		        17	         6


                                     CITATION
                                     --------
                Please cite the following reference when publishing
                           results obtained with NWChem:

          E. Apra, E. J. Bylaska, W. A. de Jong, N. Govind, K. Kowalski,
       T. P. Straatsma, M. Valiev, H. J. J. van Dam, Y. Alexeev, J. Anchell,
       V. Anisimov, F. W. Aquino, R. Atta-Fynn, J. Autschbach, N. P. Bauman,
     J. C. Becca, D. E. Bernholdt, K. Bhaskaran-Nair, S. Bogatko, P. Borowski,
         J. Boschen, J. Brabec, A. Bruner, E. Cauet, Y. Chen, G. N. Chuev,
      C. J. Cramer, J. Daily, M. J. O. Deegan, T. H. Dunning Jr., M. Dupuis,
   K. G. Dyall, G. I. Fann, S. A. Fischer, A. Fonari, H. Fruchtl, L. Gagliardi,
      J. Garza, N. Gawande, S. Ghosh, K. Glaesemann, A. W. Gotz, J. Hammond,
       V. Helms, E. D. Hermes, K. Hirao, S. Hirata, M. Jacquelin, L. Jensen,
   B. G. Johnson, H. Jonsson, R. A. Kendall, M. Klemm, R. Kobayashi, V. Konkov,
      S. Krishnamoorthy, M. Krishnan, Z. Lin, R. D. Lins, R. J. Littlefield,
      A. J. Logsdail, K. Lopata, W. Ma, A. V. Marenich, J. Martin del Campo,
   D. Mejia-Rodriguez, J. E. Moore, J. M. Mullin, T. Nakajima, D. R. Nascimento,
    J. A. Nichols, P. J. Nichols, J. Nieplocha, A. Otero-de-la-Roza, B. Palmer,
    A. Panyala, T. Pirojsirikul, B. Peng, R. Peverati, J. Pittner, L. Pollack,
   R. M. Richard, P. Sadayappan, G. C. Schatz, W. A. Shelton, D. W. Silverstein,
   D. M. A. Smith, T. A. Soares, D. Song, M. Swart, H. L. Taylor, G. S. Thomas,
            V. Tipparaju, D. G. Truhlar, K. Tsemekhman, T. Van Voorhis,
      A. Vazquez-Mayagoitia, P. Verma, O. Villa, A. Vishnu, K. D. Vogiatzis,
        D. Wang, J. H. Weare, M. J. Williamson, T. L. Windus, K. Wolinski,
        A. T. Wong, Q. Wu, C. Yang, Q. Yu, M. Zacharias, Z. Zhang, Y. Zhao,
                                and R. J. Harrison
                        "NWChem: Past, present, and future
                         J. Chem. Phys. 152, 184102 (2020)
                               doi:10.1063/5.0004997

                                      AUTHORS
                                      -------
  E. Apra, E. J. Bylaska, N. Govind, K. Kowalski, M. Valiev, D. Mejia-Rodriguez,
       A. Kunitsa, N. P. Bauman, A. Panyala, W. A. de Jong, T. P. Straatsma,
   H. J. J. van Dam, D. Wang, T. L. Windus, J. Hammond, J. Autschbach, A. Woods,
    K. Bhaskaran-Nair, J. Brabec, K. Lopata, S. A. Fischer, S. Krishnamoorthy,
     M. Jacquelin, W. Ma, M. Klemm, O. Villa, Y. Chen, V. Anisimov, F. Aquino,
     S. Hirata, M. T. Hackler, E. Hermes, L. Jensen, J. E. Moore, J. C. Becca,
      V. Konjkov, T. Risthaus, M. Malagoli, A. Marenich, A. Otero-de-la-Roza,
        J. Mullin, P. Nichols, R. Peverati, J. Pittner, Y. Zhao, P.-D. Fan,
        A. Fonari, M. J. Williamson, R. J. Harrison, J. R. Rehr, M. Dupuis,
     D. Silverstein, D. M. A. Smith, J. Nieplocha, V. Tipparaju, M. Krishnan,
     B. E. Van Kuiken, A. Vazquez-Mayagoitia, M. Swart, Q. Wu, T. Van Voorhis,
     A. A. Auer, M. Nooijen, L. D. Crosby, E. Brown, G. Cisneros, G. I. Fann,
   H. Fruchtl, J. Garza, K. Hirao, R. A. Kendall, J. A. Nichols, K. Tsemekhman,
    K. Wolinski, J. Anchell, D. E. Bernholdt, P. Borowski, T. Clark, D. Clerc,
   H. Dachsel, M. J. O. Deegan, K. Dyall, D. Elwood, E. Glendening, M. Gutowski,
   A. C. Hess, J. Jaffe, B. G. Johnson, J. Ju, R. Kobayashi, R. Kutteh, Z. Lin,
   R. Littlefield, X. Long, B. Meng, T. Nakajima, S. Niu, L. Pollack, M. Rosing,
   K. Glaesemann, G. Sandrone, M. Stave, H. Taylor, G. Thomas, J. H. van Lenthe,
                               A. T. Wong, Z. Zhang.

 Total times  cpu:      264.6s     wall:      284.6s
