 argument  1 = ../data/PW_LiH_data/3x3_aperiodic/NWChem/8nocovo/H1Li1-3.0.nw



============================== echo of input deck ==============================
title "swnc: e theory=pspw4 xc=pbe formula=LiH charge=0 mult=1"
#machinejob:expert

echo

start pspw_hf_LiH

memory heap 1200 mb stack 2400 mb global 400 mb

charge 0

geometry
Li    0.00000    0.00000   -1.50000
H     0.00000    0.00000    1.50000
end

nwpw
  ### pseudopotential block begin ###
  ### pseudopotential block end   ###
  simulation_cell
     SC 28.345889835
     boundary_conditions aperiodic
  end

  cutoff 50.0
  mult 1
  xc hf
  lmbfgs
  tolerances 1.0e-9 1.0e-9

  virtual 8
end
set nwpw:cif_filename LiH

#set nwpw:CI_maxit_orb 15
#set nwpw:CI_maxit_linesearch 15


set nwpw:2qintegrals .true.
#set nwpw:3x3_virtual .true.

task pspw energy

================================================================================


                                         
                                         


             Northwest Computational Chemistry Package (NWChem) 7.2.3
             --------------------------------------------------------


                    Environmental Molecular Sciences Laboratory
                       Pacific Northwest National Laboratory
                                Richland, WA 99352

                              Copyright (c) 1994-2022
                       Pacific Northwest National Laboratory
                            Battelle Memorial Institute

             NWChem is an open-source computational chemistry package
                        distributed under the terms of the
                      Educational Community License (ECL) 2.0
             A copy of the license is included with this distribution
                              in the LICENSE.TXT file

                                  ACKNOWLEDGMENT
                                  --------------

            This software and its documentation were developed at the
            EMSL at Pacific Northwest National Laboratory, a multiprogram
            national laboratory, operated for the U.S. Department of Energy
            by Battelle under Contract Number DE-AC05-76RL01830. Support
            for this work was provided by the Department of Energy Office
            of Biological and Environmental Research, Office of Basic
            Energy Sciences, and the Office of Advanced Scientific Computing.


           Job information
           ---------------

    hostname        = mqs-al
    program         = nwchem
    date            = Sun May  4 14:20:08 2025

    compiled        = Thu_Oct_31_08:55:15_2024
    source          = /home/conda/feedstock_root/build_artifacts/nwchem_1730356057992/work
    nwchem branch   = 7.2.3
    nwchem revision = c400b04
    ga revision     = 5.8.0
    use scalapack   = T
    input           = ../data/PW_LiH_data/3x3_aperiodic/NWChem/8nocovo/H1Li1-3.0.nw
    prefix          = pspw_hf_LiH.
    data base       = ./pspw_hf_LiH.db
    status          = startup
    nproc           =       24
    time left       =     -1s



           Memory information
           ------------------

    heap     =  157286400 doubles =   1200.0 Mbytes
    stack    =  314572797 doubles =   2400.0 Mbytes
    global   =   52428800 doubles =    400.0 Mbytes (distinct from heap & stack)
    total    =  524287997 doubles =   4000.0 Mbytes
    verify   = yes
    hardfail = no 


           Directory information
           ---------------------

  0 permanent = .
  0 scratch   = .




                                NWChem Input Module
                                -------------------


              swnc: e theory=pspw4 xc=pbe formula=LiH charge=0 mult=1
              -------------------------------------------------------

 Scaling coordinates for geometry "geometry" by  1.889725989
 (inverse scale =  0.529177249)

  zeroes
  zeroes
  zeroes
  zeroes
  zeroes
  zeroes
  zeroes
  zeroes
  zeroes
  zeroes
  zeroes
  zeroes
  zeroes
  zeroes
  zeroes
  zeroes
  zeroes
  zeroes
  zeroes
  zeroes
  zeroes
  zeroes
  zeroes
  zeroes
  zeroes
  zeroes
  zeroes
  zeroes
  zeroes
  zeroes
  zeroes
  zeroes
  zeroes
  zeroes
  zeroes
  zeroes
  zeroes
  zeroes
  zeroes
  zeroes
  zeroes
  zeroes
  zeroes
  zeroes
  zeroes
  zeroes
  zeroes
  zeroes
 ORDER OF PRIMARY AXIS IS BEING SET TO 4
 C4V symmetry detected

          ------
          auto-z
          ------
     1 autoz failed with cvr_scaling = 1.2 changing to 1.3
     2 autoz failed with cvr_scaling = 1.3 changing to 1.4
     3 autoz failed with cvr_scaling = 1.4 changing to 1.5
     4 autoz failed with cvr_scaling = 1.5 changing to 1.6
     5 autoz failed with cvr_scaling = 1.6 changing to 1.7

 AUTOZ failed to generate good internal coordinates.
 Cartesian coordinates will be used in optimizations.



                             Geometry "geometry" -> ""
                             -------------------------

 Output coordinates in angstroms (scale by  1.889725989 to convert to a.u.)

  No.       Tag          Charge          X              Y              Z
 ---- ---------------- ---------- -------------- -------------- --------------
    1 Li                   3.0000     0.00000000     0.00000000    -0.75000000
    2 H                    1.0000     0.00000000     0.00000000     2.25000000

      Atomic Mass 
      ----------- 

      Li                 7.016000
      H                  1.007825


 Effective nuclear repulsion energy (a.u.)       0.5291772490

            Nuclear Dipole moment (a.u.) 
            ----------------------------
        X                 Y               Z
 ---------------- ---------------- ----------------
     0.0000000000     0.0000000000     0.0000000000

      Symmetry information
      --------------------

 Group name             C4v       
 Group number             18
 Group order               8
 No. of unique centers     2

      Symmetry unique atoms

     1    2


            XYZ format geometry
            -------------------
     2
 geometry
 Li                    0.00000000     0.00000000    -0.75000000
 H                     0.00000000     0.00000000     2.25000000

          ****************************************************
          *                                                  *
          *               NWPW PSPW Calculation              *
          *                                                  *
          * [ (Grassmann/Stiefel manifold implementation)  ] *
          *                                                  *
          *      [ NorthWest Chemistry implementation ]      *
          *                                                  *
          *            version #5.10   06/12/02              *
          *                                                  *
          *    This code was developed by Eric J. Bylaska,   *
          *    and was based upon algorithms and code        *
          *    developed by the group of Prof. John H. Weare *
          *                                                  *
          ****************************************************
     >>>  JOB STARTED       AT Sun May  4 14:20:08 2025  <<<
          ================ input data ========================

 input psi filename:./pspw_hf_LiH.movecs

 number of processors used:        24
 processor grid           :  24 x   1
 parallel mapping         :2d-hilbert
 parallel mapping         :  balanced
 number of threads        :         1
 parallel io              :       off

 options:
      boundary conditions  = aperiodic   (version4)
      electron spin        = restricted
      exchange-correlation = Hartree-Fock
      - HFX relaxed
      - HFX restricted orbitals :    1
      - HFX free-space coulomb solver


 elements involved in the cluster:
      1: Li  valence charge:  1.0000  lmax=  1
             comment    : Hamann pseudopotential
             pseudpotential type            :   0
             highest angular component      :   1
             local potential used           :   1
             number of non-local projections:   1
             aperiodic cutoff radius        :  1.000
             semicore corrections included  :  1.000 (radius)  0.769 (charge)
             cutoff =   1.869   1.551

      2: H   valence charge:  1.0000  lmax=  1
             comment    : Parameterized (Chem.Phys.Lett., vol 322, page 447) Hamman psp
             pseudpotential type            :   0
             highest angular component      :   1
             local potential used           :   1
             number of non-local projections:   1
             aperiodic cutoff radius        :  1.000
             cutoff =   0.800   0.800


 total charge:   0.000

 atomic composition:
     Li  :    1     H   :    1

 number of electrons: spin up=     1 (   1 per task)  down=     1 (   1 per task) (Fourier space)
 number of orbitals : spin up=     1 (   1 per task)  down=     1 (   1 per task) (Fourier space)

 supercell:
      cell_name:  cell_default                                      
      lattice:    a1=<  28.346   0.000   0.000 >
                  a2=<   0.000  28.346   0.000 >
                  a3=<   0.000   0.000  28.346 >
      reciprocal: b1=<   0.222   0.000   0.000 >
                  b2=<   0.000   0.222   0.000 >
                  b3=<   0.000   0.000   0.222 >
      lattice:    a=      28.346 b=     28.346 c=      28.346
                  alpha=  90.000 beta=  90.000 gamma=  90.000
                  omega=     22775.6

      density cutoff=100.000  fft=140x140x140(   544264 waves    22677 per task)
      wavefnc cutoff= 50.000  fft=140x140x140(   192294 waves     8012 per task)

 technical parameters:
      time step=      5.80     fictitious mass=  400000.0
      tolerance=0.100E-08 (energy)   0.100E-08 (density)
      maximum iterations =      1000 (   10 inner    100 outer )





== Energy Calculation ==


          ============ Grassmann lmbfgs iteration ============
     >>>  ITERATION STARTED AT Sun May  4 14:21:38 2025  <<<
    iter.           Energy         DeltaE       DeltaRho 
    ------------------------------------------------------
      10   -0.6729729647E+00   -0.18889E-02    0.15213E-01
     -  10 steepest descent iterations performed
      20   -0.6787680463E+00   -0.16100E-03    0.13723E-03
      30   -0.6791521129E+00   -0.12104E-04    0.83757E-05
      40   -0.6791947995E+00   -0.12125E-05    0.42446E-06
      50   -0.6791996173E+00   -0.12869E-06    0.23288E-07
      60   -0.6792002215E+00   -0.28021E-07    0.22166E-08
      70   -0.6792003507E+00   -0.60486E-08    0.45862E-09
      80   -0.6792003790E+00   -0.15559E-08    0.16132E-09
      90   -0.6792003826E+00   -0.99827E-09    0.14274E-10
  *** tolerance ok. iteration terminated
     >>>  ITERATION ENDED   AT Sun May  4 14:23:20 2025  <<<


==  Summary Of Results  ==

 number of electrons: spin up=    1.00000  down=    1.00000 (real space)

 total     energy    :  -0.6792003826E+00 (   -0.33960E+00/ion)
 total orbital energy:  -0.4652183229E+00 (   -0.46522E+00/electron)
 hartree   energy    :   0.7807489521E+00 (    0.78075E+00/electron)
 exc-corr  energy    :   0.0000000000E+00 (    0.00000E+00/electron)
 HF exchange energy  :  -0.3903744761E+00 (   -0.39037E+00/electron)
 ion-ion   energy    :   0.1763924163E+00 (    0.88196E-01/ion)

 kinetic (planewave) :   0.4689993092E+00 (    0.46900E+00/electron)
 V_local (planewave) :  -0.1623049220E+01 (   -0.16230E+01/electron)
 V_nl    (planewave) :  -0.9191736438E-01 (   -0.91917E-01/electron)
 V_Coul  (planewave) :   0.1561497904E+01 (    0.15615E+01/electron)
 V_xc.   (planewave) :   0.0000000000E+00 (    0.00000E+00/electron)
 K.S. HFX energy     :  -0.7807489521E+00 (   -0.78075E+00/electron)
 Virial Coefficient  :  -0.3272258123E+00

 orbital energies:
    -0.2326092E+00 (  -6.330eV)


== Virtual Orbital Calculation ==


 input epsi filename:./pspw_hf_LiH.emovecs
     orbital   1 current e=-0.340E-01 (error=0.985E-09) iterations 116(  63 preconditioned, Ep,Sp= 20.0  200.0)
     orbital   2 current e= 0.220E-02 (error=0.293E-08) iterations 121(  65 preconditioned, Ep,Sp= 20.0  200.0)
     orbital   2 current e= 0.220E-02 (error=0.918E-09) iterations  20(   1 preconditioned, Ep,Sp= 20.0  200.0)
     orbital   3 current e= 0.981E-02 (error=0.987E-09) iterations 115(  67 preconditioned, Ep,Sp= 20.0  200.0)
     orbital   4 current e= 0.981E-02 (error=0.987E-09) iterations 115(  67 preconditioned, Ep,Sp= 20.0  200.0)
     orbital   5 current e= 0.190E-01 (error=0.348E-07) iterations 121(  83 preconditioned, Ep,Sp= 20.0  200.0)
     orbital   5 current e= 0.190E-01 (error=0.100E-08) iterations  75(   1 preconditioned, Ep,Sp= 20.0  200.0)
     orbital   6 current e= 0.202E-01 (error=0.897E-09) iterations  75(  36 preconditioned, Ep,Sp= 20.0  200.0)
     orbital   7 current e= 0.303E-01 (error=0.355E-08) iterations 121(  45 preconditioned, Ep,Sp= 20.0  200.0)
     orbital   7 current e= 0.303E-01 (error=0.956E-09) iterations  23(   1 preconditioned, Ep,Sp= 20.0  200.0)
     orbital   8 current e= 0.338E-01 (error=0.339E-07) iterations 121( 101 preconditioned, Ep,Sp= 20.0  200.0)
     orbital   8 current e= 0.338E-01 (error=0.986E-09) iterations  41(   1 preconditioned, Ep,Sp= 20.0  200.0)

 virtual orbital energies:
     0.3378156E-01 (   0.919eV)
     0.3028923E-01 (   0.824eV)
     0.2016191E-01 (   0.549eV)
     0.1899919E-01 (   0.517eV)
     0.9809188E-02 (   0.267eV)
     0.9809188E-02 (   0.267eV)
     0.2201914E-02 (   0.060eV)
    -0.3401216E-01 (  -0.926eV)


 == Generating One-Electron and Two-Electron Integrals ==

 begin_one_electron_integrals
    1    1        -0.6229836375
    2    1        -0.0510788622
    3    1         0.0090273474
    4    1        -0.0000000924
    5    1        -0.0000000894
    6    1         0.0204899444
    7    1         0.0000000260
    8    1        -0.0120679001
    9    1         0.0005098697
    2    2        -0.2849872332
    3    2         0.0356185383
    4    2        -0.0000002326
    5    2        -0.0000002249
    6    2         0.0311303741
    7    2         0.0000000395
    8    2        -0.0164525754
    9    2        -0.0188850136
    3    3        -0.1380012048
    4    3        -0.0000002891
    5    3        -0.0000002796
    6    3        -0.0060125499
    7    3        -0.0000000071
    8    3         0.0026488298
    9    3         0.0313401531
    4    4        -0.1850549195
    5    4         0.0000000000
    6    4        -0.0000000141
    7    4        -0.0000001165
    8    4        -0.0000000377
    9    4         0.0000002368
    5    5        -0.1850549192
    6    5        -0.0000000136
    7    5         0.0000001205
    8    5        -0.0000000364
    9    5         0.0000002289
    6    6        -0.1400108873
    7    6        -0.0000000295
    8    6         0.0044055100
    9    6         0.0006713501
    7    7        -0.1176290638
    8    7         0.0000000063
    9    7         0.0000000015
    8    8        -0.1119111925
    9    8         0.0028928390
    9    9        -0.1037569747
 end_one_electron_integrals

 begin_two_electron_integrals
    1    1    1    1        0.3903744761
    1    1    2    1        0.0510838819
    1    1    3    1       -0.0090341289
    1    1    4    1        0.0000000925
    1    1    5    1        0.0000000894
    1    1    6    1       -0.0204958221
    1    1    7    1       -0.0000000260
    1    1    8    1        0.0120638204
    1    1    9    1       -0.0005059934
    1    1    2    2        0.1329592820
    1    1    3    2       -0.0197684113
    1    1    4    2        0.0000001357
    1    1    5    2        0.0000001312
    1    1    6    2       -0.0186900200
    1    1    7    2       -0.0000000238
    1    1    8    2        0.0097534996
    1    1    9    2        0.0103277863
    1    1    3    3        0.0707051106
    1    1    4    3        0.0000001630
    1    1    5    3        0.0000001576
    1    1    6    3        0.0038444211
    1    1    7    3        0.0000000047
    1    1    8    3       -0.0016973589
    1    1    9    3       -0.0160451175
    1    1    4    4        0.0983392681
    1    1    5    4       -0.0000000000
    1    1    6    4       -0.0000000155
    1    1    7    4        0.0000000331
    1    1    8    4        0.0000000248
    1    1    9    4       -0.0000001397
    1    1    5    5        0.0983392679
    1    1    6    5       -0.0000000150
    1    1    7    5       -0.0000000342
    1    1    8    5        0.0000000240
    1    1    9    5       -0.0000001351
    1    1    6    6        0.0809318156
    1    1    7    6        0.0000000158
    1    1    8    6       -0.0028412533
    1    1    9    6       -0.0007337821
    1    1    7    7        0.0689142283
    1    1    8    7       -0.0000000037
    1    1    9    7       -0.0000000012
    1    1    8    8        0.0714502440
    1    1    9    8       -0.0013298885
    1    1    9    9        0.0690971442
    2    1    2    1        0.0149434929
    2    1    3    1       -0.0039225205
    2    1    4    1        0.0000000387
    2    1    5    1        0.0000000374
    2    1    6    1       -0.0062409091
    2    1    7    1       -0.0000000081
    2    1    8    1        0.0030579597
    2    1    9    1        0.0017717053
    2    1    2    2       -0.0127123013
    2    1    3    2        0.0031115818
    2    1    4    2       -0.0000000367
    2    1    5    2       -0.0000000355
    2    1    6    2       -0.0011948940
    2    1    7    2       -0.0000000017
    2    1    8    2       -0.0008949279
    2    1    9    2       -0.0020379440
    2    1    3    3       -0.0028146576
    2    1    4    3       -0.0000000448
    2    1    5    3       -0.0000000433
    2    1    6    3       -0.0008514425
    2    1    7    3       -0.0000000009
    2    1    8    3        0.0026286657
    2    1    9    3        0.0009904694
    2    1    4    4       -0.0072994253
    2    1    5    4       -0.0000000000
    2    1    6    4        0.0000000000
    2    1    7    4        0.0000000042
    2    1    8    4        0.0000000045
    2    1    9    4        0.0000000207
    2    1    5    5       -0.0072994253
    2    1    6    5        0.0000000000
    2    1    7    5       -0.0000000044
    2    1    8    5        0.0000000043
    2    1    9    5        0.0000000201
    2    1    6    6       -0.0022836801
    2    1    7    6       -0.0000000000
    2    1    8    6       -0.0002466877
    2    1    9    6        0.0012072356
    2    1    7    7       -0.0022583832
    2    1    8    7       -0.0000000002
    2    1    9    7        0.0000000015
    2    1    8    8        0.0002973114
    2    1    9    8       -0.0013029010
    2    1    9    9       -0.0018129673
    3    1    3    1        0.0012071026
    3    1    4    1        0.0000000370
    3    1    5    1        0.0000000357
    3    1    6    1        0.0016821387
    3    1    7    1        0.0000000022
    3    1    8    1       -0.0007348182
    3    1    9    1       -0.0007438483
    3    1    2    2        0.0060679821
    3    1    3    2       -0.0016854220
    3    1    4    2       -0.0000001708
    3    1    5    2       -0.0000001651
    3    1    6    2       -0.0001353080
    3    1    7    2       -0.0000000001
    3    1    8    2        0.0006452265
    3    1    9    2        0.0011298460
    3    1    3    3        0.0011750915
    3    1    4    3       -0.0000001533
    3    1    5    3       -0.0000001482
    3    1    6    3        0.0004323629
    3    1    7    3        0.0000000005
    3    1    8    3       -0.0009568372
    3    1    9    3       -0.0005561155
    3    1    4    4        0.0030816381
    3    1    5    4       -0.0000000000
    3    1    6    4        0.0000000765
    3    1    7    4        0.0000001522
    3    1    8    4        0.0000000633
    3    1    9    4        0.0000000583
    3    1    5    5        0.0030816381
    3    1    6    5        0.0000000739
    3    1    7    5       -0.0000001575
    3    1    8    5        0.0000000612
    3    1    9    5        0.0000000564
    3    1    6    6        0.0010163422
    3    1    7    6        0.0000000003
    3    1    8    6       -0.0000200139
    3    1    9    6       -0.0004916502
    3    1    7    7        0.0007679823
    3    1    8    7       -0.0000000001
    3    1    9    7       -0.0000000006
    3    1    8    8        0.0000205071
    3    1    9    8        0.0005000418
    3    1    9    9        0.0007978377
    4    1    4    1        0.0018144287
    4    1    5    1       -0.0000000000
    4    1    6    1       -0.0000000468
    4    1    7    1       -0.0000000503
    4    1    8    1        0.0000000121
    4    1    9    1       -0.0000000431
    4    1    2    2       -0.0000003385
    4    1    3    2       -0.0000019027
    4    1    4    2       -0.0044446212
    4    1    5    2       -0.0000000000
    4    1    6    2        0.0000009853
    4    1    7    2        0.0000022867
    4    1    8    2        0.0000007140
    4    1    9    2        0.0000002262
    4    1    3    3       -0.0000145462
    4    1    4    3       -0.0002322349
    4    1    5    3       -0.0000000001
    4    1    6    3        0.0000074236
    4    1    7    3        0.0000138136
    4    1    8    3        0.0000003999
    4    1    9    3       -0.0000030848
    4    1    4    4       -0.0000000799
    4    1    5    4       -0.0000000580
    4    1    6    4        0.0013595877
    4    1    7    4        0.0013451487
    4    1    8    4        0.0002636890
    4    1    9    4        0.0002226960
    4    1    5    5       -0.0000025624
    4    1    6    5        0.0000000001
    4    1    7    5       -0.0000452971
    4    1    8    5       -0.0000000000
    4    1    9    5       -0.0000000001
    4    1    6    6       -0.0000104440
    4    1    7    6       -0.0000059529
    4    1    8    6        0.0000009713
    4    1    9    6       -0.0000037064
    4    1    7    7       -0.0000203449
    4    1    8    7       -0.0000033767
    4    1    9    7       -0.0000041311
    4    1    8    8       -0.0000167630
    4    1    9    8        0.0000002729
    4    1    9    9       -0.0000171441
    5    1    5    1        0.0018144287
    5    1    6    1       -0.0000000452
    5    1    7    1        0.0000000521
    5    1    8    1        0.0000000117
    5    1    9    1       -0.0000000416
    5    1    2    2       -0.0000003273
    5    1    3    2       -0.0000018397
    5    1    4    2        0.0000000000
    5    1    5    2       -0.0044446212
    5    1    6    2        0.0000009527
    5    1    7    2       -0.0000023650
    5    1    8    2        0.0000006903
    5    1    9    2        0.0000002187
    5    1    3    3       -0.0000140646
    5    1    4    3        0.0000000001
    5    1    5    3       -0.0002322349
    5    1    6    3        0.0000071779
    5    1    7    3       -0.0000142866
    5    1    8    3        0.0000003867
    5    1    9    3       -0.0000029827
    5    1    4    4       -0.0000025622
    5    1    5    4        0.0000000276
    5    1    6    4        0.0000000001
    5    1    7    4       -0.0000452970
    5    1    8    4       -0.0000000000
    5    1    9    4       -0.0000000001
    5    1    5    5        0.0000000074
    5    1    6    5        0.0013595912
    5    1    7    5       -0.0013451451
    5    1    8    5        0.0002636892
    5    1    9    5        0.0002226961
    5    1    6    6       -0.0000100982
    5    1    7    6        0.0000061568
    5    1    8    6        0.0000009391
    5    1    9    6       -0.0000035837
    5    1    7    7       -0.0000196713
    5    1    8    7        0.0000034923
    5    1    9    7        0.0000042725
    5    1    8    8       -0.0000162080
    5    1    9    8        0.0000002638
    5    1    9    9       -0.0000165765
    6    1    6    1        0.0028535521
    6    1    7    1        0.0000000037
    6    1    8    1       -0.0012848664
    6    1    9    1       -0.0007957121
    6    1    2    2        0.0033213766
    6    1    3    2       -0.0008691525
    6    1    4    2        0.0000001334
    6    1    5    2        0.0000001289
    6    1    6    2       -0.0000249259
    6    1    7    2        0.0000000002
    6    1    8    2        0.0001265255
    6    1    9    2        0.0006717655
    6    1    3    3        0.0008986220
    6    1    4    3        0.0000001446
    6    1    5    3        0.0000001398
    6    1    6    3        0.0000035313
    6    1    7    3        0.0000000002
    6    1    8    3       -0.0008527518
    6    1    9    3       -0.0003477502
    6    1    4    4        0.0026249923
    6    1    5    4        0.0000000001
    6    1    6    4       -0.0000000707
    6    1    7    4       -0.0000001107
    6    1    8    4       -0.0000000425
    6    1    9    4       -0.0000000725
    6    1    5    5        0.0026249931
    6    1    6    5       -0.0000000683
    6    1    7    5        0.0000001144
    6    1    8    5       -0.0000000411
    6    1    9    5       -0.0000000701
    6    1    6    6        0.0005908486
    6    1    7    6       -0.0000000005
    6    1    8    6        0.0000195226
    6    1    9    6       -0.0000334655
    6    1    7    7        0.0008766924
    6    1    8    7       -0.0000000001
    6    1    9    7       -0.0000000002
    6    1    8    8       -0.0000308065
    6    1    9    8        0.0004232086
    6    1    9    9        0.0006429953
    7    1    7    1        0.0000374852
    7    1    8    1       -0.0000000016
    7    1    9    1       -0.0000000011
    7    1    2    2        0.0000000044
    7    1    3    2       -0.0000000011
    7    1    4    2        0.0000002166
    7    1    5    2       -0.0000002240
    7    1    6    2        0.0000000002
    7    1    7    2       -0.0001630836
    7    1    8    2        0.0000000002
    7    1    9    2        0.0000000009
    7    1    3    3        0.0000000012
    7    1    4    3        0.0000002270
    7    1    5    3       -0.0000002348
    7    1    6    3        0.0000000003
    7    1    7    3       -0.0001893763
    7    1    8    3       -0.0000000011
    7    1    9    3       -0.0000000005
    7    1    4    4        0.0003124713
    7    1    5    4       -0.0000105222
    7    1    6    4       -0.0000000913
    7    1    7    4       -0.0000002174
    7    1    8    4       -0.0000000878
    7    1    9    4       -0.0000001005
    7    1    5    5       -0.0003124643
    7    1    6    5        0.0000000945
    7    1    7    5       -0.0000002102
    7    1    8    5        0.0000000909
    7    1    9    5        0.0000001040
    7    1    6    6        0.0000000005
    7    1    7    6        0.0001117966
    7    1    8    6       -0.0000000001
    7    1    9    6       -0.0000000003
    7    1    7    7        0.0000000015
    7    1    8    7        0.0000856594
    7    1    9    7        0.0001628765
    7    1    8    8       -0.0000000001
    7    1    9    8        0.0000000005
    7    1    9    9        0.0000000009
    8    1    8    1        0.0007000684
    8    1    9    1        0.0002419956
    8    1    2    2       -0.0010799210
    8    1    3    2        0.0003893353
    8    1    4    2        0.0000000097
    8    1    5    2        0.0000000094
    8    1    6    2       -0.0002757130
    8    1    7    2       -0.0000000004
    8    1    8    2       -0.0001195437
    8    1    9    2       -0.0003103805
    8    1    3    3       -0.0002054036
    8    1    4    3        0.0000000050
    8    1    5    3        0.0000000048
    8    1    6    3       -0.0000512704
    8    1    7    3       -0.0000000000
    8    1    8    3        0.0001222006
    8    1    9    3        0.0001339973
    8    1    4    4       -0.0004881809
    8    1    5    4       -0.0000000000
    8    1    6    4        0.0000000180
    8    1    7    4       -0.0000000188
    8    1    8    4       -0.0000000450
    8    1    9    4        0.0000000088
    8    1    5    5       -0.0004881809
    8    1    6    5        0.0000000174
    8    1    7    5        0.0000000194
    8    1    8    5       -0.0000000435
    8    1    9    5        0.0000000085
    8    1    6    6       -0.0000404034
    8    1    7    6        0.0000000000
    8    1    8    6       -0.0000367276
    8    1    9    6        0.0001216372
    8    1    7    7       -0.0000463410
    8    1    8    7       -0.0000000001
    8    1    9    7        0.0000000001
    8    1    8    8        0.0000129900
    8    1    9    8       -0.0001054935
    8    1    9    9       -0.0001310180
    9    1    9    1        0.0006557558
    9    1    2    2       -0.0056881946
    9    1    3    2        0.0016532013
    9    1    4    2        0.0000001496
    9    1    5    2        0.0000001447
    9    1    6    2        0.0004861784
    9    1    7    2        0.0000000006
    9    1    8    2       -0.0007025718
    9    1    9    2       -0.0011230339
    9    1    3    3       -0.0010411264
    9    1    4    3        0.0000001125
    9    1    5    3        0.0000001088
    9    1    6    3       -0.0004503900
    9    1    7    3       -0.0000000005
    9    1    8    3        0.0008046055
    9    1    9    3        0.0005251090
    9    1    4    4       -0.0026932157
    9    1    5    4       -0.0000000000
    9    1    6    4       -0.0000000852
    9    1    7    4       -0.0000001316
    9    1    8    4       -0.0000000414
    9    1    9    4       -0.0000000633
    9    1    5    5       -0.0026932156
    9    1    6    5       -0.0000000824
    9    1    7    5        0.0000001361
    9    1    8    5       -0.0000000401
    9    1    9    5       -0.0000000612
    9    1    6    6       -0.0009173193
    9    1    7    6       -0.0000000004
    9    1    8    6        0.0000856921
    9    1    9    6        0.0004497624
    9    1    7    7       -0.0005924524
    9    1    8    7        0.0000000001
    9    1    9    7        0.0000000006
    9    1    8    8       -0.0000730390
    9    1    9    8       -0.0004287436
    9    1    9    9       -0.0007027147
    2    2    2    2        0.1930989697
    2    2    3    2       -0.0310904336
    2    2    4    2        0.0000017827
    2    2    5    2        0.0000017237
    2    2    6    2       -0.0027662607
    2    2    7    2       -0.0000000023
    2    2    8    2        0.0131000986
    2    2    9    2        0.0157903291
    2    2    3    3        0.0841606805
    2    2    4    3        0.0000019938
    2    2    5    3        0.0000019278
    2    2    6    3        0.0094950467
    2    2    7    3        0.0000000110
    2    2    8    3       -0.0157710630
    2    2    9    3       -0.0186809197
    2    2    4    4        0.1287694408
    2    2    5    4        0.0000000009
    2    2    6    4       -0.0000003380
    2    2    7    4       -0.0000013735
    2    2    8    4       -0.0000008519
    2    2    9    4       -0.0000005990
    2    2    5    5        0.1287694407
    2    2    6    5       -0.0000003269
    2    2    7    5        0.0000014205
    2    2    8    5       -0.0000008237
    2    2    9    5       -0.0000005792
    2    2    6    6        0.0939521488
    2    2    7    6        0.0000000179
    2    2    8    6       -0.0003357247
    2    2    9    6       -0.0096545793
    2    2    7    7        0.0804423640
    2    2    8    7       -0.0000000011
    2    2    9    7       -0.0000000125
    2    2    8    8        0.0681102675
    2    2    9    8        0.0049306826
    2    2    9    9        0.0769750226
    3    2    3    2        0.0098262597
    3    2    4    2        0.0000101868
    3    2    5    2        0.0000098495
    3    2    6    2        0.0032020943
    3    2    7    2        0.0000000037
    3    2    8    2       -0.0046677633
    3    2    9    2       -0.0061094827
    3    2    3    3       -0.0038789154
    3    2    4    3        0.0000115666
    3    2    5    3        0.0000111836
    3    2    6    3       -0.0011657960
    3    2    7    3       -0.0000000014
    3    2    8    3        0.0012516664
    3    2    9    3        0.0040471364
    3    2    4    4       -0.0118349582
    3    2    5    4        0.0000000138
    3    2    6    4       -0.0000023271
    3    2    7    4       -0.0000090808
    3    2    8    4       -0.0000054106
    3    2    9    4       -0.0000026144
    3    2    5    5       -0.0118349591
    3    2    6    5       -0.0000022500
    3    2    7    5        0.0000093917
    3    2    8    5       -0.0000052315
    3    2    9    5       -0.0000025278
    3    2    6    6       -0.0041729126
    3    2    7    6       -0.0000000041
    3    2    8    6        0.0006648262
    3    2    9    6        0.0011836521
    3    2    7    7       -0.0010459246
    3    2    8    7        0.0000000008
    3    2    9    7        0.0000000014
    3    2    8    8       -0.0023294933
    3    2    9    8       -0.0012864680
    3    2    9    9       -0.0030896462
    4    2    4    2        0.0202381688
    4    2    5    2        0.0000000007
    4    2    6    2       -0.0000043073
    4    2    7    2       -0.0000122452
    4    2    8    2       -0.0000047896
    4    2    9    2       -0.0000000140
    4    2    3    3        0.0000763611
    4    2    4    3        0.0035837801
    4    2    5    3        0.0000000081
    4    2    6    3       -0.0000318959
    4    2    7    3       -0.0000729015
    4    2    8    3       -0.0000144823
    4    2    9    3        0.0000250809
    4    2    4    4        0.0000003692
    4    2    5    4        0.0000017610
    4    2    6    4       -0.0018150087
    4    2    7    4       -0.0067812385
    4    2    8    4       -0.0032805852
    4    2    9    4       -0.0019238904
    4    2    5    5        0.0000133831
    4    2    6    5       -0.0000000049
    4    2    7    5        0.0002283492
    4    2    8    5       -0.0000000014
    4    2    9    5        0.0000000060
    4    2    6    6        0.0000467304
    4    2    7    6        0.0000236333
    4    2    8    6        0.0000010584
    4    2    9    6        0.0000133607
    4    2    7    7        0.0001071472
    4    2    8    7        0.0000284277
    4    2    9    7        0.0000124606
    4    2    8    8        0.0000707621
    4    2    9    8       -0.0000018699
    4    2    9    9        0.0000896898
    5    2    5    2        0.0202381687
    5    2    6    2       -0.0000041647
    5    2    7    2        0.0000126645
    5    2    8    2       -0.0000046311
    5    2    9    2       -0.0000000136
    5    2    3    3        0.0000738329
    5    2    4    3        0.0000000074
    5    2    5    3        0.0035837796
    5    2    6    3       -0.0000308401
    5    2    7    3        0.0000753976
    5    2    8    3       -0.0000140029
    5    2    9    3        0.0000242505
    5    2    4    4        0.0000134820
    5    2    5    4        0.0000012607
    5    2    6    4       -0.0000000050
    5    2    7    4        0.0002283586
    5    2    8    4       -0.0000000013
    5    2    9    4        0.0000000060
    5    2    5    5       -0.0000001851
    5    2    6    5       -0.0018150260
    5    2    7    5        0.0067812333
    5    2    8    5       -0.0032805860
    5    2    9    5       -0.0019238911
    5    2    6    6        0.0000451834
    5    2    7    6       -0.0000244427
    5    2    8    6        0.0000010234
    5    2    9    6        0.0000129183
    5    2    7    7        0.0001035997
    5    2    8    7       -0.0000294011
    5    2    9    7       -0.0000128873
    5    2    8    8        0.0000684194
    5    2    9    8       -0.0000018080
    5    2    9    9        0.0000867204
    6    2    6    2        0.0070667625
    6    2    7    2        0.0000000070
    6    2    8    2       -0.0010275607
    6    2    9    2       -0.0032907535
    6    2    3    3        0.0001822141
    6    2    4    3       -0.0000046110
    6    2    5    3       -0.0000044584
    6    2    6    3        0.0028824608
    6    2    7    3        0.0000000001
    6    2    8    3       -0.0009318972
    6    2    9    3        0.0012677787
    6    2    4    4       -0.0011758958
    6    2    5    4       -0.0000000111
    6    2    6    4        0.0000026611
    6    2    7    4        0.0000034350
    6    2    8    4        0.0000018808
    6    2    9    4        0.0000017906
    6    2    5    5       -0.0011759013
    6    2    6    5        0.0000025730
    6    2    7    5       -0.0000035527
    6    2    8    5        0.0000018186
    6    2    9    5        0.0000017313
    6    2    6    6        0.0034386997
    6    2    7    6        0.0000000041
    6    2    8    6        0.0007584730
    6    2    9    6       -0.0036792562
    6    2    7    7        0.0005608287
    6    2    8    7        0.0000000032
    6    2    9    7       -0.0000000030
    6    2    8    8       -0.0021831878
    6    2    9    8       -0.0000361994
    6    2    9    9        0.0000535421
    7    2    7    2        0.0016785596
    7    2    8    2       -0.0000000012
    7    2    9    2       -0.0000000041
    7    2    3    3        0.0000000004
    7    2    4    3       -0.0000132780
    7    2    5    3        0.0000137326
    7    2    6    3        0.0000000002
    7    2    7    3        0.0028012987
    7    2    8    3       -0.0000000014
    7    2    9    3        0.0000000014
    7    2    4    4       -0.0024293630
    7    2    5    4        0.0000818073
    7    2    6    4        0.0000024977
    7    2    7    4        0.0000124852
    7    2    8    4        0.0000065955
    7    2    9    4        0.0000039799
    7    2    5    5        0.0024293606
    7    2    6    5       -0.0000025833
    7    2    7    5        0.0000120718
    7    2    8    5       -0.0000068214
    7    2    9    5       -0.0000041162
    7    2    6    6        0.0000000052
    7    2    7    6       -0.0002139969
    7    2    8    6        0.0000000033
    7    2    9    6       -0.0000000031
    7    2    7    7       -0.0000000002
    7    2    8    7       -0.0018151275
    7    2    9    7       -0.0013804143
    7    2    8    8       -0.0000000026
    7    2    9    8        0.0000000001
    7    2    9    9        0.0000000002
    8    2    8    2        0.0025758563
    8    2    9    2        0.0028729810
    8    2    3    3        0.0009542241
    8    2    4    3       -0.0000050402
    8    2    5    3       -0.0000048734
    8    2    6    3        0.0008127607
    8    2    7    3        0.0000000009
    8    2    8    3        0.0003961829
    8    2    9    3       -0.0017696507
    8    2    4    4        0.0033045117
    8    2    5    4       -0.0000000004
    8    2    6    4        0.0000005704
    8    2    7    4        0.0000046599
    8    2    8    4        0.0000038385
    8    2    9    4        0.0000011330
    8    2    5    5        0.0033045114
    8    2    6    5        0.0000005516
    8    2    7    5       -0.0000048194
    8    2    8    5        0.0000037115
    8    2    9    5        0.0000010955
    8    2    6    6        0.0015937060
    8    2    7    6        0.0000000034
    8    2    8    6       -0.0004264735
    8    2    9    6       -0.0008813994
    8    2    7    7       -0.0010269415
    8    2    8    7       -0.0000000003
    8    2    9    7       -0.0000000010
    8    2    8    8        0.0007164789
    8    2    9    8        0.0004058288
    8    2    9    9        0.0009432687
    9    2    9    2        0.0046134171
    9    2    3    3        0.0019497880
    9    2    4    3        0.0000014062
    9    2    5    3        0.0000013596
    9    2    6    3        0.0002988706
    9    2    7    3        0.0000000003
    9    2    8    3       -0.0007823700
    9    2    9    3       -0.0013690259
    9    2    4    4        0.0046725182
    9    2    5    4        0.0000000192
    9    2    6    4        0.0000012236
    9    2    7    4        0.0000006598
    9    2    8    4       -0.0000005699
    9    2    9    4        0.0000016940
    9    2    5    5        0.0046725168
    9    2    6    5        0.0000011831
    9    2    7    5       -0.0000006823
    9    2    8    5       -0.0000005511
    9    2    9    5        0.0000016379
    9    2    6    6       -0.0001930431
    9    2    7    6        0.0000000003
    9    2    8    6       -0.0005028829
    9    2    9    6       -0.0000215353
    9    2    7    7       -0.0004186610
    9    2    8    7       -0.0000000005
    9    2    9    7        0.0000000001
    9    2    8    8        0.0008824781
    9    2    9    8        0.0007264853
    9    2    9    9        0.0013725186
    3    3    3    3        0.0669851955
    3    3    4    3        0.0000924535
    3    3    5    3        0.0000893926
    3    3    6    3        0.0023357940
    3    3    7    3        0.0000000025
    3    3    8    3       -0.0075453778
    3    3    9    3       -0.0034083429
    3    3    4    4        0.0762406096
    3    3    5    4        0.0000002241
    3    3    6    4       -0.0000188961
    3    3    7    4       -0.0000638118
    3    3    8    4       -0.0000370146
    3    3    9    4       -0.0000162207
    3    3    5    5        0.0762405945
    3    3    6    5       -0.0000182707
    3    3    7    5        0.0000659967
    3    3    8    5       -0.0000357892
    3    3    9    5       -0.0000156836
    3    3    6    6        0.0681735402
    3    3    7    6        0.0000000004
    3    3    8    6        0.0006581922
    3    3    9    6       -0.0020254676
    3    3    7    7        0.0679358167
    3    3    8    7        0.0000000003
    3    3    9    7       -0.0000000028
    3    3    8    8        0.0597688544
    3    3    9    8        0.0001660425
    3    3    9    9        0.0636495134
    4    3    4    3        0.0068707010
    4    3    5    3        0.0000000784
    4    3    6    3       -0.0000364676
    4    3    7    3       -0.0000815771
    4    3    8    3       -0.0000136334
    4    3    9    3        0.0000417108
    4    3    4    4        0.0000008326
    4    3    5    4        0.0000131128
    4    3    6    4        0.0004744471
    4    3    7    4       -0.0033843787
    4    3    8    4       -0.0033080896
    4    3    9    4       -0.0020321429
    4    3    5    5        0.0000154826
    4    3    6    5       -0.0000000458
    4    3    7    5        0.0001139185
    4    3    8    5       -0.0000000110
    4    3    9    5        0.0000000570
    4    3    6    6        0.0000538808
    4    3    7    6        0.0000227453
    4    3    8    6        0.0000003867
    4    3    9    6        0.0000100843
    4    3    7    7        0.0001161510
    4    3    8    7        0.0000287130
    4    3    9    7        0.0000065568
    4    3    8    8        0.0000851911
    4    3    9    8       -0.0000023862
    4    3    9    9        0.0001166975
    5    3    5    3        0.0068706958
    5    3    6    3       -0.0000352605
    5    3    7    3        0.0000843703
    5    3    8    3       -0.0000131821
    5    3    9    3        0.0000403299
    5    3    4    4        0.0000163293
    5    3    5    4        0.0000121559
    5    3    6    4       -0.0000000459
    5    3    7    4        0.0001140149
    5    3    8    4       -0.0000000112
    5    3    9    4        0.0000000566
    5    3    5    5       -0.0000005543
    5    3    6    5        0.0004744414
    5    3    7    5        0.0033843795
    5    3    8    5       -0.0033080893
    5    3    9    5       -0.0020321468
    5    3    6    6        0.0000520971
    5    3    7    6       -0.0000235243
    5    3    8    6        0.0000003740
    5    3    9    6        0.0000097505
    5    3    7    7        0.0001123054
    5    3    8    7       -0.0000296962
    5    3    9    7       -0.0000067813
    5    3    8    8        0.0000823707
    5    3    9    8       -0.0000023072
    5    3    9    9        0.0001128339
    6    3    6    3        0.0059511036
    6    3    7    3       -0.0000000023
    6    3    8    3       -0.0014384809
    6    3    9    3       -0.0004351031
    6    3    4    4        0.0053499276
    6    3    5    4       -0.0000001693
    6    3    6    4        0.0000212435
    6    3    7    4        0.0000230447
    6    3    8    4        0.0000126839
    6    3    9    4        0.0000114891
    6    3    5    5        0.0053499320
    6    3    6    5        0.0000205402
    6    3    7    5       -0.0000238339
    6    3    8    5        0.0000122641
    6    3    9    5        0.0000111088
    6    3    6    6        0.0040409876
    6    3    7    6        0.0000000027
    6    3    8    6        0.0005325660
    6    3    9    6       -0.0043923136
    6    3    7    7        0.0021387926
    6    3    8    7        0.0000000054
    6    3    9    7       -0.0000000022
    6    3    8    8       -0.0017568232
    6    3    9    8        0.0008440680
    6    3    9    9        0.0013359750
    7    3    7    3        0.0076555332
    7    3    8    3       -0.0000000018
    7    3    9    3       -0.0000000006
    7    3    4    4       -0.0027054668
    7    3    5    4        0.0000911052
    7    3    6    4        0.0000141747
    7    3    7    4        0.0000726107
    7    3    8    4        0.0000365075
    7    3    9    4        0.0000218259
    7    3    5    5        0.0027054788
    7    3    6    5       -0.0000146602
    7    3    7    5        0.0000702067
    7    3    8    5       -0.0000377575
    7    3    9    5       -0.0000225732
    7    3    6    6        0.0000000052
    7    3    7    6       -0.0001943456
    7    3    8    6        0.0000000055
    7    3    9    6       -0.0000000021
    7    3    7    7        0.0000000009
    7    3    8    7       -0.0037874806
    7    3    9    7       -0.0026910196
    7    3    8    8       -0.0000000018
    7    3    9    8        0.0000000013
    7    3    9    9        0.0000000015
    8    3    8    3        0.0087962768
    8    3    9    3       -0.0000688955
    8    3    4    4       -0.0124300961
    8    3    5    4        0.0000000275
    8    3    6    4       -0.0000040410
    8    3    7    4        0.0000153377
    8    3    8    4        0.0000241201
    8    3    9    4       -0.0000003256
    8    3    5    5       -0.0124300984
    8    3    6    5       -0.0000039072
    8    3    7    5       -0.0000158629
    8    3    8    5        0.0000233215
    8    3    9    5       -0.0000003148
    8    3    6    6       -0.0065234215
    8    3    7    6        0.0000000034
    8    3    8    6       -0.0015919784
    8    3    9    6        0.0018700814
    8    3    7    7       -0.0092056734
    8    3    8    7       -0.0000000012
    8    3    9    7        0.0000000027
    8    3    8    8        0.0013886329
    8    3    9    8       -0.0007198779
    8    3    9    9       -0.0052923249
    9    3    9    3        0.0071073599
    9    3    4    4       -0.0112269919
    9    3    5    4        0.0000003189
    9    3    6    4        0.0000027820
    9    3    7    4       -0.0000144986
    9    3    8    4       -0.0000166343
    9    3    9    4        0.0000104390
    9    3    5    5       -0.0112270134
    9    3    6    5        0.0000026898
    9    3    7    5        0.0000149951
    9    3    8    5       -0.0000160836
    9    3    9    5        0.0000100934
    9    3    6    6       -0.0081754806
    9    3    7    6       -0.0000000035
    9    3    8    6        0.0006452813
    9    3    9    6        0.0000027980
    9    3    7    7       -0.0054723867
    9    3    8    7        0.0000000010
    9    3    9    7        0.0000000002
    9    3    8    8       -0.0048915884
    9    3    9    8       -0.0003321955
    9    3    9    9       -0.0012077290
    4    4    4    4        0.1112573069
    4    4    5    4        0.0001118423
    4    4    6    4       -0.0000002923
    4    4    7    4        0.0000006346
    4    4    8    4       -0.0000001993
    4    4    9    4        0.0000000943
    4    4    5    5        0.1026356870
    4    4    6    5       -0.0000039320
    4    4    7    5        0.0000112352
    4    4    8    5       -0.0000070505
    4    4    9    5       -0.0000029125
    4    4    6    6        0.0836116392
    4    4    7    6        0.0002574571
    4    4    8    6        0.0004987746
    4    4    9    6       -0.0045600723
    4    4    7    7        0.0784431084
    4    4    8    7        0.0018973454
    4    4    9    7        0.0017558454
    4    4    8    8        0.0651404225
    4    4    9    8        0.0022107089
    4    4    9    9        0.0707571381
    5    4    5    4        0.0076283568
    5    4    6    4       -0.0000069833
    5    4    7    4        0.0000097778
    5    4    8    4       -0.0000039137
    5    4    9    4        0.0000062850
    5    4    5    5       -0.0001118429
    5    4    6    5       -0.0000066291
    5    4    7    5       -0.0000105130
    5    4    8    5       -0.0000035532
    5    4    9    5        0.0000061780
    5    4    6    6        0.0000001896
    5    4    7    6       -0.0000086695
    5    4    8    6       -0.0000000321
    5    4    9    6       -0.0000001373
    5    4    7    7       -0.0000000014
    5    4    8    7       -0.0000638920
    5    4    9    7       -0.0000591272
    5    4    8    8        0.0000002171
    5    4    9    8       -0.0000000022
    5    4    9    9        0.0000006233
    6    4    6    4        0.0048256294
    6    4    7    4        0.0002580456
    6    4    8    4       -0.0000313278
    6    4    9    4        0.0000433716
    6    4    5    5       -0.0000034734
    6    4    6    5        0.0000000332
    6    4    7    5       -0.0000086617
    6    4    8    5        0.0000000037
    6    4    9    5       -0.0000000237
    6    4    6    6       -0.0000244682
    6    4    7    6       -0.0000173322
    6    4    8    6        0.0000041878
    6    4    9    6       -0.0000074441
    6    4    7    7       -0.0000203477
    6    4    8    7       -0.0000004227
    6    4    9    7       -0.0000136093
    6    4    8    8       -0.0000317810
    6    4    9    8        0.0000020362
    6    4    9    9       -0.0000223156
    7    4    7    4        0.0057355830
    7    4    8    4        0.0022677235
    7    4    9    4        0.0020620077
    7    4    5    5       -0.0000119222
    7    4    6    5       -0.0000087176
    7    4    7    5       -0.0000000314
    7    4    8    5       -0.0000763715
    7    4    9    5       -0.0000694039
    7    4    6    6       -0.0000363056
    7    4    7    6       -0.0000209267
    7    4    8    6       -0.0000020987
    7    4    9    6       -0.0000145260
    7    4    7    7       -0.0001028216
    7    4    8    7       -0.0000306983
    7    4    9    7       -0.0000140132
    7    4    8    8       -0.0000581145
    7    4    9    8        0.0000000988
    7    4    9    9       -0.0000666046
    8    4    8    4        0.0030031765
    8    4    9    4        0.0010378720
    8    4    5    5       -0.0000067974
    8    4    6    5        0.0000000037
    8    4    7    5       -0.0000763569
    8    4    8    5        0.0000000193
    8    4    9    5       -0.0000000141
    8    4    6    6       -0.0000177773
    8    4    7    6       -0.0000091441
    8    4    8    6       -0.0000089934
    8    4    9    6       -0.0000021201
    8    4    7    7       -0.0000544016
    8    4    8    7       -0.0000269914
    8    4    9    7       -0.0000018976
    8    4    8    8       -0.0000138732
    8    4    9    8        0.0000055501
    8    4    9    9       -0.0000425676
    9    4    9    4        0.0022922887
    9    4    5    5       -0.0000033343
    9    4    6    5       -0.0000000237
    9    4    7    5       -0.0000694697
    9    4    8    5       -0.0000000140
    9    4    9    5        0.0000000548
    9    4    6    6       -0.0000168080
    9    4    7    6       -0.0000121157
    9    4    8    6        0.0000029814
    9    4    9    6       -0.0000107859
    9    4    7    7       -0.0000354763
    9    4    8    7       -0.0000059675
    9    4    9    7       -0.0000134505
    9    4    8    8       -0.0000250831
    9    4    9    8       -0.0000005530
    9    4    9    9       -0.0000064066
    5    5    5    5        0.1112573069
    5    5    6    5        0.0000002910
    5    5    7    5        0.0000004389
    5    5    8    5        0.0000002854
    5    5    9    5       -0.0000002203
    5    5    6    6        0.0836116278
    5    5    7    6       -0.0002574431
    5    5    8    6        0.0004987818
    5    5    9    6       -0.0045600585
    5    5    7    7        0.0784431065
    5    5    8    7       -0.0018973457
    5    5    9    7       -0.0017558576
    5    5    8    8        0.0651404083
    5    5    9    8        0.0022107094
    5    5    9    9        0.0707570963
    6    5    6    5        0.0048256285
    6    5    7    5       -0.0002580479
    6    5    8    5       -0.0000313221
    6    5    9    5        0.0000433786
    6    5    6    6       -0.0000236583
    6    5    7    6        0.0000179257
    6    5    8    6        0.0000040492
    6    5    9    6       -0.0000071977
    6    5    7    7       -0.0000196743
    6    5    8    7        0.0000004372
    6    5    9    7        0.0000140753
    6    5    8    8       -0.0000307290
    6    5    9    8        0.0000019687
    6    5    9    9       -0.0000215770
    7    5    7    5        0.0057355831
    7    5    8    5       -0.0022677239
    7    5    9    5       -0.0020620076
    7    5    6    6        0.0000375488
    7    5    7    6       -0.0000202340
    7    5    8    6        0.0000021707
    7    5    9    6        0.0000150234
    7    5    7    7        0.0001063422
    7    5    8    7       -0.0000296819
    7    5    9    7       -0.0000135492
    7    5    8    8        0.0000601044
    7    5    9    8       -0.0000001021
    7    5    9    9        0.0000688851
    8    5    8    5        0.0030031758
    8    5    9    5        0.0010378733
    8    5    6    6       -0.0000171888
    8    5    7    6        0.0000094573
    8    5    8    6       -0.0000086958
    8    5    9    6       -0.0000020500
    8    5    7    7       -0.0000526004
    8    5    8    7        0.0000279156
    8    5    9    7        0.0000019625
    8    5    8    8       -0.0000134139
    8    5    9    8        0.0000053663
    8    5    9    9       -0.0000411583
    9    5    9    5        0.0022922852
    9    5    6    6       -0.0000162516
    9    5    7    6        0.0000125306
    9    5    8    6        0.0000028827
    9    5    9    6       -0.0000104288
    9    5    7    7       -0.0000343017
    9    5    8    7        0.0000061718
    9    5    9    7        0.0000139110
    9    5    8    8       -0.0000242526
    9    5    9    8       -0.0000005346
    9    5    9    9       -0.0000061945
    6    6    6    6        0.0789399675
    6    6    7    6        0.0000000056
    6    6    8    6        0.0006216386
    6    6    9    6       -0.0049601419
    6    6    7    7        0.0695101589
    6    6    8    7       -0.0000000003
    6    6    9    7       -0.0000000105
    6    6    8    8        0.0612624947
    6    6    9    8       -0.0002959466
    6    6    9    9        0.0651554735
    7    6    7    6        0.0026399507
    7    6    8    6       -0.0000000008
    7    6    9    6       -0.0000000080
    7    6    7    7       -0.0000000005
    7    6    8    7        0.0002337603
    7    6    9    7        0.0014868529
    7    6    8    8        0.0000000006
    7    6    9    8       -0.0000000013
    7    6    9    9        0.0000000028
    8    6    8    6        0.0015721308
    8    6    9    6       -0.0008981107
    8    6    7    7        0.0009484353
    8    6    8    7       -0.0000000036
    8    6    9    7       -0.0000000029
    8    6    8    8       -0.0013456964
    8    6    9    8        0.0000240317
    8    6    9    9        0.0006250586
    9    6    9    6        0.0053588946
    9    6    7    7       -0.0003847618
    9    6    8    7       -0.0000000027
    9    6    9    7        0.0000000034
    9    6    8    8        0.0015518739
    9    6    9    8       -0.0003916117
    9    6    9    9       -0.0015771995
    7    7    7    7        0.0753939932
    7    7    8    7        0.0000000015
    7    7    9    7        0.0000000034
    7    7    8    8        0.0607414021
    7    7    9    8        0.0006749640
    7    7    9    9        0.0630340545
    8    7    8    7        0.0042210804
    8    7    9    7        0.0012442254
    8    7    8    8       -0.0000000020
    8    7    9    8       -0.0000000001
    8    7    9    9        0.0000000004
    9    7    9    7        0.0026837132
    9    7    8    8        0.0000000018
    9    7    9    8       -0.0000000006
    9    7    9    9       -0.0000000022
    8    8    8    8        0.0652619801
    8    8    9    8       -0.0003656838
    8    8    9    9        0.0577157984
    9    8    9    8        0.0021466474
    9    8    9    9       -0.0003168837
    9    9    9    9        0.0651020354
 end_two_electron_integrals


 output epsi filename:./pspw_hf_LiH.emovecs

 Total PSPW energy     :  -0.6792003826E+00


=== Spin Contamination ===

 <Sexact^2> =    0.0000000000000000     
 <S^2>      =    0.0000000000000000     



== Center of Charge ==

spin up     (    0.0000,    0.0000,    3.4557 )
spin down   (    0.0000,    0.0000,    3.4557 )
     total  (    0.0000,    0.0000,    3.4557 )
ionic       (    0.0000,    0.0000,    1.4173 )


== Molecular Dipole wrt Center of Mass ==

mu   =  (   -0.0000,   -0.0000,   -4.0769 ) au
|mu| =     4.0769 au,      10.3618 Debye

 output psi filename:./pspw_hf_LiH.movecs

 Writing Crystallographic Information File:./LiH.cif
   - cell not shifted (nwpw:cif_shift_cell .false.)


== Timing ==

cputime in seconds
  prologue    :   0.892205E+02
  main loop   :   0.696756E+03
  epilogue    :   0.798421E-01
  total       :   0.786056E+03
  cputime/step:   0.355488E+01       (     196 evalulations,      83 linesearches)


Time spent doing                        total          step       percent
  total time                 :   0.786068E+03  0.401055E+01       100.0 %
  i/o time                   :   0.124542E+01  0.635416E-02         0.2 %
  FFTs                       :   0.579793E+03  0.295813E+01        73.8 %
  dot products               :   0.483051E+01  0.246454E-01         0.6 %
  geodesic                   :   0.143841E+00  0.733883E-03         0.0 %
  ffm_dgemm                  :   0.352546E-01  0.179870E-03         0.0 %
  fmf_dgemm                  :   0.596075E-01  0.304120E-03         0.0 %
  mmm_dgemm                  :   0.449889E-02  0.229535E-04         0.0 %
  m_diagonalize              :   0.186356E-02  0.950794E-05         0.0 %
  local pseudopotentials     :   0.605570E-02  0.308964E-04         0.0 %
  non-local pseudopotentials :   0.291007E+01  0.148473E-01         0.4 %
  structure factors          :   0.420519E+00  0.214550E-02         0.1 %
  phase factors              :   0.195800E-04  0.998980E-07         0.0 %
  masking and packing        :   0.973943E+01  0.496910E-01         1.2 %
  queue fft                  :   0.231108E+01  0.117912E-01         0.3 %
  queue fft (serial)         :   0.836973E+00  0.427027E-02         0.1 %
  queue fft (message passing):   0.137219E+01  0.700099E-02         0.2 %
  HFX potential              :   0.571070E+03  0.291362E+01        72.6 %
  non-local psp FFM          :   0.241262E+01  0.123093E-01         0.3 %
  non-local psp FMF          :   0.122047E+00  0.622690E-03         0.0 %
  non-local psp FFM A        :   0.214281E+00  0.109327E-02         0.0 %
  non-local psp FFM B        :   0.187088E+00  0.954530E-03         0.0 %

== HFX Counters ==
  HFX Evalulations         =   196
  Lin ACE HFX Evalulations =     0


     >>>  JOB COMPLETED     AT Sun May  4 14:33:14 2025  <<<

 Task  times  cpu:      742.8s     wall:      786.1s


                                NWChem Input Module
                                -------------------


 Summary of allocated global arrays
-----------------------------------
  No active global arrays


MA_summarize_allocated_blocks: starting scan ...
MA_summarize_allocated_blocks: scan completed: 0 heap blocks, 0 stack blocks
MA usage statistics:

	allocation statistics:
					      heap	     stack
					      ----	     -----
	current number of blocks	         0	         0
	maximum number of blocks	       315	        19
	current total bytes		         0	         0
	maximum total bytes		 124527184	  29398984
	maximum total K-bytes		    124528	     29399
	maximum total M-bytes		       125	        30


                                     CITATION
                                     --------
                Please cite the following reference when publishing
                           results obtained with NWChem:

          E. Apra, E. J. Bylaska, W. A. de Jong, N. Govind, K. Kowalski,
       T. P. Straatsma, M. Valiev, H. J. J. van Dam, Y. Alexeev, J. Anchell,
       V. Anisimov, F. W. Aquino, R. Atta-Fynn, J. Autschbach, N. P. Bauman,
     J. C. Becca, D. E. Bernholdt, K. Bhaskaran-Nair, S. Bogatko, P. Borowski,
         J. Boschen, J. Brabec, A. Bruner, E. Cauet, Y. Chen, G. N. Chuev,
      C. J. Cramer, J. Daily, M. J. O. Deegan, T. H. Dunning Jr., M. Dupuis,
   K. G. Dyall, G. I. Fann, S. A. Fischer, A. Fonari, H. Fruchtl, L. Gagliardi,
      J. Garza, N. Gawande, S. Ghosh, K. Glaesemann, A. W. Gotz, J. Hammond,
       V. Helms, E. D. Hermes, K. Hirao, S. Hirata, M. Jacquelin, L. Jensen,
   B. G. Johnson, H. Jonsson, R. A. Kendall, M. Klemm, R. Kobayashi, V. Konkov,
      S. Krishnamoorthy, M. Krishnan, Z. Lin, R. D. Lins, R. J. Littlefield,
      A. J. Logsdail, K. Lopata, W. Ma, A. V. Marenich, J. Martin del Campo,
   D. Mejia-Rodriguez, J. E. Moore, J. M. Mullin, T. Nakajima, D. R. Nascimento,
    J. A. Nichols, P. J. Nichols, J. Nieplocha, A. Otero-de-la-Roza, B. Palmer,
    A. Panyala, T. Pirojsirikul, B. Peng, R. Peverati, J. Pittner, L. Pollack,
   R. M. Richard, P. Sadayappan, G. C. Schatz, W. A. Shelton, D. W. Silverstein,
   D. M. A. Smith, T. A. Soares, D. Song, M. Swart, H. L. Taylor, G. S. Thomas,
            V. Tipparaju, D. G. Truhlar, K. Tsemekhman, T. Van Voorhis,
      A. Vazquez-Mayagoitia, P. Verma, O. Villa, A. Vishnu, K. D. Vogiatzis,
        D. Wang, J. H. Weare, M. J. Williamson, T. L. Windus, K. Wolinski,
        A. T. Wong, Q. Wu, C. Yang, Q. Yu, M. Zacharias, Z. Zhang, Y. Zhao,
                                and R. J. Harrison
                        "NWChem: Past, present, and future
                         J. Chem. Phys. 152, 184102 (2020)
                               doi:10.1063/5.0004997

                                      AUTHORS
                                      -------
  E. Apra, E. J. Bylaska, N. Govind, K. Kowalski, M. Valiev, D. Mejia-Rodriguez,
       A. Kunitsa, N. P. Bauman, A. Panyala, W. A. de Jong, T. P. Straatsma,
   H. J. J. van Dam, D. Wang, T. L. Windus, J. Hammond, J. Autschbach, A. Woods,
    K. Bhaskaran-Nair, J. Brabec, K. Lopata, S. A. Fischer, S. Krishnamoorthy,
     M. Jacquelin, W. Ma, M. Klemm, O. Villa, Y. Chen, V. Anisimov, F. Aquino,
     S. Hirata, M. T. Hackler, E. Hermes, L. Jensen, J. E. Moore, J. C. Becca,
      V. Konjkov, T. Risthaus, M. Malagoli, A. Marenich, A. Otero-de-la-Roza,
        J. Mullin, P. Nichols, R. Peverati, J. Pittner, Y. Zhao, P.-D. Fan,
        A. Fonari, M. J. Williamson, R. J. Harrison, J. R. Rehr, M. Dupuis,
     D. Silverstein, D. M. A. Smith, J. Nieplocha, V. Tipparaju, M. Krishnan,
     B. E. Van Kuiken, A. Vazquez-Mayagoitia, M. Swart, Q. Wu, T. Van Voorhis,
     A. A. Auer, M. Nooijen, L. D. Crosby, E. Brown, G. Cisneros, G. I. Fann,
   H. Fruchtl, J. Garza, K. Hirao, R. A. Kendall, J. A. Nichols, K. Tsemekhman,
    K. Wolinski, J. Anchell, D. E. Bernholdt, P. Borowski, T. Clark, D. Clerc,
   H. Dachsel, M. J. O. Deegan, K. Dyall, D. Elwood, E. Glendening, M. Gutowski,
   A. C. Hess, J. Jaffe, B. G. Johnson, J. Ju, R. Kobayashi, R. Kutteh, Z. Lin,
   R. Littlefield, X. Long, B. Meng, T. Nakajima, S. Niu, L. Pollack, M. Rosing,
   K. Glaesemann, G. Sandrone, M. Stave, H. Taylor, G. Thomas, J. H. van Lenthe,
                               A. T. Wong, Z. Zhang.

 Total times  cpu:      742.8s     wall:      786.1s
