 argument  1 = H2-2.0.nw



============================== echo of input deck ==============================
title "swnc: e theory=pspw4 xc=hf formula=H2 charge=0 mult=1"
#machinejob:expert

echo

start pspw_hf_H2

memory heap 1200 mb stack 1200 mb global 10 mb

charge 0

geometry
H    0.00000    0.00000   -1.00000
H    0.00000    0.00000    1.00000
end

nwpw
  ### pseudopotential block begin ###
  ### pseudopotential block end   ###
  simulation_cell
     SC 15.0000
     boundary_conditions aperiodic
  end

  cutoff 50.0
  mult 1
  xc hf
  lmbfgs
  tolerances 1.0e-9 1.0e-9

  virtual 4
end
set nwpw:cif_filename H2

#set nwpw:CI_maxit_orb 15
#set nwpw:CI_maxit_linesearch 15
set pspw:HFX_screening_radius 14.0


set nwpw:2qintegrals .true.
set nwpw:3x3_virtual .true.

task pspw energy
================================================================================


                                         
                                         


             Northwest Computational Chemistry Package (NWChem) 7.2.3
             --------------------------------------------------------


                    Environmental Molecular Sciences Laboratory
                       Pacific Northwest National Laboratory
                                Richland, WA 99352

                              Copyright (c) 1994-2022
                       Pacific Northwest National Laboratory
                            Battelle Memorial Institute

             NWChem is an open-source computational chemistry package
                        distributed under the terms of the
                      Educational Community License (ECL) 2.0
             A copy of the license is included with this distribution
                              in the LICENSE.TXT file

                                  ACKNOWLEDGMENT
                                  --------------

            This software and its documentation were developed at the
            EMSL at Pacific Northwest National Laboratory, a multiprogram
            national laboratory, operated for the U.S. Department of Energy
            by Battelle under Contract Number DE-AC05-76RL01830. Support
            for this work was provided by the Department of Energy Office
            of Biological and Environmental Research, Office of Basic
            Energy Sciences, and the Office of Advanced Scientific Computing.


           Job information
           ---------------

    hostname        = mqs-al
    program         = nwchem
    date            = Sat Apr  5 14:00:30 2025

    compiled        = Thu_Oct_31_08:55:15_2024
    source          = /home/conda/feedstock_root/build_artifacts/nwchem_1730356057992/work
    nwchem branch   = 7.2.3
    nwchem revision = c400b04
    ga revision     = 5.8.0
    use scalapack   = T
    input           = H2-2.0.nw
    prefix          = pspw_hf_H2.
    data base       = ./pspw_hf_H2.db
    status          = startup
    nproc           =        8
    time left       =     -1s



           Memory information
           ------------------

    heap     =  157286394 doubles =   1200.0 Mbytes
    stack    =  157286399 doubles =   1200.0 Mbytes
    global   =    1310720 doubles =     10.0 Mbytes (distinct from heap & stack)
    total    =  315883513 doubles =   2410.0 Mbytes
    verify   = yes
    hardfail = no 


           Directory information
           ---------------------

  0 permanent = .
  0 scratch   = .




                                NWChem Input Module
                                -------------------


               swnc: e theory=pspw4 xc=hf formula=H2 charge=0 mult=1
               -----------------------------------------------------

 Scaling coordinates for geometry "geometry" by  1.889725989
 (inverse scale =  0.529177249)

  zeroes
  zeroes
  zeroes
  zeroes
  zeroes
  zeroes
  zeroes
  zeroes
  zeroes
  zeroes
  zeroes
  zeroes
  zeroes
  zeroes
  zeroes
  zeroes
  zeroes
  zeroes
  zeroes
  zeroes
  zeroes
  zeroes
  zeroes
  zeroes
  zeroes
  zeroes
  zeroes
  zeroes
  zeroes
  zeroes
  zeroes
  zeroes
  zeroes
  zeroes
  zeroes
  zeroes
  zeroes
  zeroes
  zeroes
  zeroes
  zeroes
  zeroes
  zeroes
  zeroes
  zeroes
  zeroes
  zeroes
  zeroes
 ORDER OF PRIMARY AXIS IS BEING SET TO 4
 D4H symmetry detected

          ------
          auto-z
          ------
     1 autoz failed with cvr_scaling = 1.2 changing to 1.3
     2 autoz failed with cvr_scaling = 1.3 changing to 1.4
     3 autoz failed with cvr_scaling = 1.4 changing to 1.5
     4 autoz failed with cvr_scaling = 1.5 changing to 1.6
     5 autoz failed with cvr_scaling = 1.6 changing to 1.7

 AUTOZ failed to generate good internal coordinates.
 Cartesian coordinates will be used in optimizations.



                             Geometry "geometry" -> ""
                             -------------------------

 Output coordinates in angstroms (scale by  1.889725989 to convert to a.u.)

  No.       Tag          Charge          X              Y              Z
 ---- ---------------- ---------- -------------- -------------- --------------
    1 H                    1.0000     0.00000000     0.00000000    -1.00000000
    2 H                    1.0000     0.00000000     0.00000000     1.00000000

      Atomic Mass 
      ----------- 

      H                  1.007825


 Effective nuclear repulsion energy (a.u.)       0.2645886245

            Nuclear Dipole moment (a.u.) 
            ----------------------------
        X                 Y               Z
 ---------------- ---------------- ----------------
     0.0000000000     0.0000000000     0.0000000000

      Symmetry information
      --------------------

 Group name             D4h       
 Group number             28
 Group order              16
 No. of unique centers     1

      Symmetry unique atoms

     1


            XYZ format geometry
            -------------------
     2
 geometry
 H                     0.00000000     0.00000000    -1.00000000
 H                     0.00000000     0.00000000     1.00000000

          ****************************************************
          *                                                  *
          *               NWPW PSPW Calculation              *
          *                                                  *
          * [ (Grassmann/Stiefel manifold implementation)  ] *
          *                                                  *
          *      [ NorthWest Chemistry implementation ]      *
          *                                                  *
          *            version #5.10   06/12/02              *
          *                                                  *
          *    This code was developed by Eric J. Bylaska,   *
          *    and was based upon algorithms and code        *
          *    developed by the group of Prof. John H. Weare *
          *                                                  *
          ****************************************************
     >>>  JOB STARTED       AT Sat Apr  5 14:00:30 2025  <<<
          ================ input data ========================

 input psi filename:./pspw_hf_H2.movecs

 number of processors used:         8
 processor grid           :   8 x   1
 parallel mapping         :2d-hilbert
 parallel mapping         :  balanced
 number of threads        :         1
 parallel io              :       off

 options:
      boundary conditions  = aperiodic   (version4)
      electron spin        = restricted
      exchange-correlation = Hartree-Fock
      - HFX relaxed
      - HFX restricted orbitals :    1
      - HFX free-space coulomb solver


 elements involved in the cluster:
      1: H   valence charge:  1.0000  lmax=  1
             comment    : Parameterized (Chem.Phys.Lett., vol 322, page 447) Hamman psp
             pseudpotential type            :   0
             highest angular component      :   1
             local potential used           :   1
             number of non-local projections:   1
             aperiodic cutoff radius        :  1.000
             cutoff =   0.800   0.800


 total charge:   0.000

 atomic composition:
     H   :    2

 number of electrons: spin up=     1 (   1 per task)  down=     1 (   1 per task) (Fourier space)
 number of orbitals : spin up=     1 (   1 per task)  down=     1 (   1 per task) (Fourier space)

 supercell:
      cell_name:  cell_default                                      
      lattice:    a1=<  15.000   0.000   0.000 >
                  a2=<   0.000  15.000   0.000 >
                  a3=<   0.000   0.000  15.000 >
      reciprocal: b1=<   0.419   0.000   0.000 >
                  b2=<   0.000   0.419   0.000 >
                  b3=<   0.000   0.000   0.419 >
      lattice:    a=      15.000 b=     15.000 c=      15.000
                  alpha=  90.000 beta=  90.000 gamma=  90.000
                  omega=      3375.0

      density cutoff=100.000  fft= 70x 70x 70(    80618 waves    10077 per task)
      wavefnc cutoff= 50.000  fft= 70x 70x 70(    28526 waves     3565 per task)

 technical parameters:
      time step=      5.80     fictitious mass=  400000.0
      tolerance=0.100E-08 (energy)   0.100E-08 (density)
      maximum iterations =      1000 (   10 inner    100 outer )





== Energy Calculation ==


          ============ Grassmann lmbfgs iteration ============
     >>>  ITERATION STARTED AT Sat Apr  5 14:00:35 2025  <<<
    iter.           Energy         DeltaE       DeltaRho 
    ------------------------------------------------------
      10   -0.9222995116E+00   -0.14169E-02    0.12124E-01
     -  10 steepest descent iterations performed
      20   -0.9258003896E+00   -0.60044E-04    0.41744E-04
      30   -0.9259292879E+00   -0.32586E-05    0.22546E-05
      40   -0.9259371830E+00   -0.11391E-06    0.10909E-06
      50   -0.9259375661E+00   -0.59916E-08    0.61514E-09
      60   -0.9259375833E+00   -0.73452E-09    0.51692E-10
  *** tolerance ok. iteration terminated
     >>>  ITERATION ENDED   AT Sat Apr  5 14:00:50 2025  <<<


==  Summary Of Results  ==

 number of electrons: spin up=    1.00000  down=    1.00000 (real space)

 total     energy    :  -0.9259375833E+00 (   -0.46297E+00/ion)
 total orbital energy:  -0.7793360348E+00 (   -0.77934E+00/electron)
 hartree   energy    :   0.8223803459E+00 (    0.82238E+00/electron)
 exc-corr  energy    :   0.0000000000E+00 (    0.00000E+00/electron)
 HF exchange energy  :  -0.4111901730E+00 (   -0.41119E+00/electron)
 ion-ion   energy    :   0.2645886245E+00 (    0.13229E+00/ion)

 kinetic (planewave) :   0.6284987493E+00 (    0.62850E+00/electron)
 V_local (planewave) :  -0.2076685384E+01 (   -0.20767E+01/electron)
 V_nl    (planewave) :  -0.1535297457E+00 (   -0.15353E+00/electron)
 V_Coul  (planewave) :   0.1644760692E+01 (    0.16448E+01/electron)
 V_xc.   (planewave) :   0.0000000000E+00 (    0.00000E+00/electron)
 K.S. HFX energy     :  -0.8223803459E+00 (   -0.82238E+00/electron)
 Virial Coefficient  :  -0.9315124952E+00

 orbital energies:
    -0.3896680E+00 ( -10.603eV)


== Virtual Orbital Calculation ==


 input epsi filename:./pspw_hf_H2.emovecs

 COVOs Mimimization
 ------------------
CI gradient algorithm =         3
maxit_sweeps          =         3
maxit_orb             =       120
maxit_linesearch      =        15
maxerror              = 0.100E-08

     orb,it,eci,eold,eci-eold=                    1                    1 -0.98525913364664364      -0.97479633365000495       -1.0462799996638683E-002 F
     orb,it,eci,eold,eci-eold=                    1                    2 -0.98971492514686132      -0.98525913364664364       -4.4557915002176873E-003 F
     orb,it,eci,eold,eci-eold=                    1                    3 -0.99338593752794857      -0.98971492514686132       -3.6710123810872464E-003 F
     orb,it,eci,eold,eci-eold=                    1                    4 -0.99542044071052604      -0.99338593752794857       -2.0345031825774740E-003 F
     orb,it,eci,eold,eci-eold=                    1                    5 -0.99788554356232806      -0.99542044071052604       -2.4651028518020146E-003 F
     orb,it,eci,eold,eci-eold=                    1                    6 -0.99916832700059866      -0.99788554356232806       -1.2827834382705960E-003 F
     orb,it,eci,eold,eci-eold=                    1                    7 -0.99983326342417111      -0.99916832700059866       -6.6493642357245974E-004 F
     orb,it,eci,eold,eci-eold=                    1                    8 -0.99986649886396539      -0.99983326342417111       -3.3235439794276900E-005 F
     orb,it,eci,eold,eci-eold=                    1                    9  -1.0008002138178587      -0.99986649886396539       -9.3371495389327208E-004 F
     orb,it,eci,eold,eci-eold=                    1                   10  -1.0017514510902592       -1.0008002138178587       -9.5123727240054023E-004 F
     orb,it,eci,eold,eci-eold=                    1                   11  -1.0023139540989869       -1.0017514510902592       -5.6250300872773273E-004 F
     orb,it,eci,eold,eci-eold=                    1                   12  -1.0029673610477208       -1.0023139540989869       -6.5340694873383676E-004 F
     orb,it,eci,eold,eci-eold=                    1                   13  -1.0032595574656233       -1.0029673610477208       -2.9219641790256823E-004 F
     orb,it,eci,eold,eci-eold=                    1                   14  -1.0039353865473564       -1.0032595574656233       -6.7582908173302592E-004 F
     orb,it,eci,eold,eci-eold=                    1                   15  -1.0042022369708727       -1.0039353865473564       -2.6685042351637378E-004 F
     orb,it,eci,eold,eci-eold=                    1                   16  -1.0043580664850005       -1.0042022369708727       -1.5582951412773660E-004 F
     orb,it,eci,eold,eci-eold=                    1                   17  -1.0047444664544913       -1.0043580664850005       -3.8639996949085820E-004 F
     orb,it,eci,eold,eci-eold=                    1                   18  -1.0050279238933850       -1.0047444664544913       -2.8345743889368613E-004 F
     orb,it,eci,eold,eci-eold=                    1                   19  -1.0055008906220466       -1.0050279238933850       -4.7296672866159462E-004 F
     orb,it,eci,eold,eci-eold=                    1                   20  -1.0055984105244904       -1.0055008906220466       -9.7519902443776729E-005 F
     orb,it,eci,eold,eci-eold=                    1                   21  -1.0056625661981593       -1.0055984105244904       -6.4155673668908619E-005 F
     orb,it,eci,eold,eci-eold=                    1                   22  -1.0058929714785942       -1.0056625661981593       -2.3040528043494213E-004 F
     orb,it,eci,eold,eci-eold=                    1                   23  -1.0058996021536781       -1.0058929714785942       -6.6306750838851514E-006 F
     orb,it,eci,eold,eci-eold=                    1                   24  -1.0059294365653544       -1.0058996021536781       -2.9834411676255002E-005 F
     orb,it,eci,eold,eci-eold=                    1                   25  -1.0062098250941796       -1.0059294365653544       -2.8038852882517062E-004 F
     orb,it,eci,eold,eci-eold=                    1                   26  -1.0063915212558181       -1.0062098250941796       -1.8169616163854485E-004 F
     orb,it,eci,eold,eci-eold=                    1                   27  -1.0064334482886095       -1.0063915212558181       -4.1927032791377883E-005 F
     orb,it,eci,eold,eci-eold=                    1                   28  -1.0065633468812369       -1.0064334482886095       -1.2989859262746428E-004 F
     orb,it,eci,eold,eci-eold=                    1                   29  -1.0066082104244889       -1.0065633468812369       -4.4863543251949523E-005 F
     orb,it,eci,eold,eci-eold=                    1                   30  -1.0066655065573502       -1.0066082104244889       -5.7296132861317517E-005 F
     orb,it,eci,eold,eci-eold=                    1                   31  -1.0068521264747694       -1.0066655065573502       -1.8661991741919515E-004 F
     orb,it,eci,eold,eci-eold=                    1                   32  -1.0068985509160351       -1.0068521264747694       -4.6424441265680016E-005 F
     orb,it,eci,eold,eci-eold=                    1                   33  -1.0069069874501064       -1.0068985509160351       -8.4365340713432602E-006 F
     orb,it,eci,eold,eci-eold=                    1                   34  -1.0070033406410535       -1.0069069874501064       -9.6353190947029432E-005 F
     orb,it,eci,eold,eci-eold=                    1                   35  -1.0070630063206401       -1.0070033406410535       -5.9665679586595743E-005 F
     orb,it,eci,eold,eci-eold=                    1                   36  -1.0071054322847985       -1.0070630063206401       -4.2425964158487872E-005 F
     orb,it,eci,eold,eci-eold=                    1                   37  -1.0072230224528631       -1.0071054322847985       -1.1759016806456302E-004 F
     orb,it,eci,eold,eci-eold=                    1                   38  -1.0072326976880144       -1.0072230224528631       -9.6752351512741086E-006 F
     orb,it,eci,eold,eci-eold=                    1                   39  -1.0072426539846695       -1.0072326976880144       -9.9562966551225429E-006 F
     orb,it,eci,eold,eci-eold=                    1                   40  -1.0073527595787166       -1.0072426539846695       -1.1010559404711628E-004 F
     orb,it,eci,eold,eci-eold=                    1                   41  -1.0074141418971716       -1.0073527595787166       -6.1382318454983320E-005 F
     orb,it,eci,eold,eci-eold=                    1                   42  -1.0074826085936264       -1.0074141418971716       -6.8466696454771991E-005 F
     orb,it,eci,eold,eci-eold=                    1                   43  -1.0074836225528807       -1.0074826085936264       -1.0139592543367826E-006 F
     orb,it,eci,eold,eci-eold=                    1                   44  -1.0074931492463348       -1.0074836225528807       -9.5266934541093917E-006 F
     orb,it,eci,eold,eci-eold=                    1                   45  -1.0075415304055058       -1.0074931492463348       -4.8381159170940435E-005 F
     orb,it,eci,eold,eci-eold=                    1                   46  -1.0075608250376276       -1.0075415304055058       -1.9294632121802380E-005 F
     orb,it,eci,eold,eci-eold=                    1                   47  -1.0075697319444610       -1.0075608250376276       -8.9069068334168833E-006 F
     orb,it,eci,eold,eci-eold=                    1                   48  -1.0076102034659973       -1.0075697319444610       -4.0471521536300514E-005 F
     orb,it,eci,eold,eci-eold=                    1                   49  -1.0076338765297335       -1.0076102034659973       -2.3673063736184830E-005 F
     orb,it,eci,eold,eci-eold=                    1                   50  -1.0076483008279491       -1.0076338765297335       -1.4424298215631737E-005 F
     orb,it,eci,eold,eci-eold=                    1                   51  -1.0076936497585363       -1.0076483008279491       -4.5348930587163494E-005 F
     orb,it,eci,eold,eci-eold=                    1                   52  -1.0076961786520200       -1.0076936497585363       -2.5288934837330856E-006 F
     orb,it,eci,eold,eci-eold=                    1                   53  -1.0076978083300814       -1.0076961786520200       -1.6296780613878070E-006 F
     orb,it,eci,eold,eci-eold=                    1                   54  -1.0077358239753189       -1.0076978083300814       -3.8015645237532425E-005 F
     orb,it,eci,eold,eci-eold=                    1                   55  -1.0077490462056629       -1.0077358239753189       -1.3222230343945540E-005 F
     orb,it,eci,eold,eci-eold=                    1                   56  -1.0077509540167084       -1.0077490462056629       -1.9078110455872377E-006 F
     orb,it,eci,eold,eci-eold=                    1                   57  -1.0077739009834066       -1.0077509540167084       -2.2946966698134119E-005 F
     orb,it,eci,eold,eci-eold=                    1                   58  -1.0077868928783653       -1.0077739009834066       -1.2991894958735983E-005 F
     orb,it,eci,eold,eci-eold=                    1                   59  -1.0077910900751852       -1.0077868928783653       -4.1971968198772913E-006 F
     orb,it,eci,eold,eci-eold=                    1                   60  -1.0078092447706675       -1.0077910900751852       -1.8154695482275329E-005 F
     orb,it,eci,eold,eci-eold=                    1                   61  -1.0078182087074627       -1.0078092447706675       -8.9639367952809579E-006 F
     orb,it,eci,eold,eci-eold=                    1                   62  -1.0078233008916331       -1.0078182087074627       -5.0921841703299719E-006 F
     orb,it,eci,eold,eci-eold=                    1                   63  -1.0078433192541840       -1.0078233008916331       -2.0018362550944246E-005 F
     orb,it,eci,eold,eci-eold=                    1                   64  -1.0078496091976925       -1.0078433192541840       -6.2899435084862176E-006 F
     orb,it,eci,eold,eci-eold=                    1                   65  -1.0078500088496090       -1.0078496091976925       -3.9965191644952824E-007 F
     orb,it,eci,eold,eci-eold=                    1                   66  -1.0078621228323790       -1.0078500088496090       -1.2113982770012299E-005 F
     orb,it,eci,eold,eci-eold=                    1                   67  -1.0078735221833239       -1.0078621228323790       -1.1399350944962805E-005 F
     orb,it,eci,eold,eci-eold=                    1                   68  -1.0078799755635353       -1.0078735221833239       -6.4533802113242444E-006 F
     orb,it,eci,eold,eci-eold=                    1                   69  -1.0078951839652819       -1.0078799755635353       -1.5208401746624745E-005 F
     orb,it,eci,eold,eci-eold=                    1                   70  -1.0078997692606142       -1.0078951839652819       -4.5852953323155532E-006 F
     orb,it,eci,eold,eci-eold=                    1                   71  -1.0079017443731177       -1.0078997692606142       -1.9751125035494255E-006 F
     orb,it,eci,eold,eci-eold=                    1                   72  -1.0079114443282142       -1.0079017443731177       -9.6999550964760317E-006 F
     orb,it,eci,eold,eci-eold=                    1                   73  -1.0079145277242230       -1.0079114443282142       -3.0833960087406354E-006 F
     orb,it,eci,eold,eci-eold=                    1                   74  -1.0079158863978961       -1.0079145277242230       -1.3586736731241444E-006 F
     orb,it,eci,eold,eci-eold=                    1                   75  -1.0079246119902858       -1.0079158863978961       -8.7255923897355814E-006 F
     orb,it,eci,eold,eci-eold=                    1                   76  -1.0079289144849446       -1.0079246119902858       -4.3024946587699731E-006 F
     orb,it,eci,eold,eci-eold=                    1                   77  -1.0079303099490546       -1.0079289144849446       -1.3954641100433207E-006 F
     orb,it,eci,eold,eci-eold=                    1                   78  -1.0079372252968581       -1.0079303099490546       -6.9153478035044458E-006 F
     orb,it,eci,eold,eci-eold=                    1                   79  -1.0079398524933676       -1.0079372252968581       -2.6271965094526450E-006 F
     orb,it,eci,eold,eci-eold=                    1                   80  -1.0079406365873971       -1.0079398524933676       -7.8409402948231843E-007 F
     orb,it,eci,eold,eci-eold=                    1                   81  -1.0079463852461072       -1.0079406365873971       -5.7486587101696074E-006 F
     orb,it,eci,eold,eci-eold=                    1                   82  -1.0079501788873828       -1.0079463852461072       -3.7936412755623650E-006 F
     orb,it,eci,eold,eci-eold=                    1                   83  -1.0079517243374916       -1.0079501788873828       -1.5454501087752703E-006 F
     orb,it,eci,eold,eci-eold=                    1                   84  -1.0079567653993591       -1.0079517243374916       -5.0410618674945340E-006 F
     orb,it,eci,eold,eci-eold=                    1                   85  -1.0079585879900177       -1.0079567653993591       -1.8225906586177842E-006 F
     orb,it,eci,eold,eci-eold=                    1                   86  -1.0079592897933034       -1.0079585879900177       -7.0180328570756956E-007 F
     orb,it,eci,eold,eci-eold=                    1                   87  -1.0079632004029548       -1.0079592897933034       -3.9106096514363031E-006 F
     orb,it,eci,eold,eci-eold=                    1                   88  -1.0079658407507335       -1.0079632004029548       -2.6403477786374197E-006 F
     orb,it,eci,eold,eci-eold=                    1                   89  -1.0079673022605971       -1.0079658407507335       -1.4615098635761825E-006 F
     orb,it,eci,eold,eci-eold=                    1                   90  -1.0079712637438598       -1.0079673022605971       -3.9614832627599128E-006 F
     orb,it,eci,eold,eci-eold=                    1                   91  -1.0079718055996141       -1.0079712637438598       -5.4185575426579646E-007 F
     orb,it,eci,eold,eci-eold=                    1                   92  -1.0079718761214533       -1.0079718055996141       -7.0521839257153829E-008 F
     orb,it,eci,eold,eci-eold=                    1                   93  -1.0079745637239741       -1.0079718761214533       -2.6876025207567267E-006 F
     orb,it,eci,eold,eci-eold=                    1                   94  -1.0079764074887227       -1.0079745637239741       -1.8437647486546638E-006 F
     orb,it,eci,eold,eci-eold=                    1                   95  -1.0079771141791993       -1.0079764074887227       -7.0669047658178386E-007 F
     orb,it,eci,eold,eci-eold=                    1                   96  -1.0079796402180952       -1.0079771141791993       -2.5260388958336932E-006 F
     orb,it,eci,eold,eci-eold=                    1                   97  -1.0079804888439656       -1.0079796402180952       -8.4862587046430349E-007 F
     orb,it,eci,eold,eci-eold=                    1                   98  -1.0079806973303262       -1.0079804888439656       -2.0848636061998604E-007 F
     orb,it,eci,eold,eci-eold=                    1                   99  -1.0079824565843087       -1.0079806973303262       -1.7592539824917708E-006 F
     orb,it,eci,eold,eci-eold=                    1                  100  -1.0079836663872885       -1.0079824565843087       -1.2098029797957821E-006 F
     orb,it,eci,eold,eci-eold=                    1                  101  -1.0079842875006995       -1.0079836663872885       -6.2111341092574435E-007 F
     orb,it,eci,eold,eci-eold=                    1                  102  -1.0079861635710259       -1.0079842875006995       -1.8760703264231182E-006 F
     orb,it,eci,eold,eci-eold=                    1                  103  -1.0079868995780816       -1.0079861635710259       -7.3600705574605740E-007 F
     orb,it,eci,eold,eci-eold=                    1                  104  -1.0079872203042408       -1.0079868995780816       -3.2072615918643521E-007 F
     orb,it,eci,eold,eci-eold=                    1                  105  -1.0079886539090472       -1.0079872203042408       -1.4336048064222950E-006 F
     orb,it,eci,eold,eci-eold=                    1                  106  -1.0079891235551468       -1.0079886539090472       -4.6964609956567926E-007 F
     orb,it,eci,eold,eci-eold=                    1                  107  -1.0079892612698256       -1.0079891235551468       -1.3771467877177201E-007 F
     orb,it,eci,eold,eci-eold=                    1                  108  -1.0079903717327294       -1.0079892612698256       -1.1104629038527492E-006 F
     orb,it,eci,eold,eci-eold=                    1                  109  -1.0079910037872188       -1.0079903717327294       -6.3205448941339171E-007 F
     orb,it,eci,eold,eci-eold=                    1                  110  -1.0079912439550793       -1.0079910037872188       -2.4016786048797201E-007 F
     orb,it,eci,eold,eci-eold=                    1                  111  -1.0079922135948043       -1.0079912439550793       -9.6963972495700546E-007 F
     orb,it,eci,eold,eci-eold=                    1                  112  -1.0079926423250483       -1.0079922135948043       -4.2873024397316328E-007 F
     orb,it,eci,eold,eci-eold=                    1                  113  -1.0079928146720176       -1.0079926423250483       -1.7234696936263560E-007 F
     orb,it,eci,eold,eci-eold=                    1                  114  -1.0079936323696055       -1.0079928146720176       -8.1769758786265356E-007 F
     orb,it,eci,eold,eci-eold=                    1                  115  -1.0079940949849182       -1.0079936323696055       -4.6261531272406842E-007 F
     orb,it,eci,eold,eci-eold=                    1                  116  -1.0079943141547965       -1.0079940949849182       -2.1916987824610601E-007 F
     orb,it,eci,eold,eci-eold=                    1                  117  -1.0079950593764457       -1.0079943141547965       -7.4522164927870449E-007 F
     orb,it,eci,eold,eci-eold=                    1                  118  -1.0079952644049235       -1.0079950593764457       -2.0502847775105693E-007 F
     orb,it,eci,eold,eci-eold=                    1                  119  -1.0079953209112622       -1.0079952644049235       -5.6506338719231053E-008 F
     orb,it,eci,eold,eci-eold=                    1                  120  -1.0079958764596684       -1.0079953209112622       -5.5554840616700574E-007 F
     orb,it,eci,eold,eci-eold=                    1                  121  -1.0079962091470116       -1.0079958764596684       -3.3268734322966509E-007 F
     orbital   1 current e= -0.129130E-01 error=0.158E+00 (eci= -0.100799621E+01 error=0.333E-06) iterations 121(   0 preconditioned, Ep,Sp= 20.0  200.0)
     orb,it,eci,eold,eci-eold=                    1                    1  -1.0079976434127276       -1.0079962091470116       -1.4342657159716055E-006 F
     orb,it,eci,eold,eci-eold=                    1                    2  -1.0079978324944143       -1.0079976434127276       -1.8908168675224601E-007 F
     orb,it,eci,eold,eci-eold=                    1                    3  -1.0079980034100990       -1.0079978324944143       -1.7091568471627738E-007 F
     orb,it,eci,eold,eci-eold=                    1                    4  -1.0079985930221229       -1.0079980034100990       -5.8961202387131095E-007 F
     orb,it,eci,eold,eci-eold=                    1                    5  -1.0079991708057365       -1.0079985930221229       -5.7778361362004205E-007 F
     orb,it,eci,eold,eci-eold=                    1                    6  -1.0079995545104048       -1.0079991708057365       -3.8370466826087579E-007 F
     orb,it,eci,eold,eci-eold=                    1                    7  -1.0079999473185091       -1.0079995545104048       -3.9280810426589596E-007 F
     orb,it,eci,eold,eci-eold=                    1                    8  -1.0080001342072127       -1.0079999473185091       -1.8688870362382204E-007 F
     orb,it,eci,eold,eci-eold=                    1                    9  -1.0080003707307157       -1.0080001342072127       -2.3652350300551461E-007 F
     orb,it,eci,eold,eci-eold=                    1                   10  -1.0080005167366584       -1.0080003707307157       -1.4600594266944711E-007 F
     orb,it,eci,eold,eci-eold=                    1                   11  -1.0080006804098032       -1.0080005167366584       -1.6367314481513517E-007 F
     orb,it,eci,eold,eci-eold=                    1                   12  -1.0080007553431110       -1.0080006804098032       -7.4933307780966629E-008 F
     orb,it,eci,eold,eci-eold=                    1                   13  -1.0080008288624716       -1.0080007553431110       -7.3519360599405559E-008 F
     orb,it,eci,eold,eci-eold=                    1                   14  -1.0080008723444269       -1.0080008288624716       -4.3481955369628622E-008 F
     orb,it,eci,eold,eci-eold=                    1                   15  -1.0080009076486767       -1.0080008723444269       -3.5304249745848892E-008 F
     orb,it,eci,eold,eci-eold=                    1                   16  -1.0080009237206113       -1.0080009076486767       -1.6071934672012844E-008 F
     orb,it,eci,eold,eci-eold=                    1                   17  -1.0080009533012246       -1.0080009237206113       -2.9580613292168323E-008 F
     orb,it,eci,eold,eci-eold=                    1                   18  -1.0080009711445770       -1.0080009533012246       -1.7843352351221142E-008 F
     orb,it,eci,eold,eci-eold=                    1                   19  -1.0080009874739397       -1.0080009711445770       -1.6329362750866494E-008 F
     orb,it,eci,eold,eci-eold=                    1                   20  -1.0080009956138014       -1.0080009874739397       -8.1398616735839369E-009 F
     orb,it,eci,eold,eci-eold=                    1                   21  -1.0080010026446875       -1.0080009956138014       -7.0308860955492491E-009 F
     orb,it,eci,eold,eci-eold=                    1                   22  -1.0080010060876172       -1.0080010026446875       -3.4429297190996522E-009 F
     orb,it,eci,eold,eci-eold=                    1                   23  -1.0080010119857938       -1.0080010060876172       -5.8981766137833347E-009 F
     orb,it,eci,eold,eci-eold=                    1                   24  -1.0080010119857938       -1.0080010119857938        0.0000000000000000      F
     orbital   1 current e= -0.129578E-01 error=0.448E-04 (eci= -0.100800101E+01 error=0.000E+00) iterations  24(   0 preconditioned, Ep,Sp= 20.0  200.0)
     orb,it,eci,eold,eci-eold=                    1                    1  -1.0080010177652778       -1.0080010115487679       -6.2165099734556861E-009 F
     orb,it,eci,eold,eci-eold=                    1                    2  -1.0080010178008112       -1.0080010177652778       -3.5533354036942910E-011 F
     orbital   1 current e= -0.129581E-01 error=0.275E-06 (eci= -0.100800102E+01 error=0.355E-10) iterations   2(   0 preconditioned, Ep,Sp= 20.0  200.0)
     orb,it,eci,eold,eci-eold=                    2                    1 -0.92915731534892720      -0.92886924785515013       -2.8806749377707774E-004 F
     orb,it,eci,eold,eci-eold=                    2                    2 -0.92921209758879963      -0.92915731534892720       -5.4782239872430694E-005 F
     orb,it,eci,eold,eci-eold=                    2                    3 -0.92924949424016356      -0.92921209758879963       -3.7396651363930111E-005 F
     orb,it,eci,eold,eci-eold=                    2                    4 -0.92925394069950829      -0.92924949424016356       -4.4464593447202105E-006 F
     orb,it,eci,eold,eci-eold=                    2                    5 -0.92933576331910328      -0.92925394069950829       -8.1822619594995594E-005 F
     orb,it,eci,eold,eci-eold=                    2                    6 -0.92939027620050507      -0.92933576331910328       -5.4512881401791446E-005 F
     orb,it,eci,eold,eci-eold=                    2                    7 -0.92941417081292221      -0.92939027620050507       -2.3894612417141303E-005 F
     orb,it,eci,eold,eci-eold=                    2                    8 -0.92942254898339982      -0.92941417081292221       -8.3781704776075827E-006 F
     orb,it,eci,eold,eci-eold=                    2                    9 -0.92946756707436806      -0.92942254898339982       -4.5018090968240720E-005 F
     orb,it,eci,eold,eci-eold=                    2                   10 -0.92947785752930112      -0.92946756707436806       -1.0290454933059578E-005 F
     orb,it,eci,eold,eci-eold=                    2                   11 -0.92948161707866639      -0.92947785752930112       -3.7595493652675671E-006 F
     orb,it,eci,eold,eci-eold=                    2                   12 -0.92951626268505927      -0.92948161707866639       -3.4645606392880168E-005 F
     orb,it,eci,eold,eci-eold=                    2                   13 -0.92953411304266909      -0.92951626268505927       -1.7850357609816569E-005 F
     orb,it,eci,eold,eci-eold=                    2                   14 -0.92955338660860343      -0.92953411304266909       -1.9273565934341264E-005 F
     orb,it,eci,eold,eci-eold=                    2                   15 -0.92956466035420582      -0.92955338660860343       -1.1273745602391472E-005 F
     orb,it,eci,eold,eci-eold=                    2                   16 -0.92958347872119318      -0.92956466035420582       -1.8818366987360946E-005 F
     orb,it,eci,eold,eci-eold=                    2                   17 -0.92959442595049069      -0.92958347872119318       -1.0947229297508798E-005 F
     orb,it,eci,eold,eci-eold=                    2                   18 -0.92960743971795146      -0.92959442595049069       -1.3013767460767767E-005 F
     orb,it,eci,eold,eci-eold=                    2                   19 -0.92961463473922457      -0.92960743971795146       -7.1950212731097807E-006 F
     orb,it,eci,eold,eci-eold=                    2                   20 -0.92962616217534899      -0.92961463473922457       -1.1527436124425527E-005 F
     orb,it,eci,eold,eci-eold=                    2                   21 -0.92963283729685475      -0.92962616217534899       -6.6751215057614388E-006 F
     orb,it,eci,eold,eci-eold=                    2                   22 -0.92964074552516640      -0.92963283729685475       -7.9082283116482799E-006 F
     orb,it,eci,eold,eci-eold=                    2                   23 -0.92964476797478768      -0.92964074552516640       -4.0224496212770688E-006 F
     orb,it,eci,eold,eci-eold=                    2                   24 -0.92965111367618780      -0.92964476797478768       -6.3457014001233603E-006 F
     orb,it,eci,eold,eci-eold=                    2                   25 -0.92965481639884595      -0.92965111367618780       -3.7027226581498596E-006 F
     orb,it,eci,eold,eci-eold=                    2                   26 -0.92965917321743641      -0.92965481639884595       -4.3568185904563350E-006 F
     orb,it,eci,eold,eci-eold=                    2                   27 -0.92966151776528405      -0.92965917321743641       -2.3445478476435966E-006 F
     orb,it,eci,eold,eci-eold=                    2                   28 -0.92966506252806780      -0.92966151776528405       -3.5447627837470463E-006 F
     orb,it,eci,eold,eci-eold=                    2                   29 -0.92966704440697023      -0.92966506252806780       -1.9818789024350636E-006 F
     orb,it,eci,eold,eci-eold=                    2                   30 -0.92966940206547322      -0.92966704440697023       -2.3576585029827513E-006 F
     orb,it,eci,eold,eci-eold=                    2                   31 -0.92967064652273568      -0.92966940206547322       -1.2444572624614736E-006 F
     orb,it,eci,eold,eci-eold=                    2                   32 -0.92967258107224682      -0.92967064652273568       -1.9345495111400268E-006 F
     orb,it,eci,eold,eci-eold=                    2                   33 -0.92967369206413675      -0.92967258107224682       -1.1109918899299132E-006 F
     orb,it,eci,eold,eci-eold=                    2                   34 -0.92967504471292095      -0.92967369206413675       -1.3526487842030477E-006 F
     orb,it,eci,eold,eci-eold=                    2                   35 -0.92967576433090260      -0.92967504471292095       -7.1961798164821289E-007 F
     orb,it,eci,eold,eci-eold=                    2                   36 -0.92967687251536224      -0.92967576433090260       -1.1081844596416701E-006 F
     orb,it,eci,eold,eci-eold=                    2                   37 -0.92967749971559310      -0.92967687251536224       -6.2720023086271226E-007 F
     orb,it,eci,eold,eci-eold=                    2                   38 -0.92967826120033370      -0.92967749971559310       -7.6148474059678506E-007 F
     orb,it,eci,eold,eci-eold=                    2                   39 -0.92967867407853488      -0.92967826120033370       -4.1287820118363072E-007 F
     orb,it,eci,eold,eci-eold=                    2                   40 -0.92967931249901192      -0.92967867407853488       -6.3842047703932536E-007 F
     orb,it,eci,eold,eci-eold=                    2                   41 -0.92967967404174434      -0.92967931249901192       -3.6154273241884027E-007 F
     orb,it,eci,eold,eci-eold=                    2                   42 -0.92968013362495450      -0.92967967404174434       -4.5958321015504566E-007 F
     orb,it,eci,eold,eci-eold=                    2                   43 -0.92968038131061415      -0.92968013362495450       -2.4768565964894407E-007 F
     orb,it,eci,eold,eci-eold=                    2                   44 -0.92968075724539612      -0.92968038131061415       -3.7593478197095465E-007 F
     orb,it,eci,eold,eci-eold=                    2                   45 -0.92968096583162929      -0.92968075724539612       -2.0858623317465685E-007 F
     orb,it,eci,eold,eci-eold=                    2                   46 -0.92968121344029797      -0.92968096583162929       -2.4760866867978848E-007 F
     orb,it,eci,eold,eci-eold=                    2                   47 -0.92968134096516708      -0.92968121344029797       -1.2752486910905247E-007 F
     orb,it,eci,eold,eci-eold=                    2                   48 -0.92968153972750345      -0.92968134096516708       -1.9876233636750840E-007 F
     orb,it,eci,eold,eci-eold=                    2                   49 -0.92968165676508074      -0.92968153972750345       -1.1703757729630837E-007 F
     orb,it,eci,eold,eci-eold=                    2                   50 -0.92968181121584226      -0.92968165676508074       -1.5445076151365811E-007 F
     orb,it,eci,eold,eci-eold=                    2                   51 -0.92968181512119930      -0.92968181121584226       -3.9053570377589608E-009 F
     orb,it,eci,eold,eci-eold=                    2                   52 -0.92968185736379783      -0.92968181512119930       -4.2242598530251030E-008 F
     orb,it,eci,eold,eci-eold=                    2                   53 -0.92968199587492295      -0.92968185736379783       -1.3851112512508479E-007 F
     orb,it,eci,eold,eci-eold=                    2                   54 -0.92968200036950588      -0.92968199587492295       -4.4945829280607086E-009 F
     orb,it,eci,eold,eci-eold=                    2                   55 -0.92968200417562308      -0.92968200036950588       -3.8061171991898846E-009 F
     orb,it,eci,eold,eci-eold=                    2                   56 -0.92968211902007303      -0.92968200417562308       -1.1484444994991350E-007 F
     orb,it,eci,eold,eci-eold=                    2                   57 -0.92968218417736204      -0.92968211902007303       -6.5157289008688224E-008 F
     orb,it,eci,eold,eci-eold=                    2                   58 -0.92968219895275217      -0.92968218417736204       -1.4775390133614508E-008 F
     orb,it,eci,eold,eci-eold=                    2                   59 -0.92968227807189252      -0.92968219895275217       -7.9119140350414341E-008 F
     orb,it,eci,eold,eci-eold=                    2                   60 -0.92968230956871167      -0.92968227807189252       -3.1496819152820876E-008 F
     orb,it,eci,eold,eci-eold=                    2                   61 -0.92968232438555443      -0.92968230956871167       -1.4816842752729542E-008 F
     orb,it,eci,eold,eci-eold=                    2                   62 -0.92968238636998057      -0.92968232438555443       -6.1984426147354554E-008 F
     orb,it,eci,eold,eci-eold=                    2                   63 -0.92968240559862259      -0.92968238636998057       -1.9228642011981378E-008 F
     orb,it,eci,eold,eci-eold=                    2                   64 -0.92968241874766611      -0.92968240559862259       -1.3149043520677139E-008 F
     orb,it,eci,eold,eci-eold=                    2                   65 -0.92968248401286413      -0.92968241874766611       -6.5265198023745086E-008 F
     orb,it,eci,eold,eci-eold=                    2                   66 -0.92968251452242190      -0.92968248401286413       -3.0509557769065054E-008 F
     orb,it,eci,eold,eci-eold=                    2                   67 -0.92968252703210230      -0.92968251452242190       -1.2509680402672529E-008 F
     orb,it,eci,eold,eci-eold=                    2                   68 -0.92968257976464130      -0.92968252703210230       -5.2732539002064982E-008 F
     orb,it,eci,eold,eci-eold=                    2                   69 -0.92968259395091768      -0.92968257976464130       -1.4186276375838247E-008 F
     orb,it,eci,eold,eci-eold=                    2                   70 -0.92968259936112618      -0.92968259395091768       -5.4102085034202219E-009 F
     orb,it,eci,eold,eci-eold=                    2                   71 -0.92968264234727116      -0.92968259936112618       -4.2986144976886465E-008 F
     orb,it,eci,eold,eci-eold=                    2                   72 -0.92968265300159225      -0.92968264234727116       -1.0654321092040675E-008 F
     orb,it,eci,eold,eci-eold=                    2                   73 -0.92968265346331680      -0.92968265300159225       -4.6172454748472092E-010 F
     orbital   2 current e=  0.531011E+00 error=0.254E+00 (eci= -0.929682653E+00 error=0.462E-09) iterations  73(   0 preconditioned, Ep,Sp= 20.0  200.0)
     orb,it,eci,eold,eci-eold=                    2                    1 -0.92968272785560324      -0.92968265346331680       -7.4392286442126476E-008 F
     orb,it,eci,eold,eci-eold=                    2                    2 -0.92968275559630087      -0.92968272785560324       -2.7740697627898214E-008 F
     orb,it,eci,eold,eci-eold=                    2                    3 -0.92968277662310872      -0.92968275559630087       -2.1026807850432760E-008 F
     orb,it,eci,eold,eci-eold=                    2                    4 -0.92968280434244799      -0.92968277662310872       -2.7719339268372778E-008 F
     orb,it,eci,eold,eci-eold=                    2                    5 -0.92968282117145606      -0.92968280434244799       -1.6829008075980312E-008 F
     orb,it,eci,eold,eci-eold=                    2                    6 -0.92968283207757774      -0.92968282117145606       -1.0906121672427105E-008 F
     orb,it,eci,eold,eci-eold=                    2                    7 -0.92968286789529742      -0.92968283207757774       -3.5817719679087645E-008 F
     orb,it,eci,eold,eci-eold=                    2                    8 -0.92968286899957309      -0.92968286789529742       -1.1042756709045420E-009 F
     orb,it,eci,eold,eci-eold=                    2                    9 -0.92968287370438929      -0.92968286899957309       -4.7048162032936602E-009 F
     orb,it,eci,eold,eci-eold=                    2                   10 -0.92968289146309480      -0.92968287370438929       -1.7758705506132344E-008 F
     orb,it,eci,eold,eci-eold=                    2                   11 -0.92968289146309480      -0.92968289146309480        0.0000000000000000      F
     orbital   2 current e=  0.530756E+00 error=0.255E-03 (eci= -0.929682891E+00 error=0.000E+00) iterations  11(   0 preconditioned, Ep,Sp= 20.0  200.0)
     orb,it,eci,eold,eci-eold=                    2                    1 -0.92968289343516020      -0.92968289072588539       -2.7092748045021153E-009 F
     orb,it,eci,eold,eci-eold=                    2                    2 -0.92968289415369654      -0.92968289343516020       -7.1853634153740131E-010 F
     orbital   2 current e=  0.530764E+00 error=0.858E-05 (eci= -0.929682894E+00 error=0.719E-09) iterations   2(   0 preconditioned, Ep,Sp= 20.0  200.0)
     orb,it,eci,eold,eci-eold=                    3                    1 -0.92890612408924278      -0.92875234133571061       -1.5378275353217230E-004 F
     orb,it,eci,eold,eci-eold=                    3                    2 -0.92892137531819219      -0.92890612408924278       -1.5251228949408890E-005 F
     orb,it,eci,eold,eci-eold=                    3                    3 -0.92897030318325657      -0.92892137531819219       -4.8927865064385401E-005 F
     orb,it,eci,eold,eci-eold=                    3                    4 -0.92899501371279514      -0.92897030318325657       -2.4710529538563009E-005 F
     orb,it,eci,eold,eci-eold=                    3                    5 -0.92901660710678025      -0.92899501371279514       -2.1593393985108733E-005 F
     orb,it,eci,eold,eci-eold=                    3                    6 -0.92902560638153597      -0.92901660710678025       -8.9992747557277042E-006 F
     orb,it,eci,eold,eci-eold=                    3                    7 -0.92902917348391545      -0.92902560638153597       -3.5671023794758838E-006 F
     orb,it,eci,eold,eci-eold=                    3                    8 -0.92905987737744056      -0.92902917348391545       -3.0703893525108050E-005 F
     orb,it,eci,eold,eci-eold=                    3                    9 -0.92907012100626085      -0.92905987737744056       -1.0243628820294504E-005 F
     orb,it,eci,eold,eci-eold=                    3                   10 -0.92907024247995007      -0.92907012100626085       -1.2147368921855417E-007 F
     orb,it,eci,eold,eci-eold=                    3                   11 -0.92908682349770932      -0.92907024247995007       -1.6581017759254024E-005 F
     orb,it,eci,eold,eci-eold=                    3                   12 -0.92909499519148997      -0.92908682349770932       -8.1716937806453060E-006 F
     orb,it,eci,eold,eci-eold=                    3                   13 -0.92909944446012105      -0.92909499519148997       -4.4492686310793061E-006 F
     orb,it,eci,eold,eci-eold=                    3                   14 -0.92911577727977812      -0.92909944446012105       -1.6332819657072228E-005 F
     orb,it,eci,eold,eci-eold=                    3                   15 -0.92911719586904451      -0.92911577727977812       -1.4185892663887145E-006 F
     orb,it,eci,eold,eci-eold=                    3                   16 -0.92911750159282502      -0.92911719586904451       -3.0572378051374471E-007 F
     orb,it,eci,eold,eci-eold=                    3                   17 -0.92913053938605294      -0.92911750159282502       -1.3037793227921313E-005 F
     orb,it,eci,eold,eci-eold=                    3                   18 -0.92913603165826009      -0.92913053938605294       -5.4922722071415464E-006 F
     orb,it,eci,eold,eci-eold=                    3                   19 -0.92913692406235637      -0.92913603165826009       -8.9240409628654760E-007 F
     orb,it,eci,eold,eci-eold=                    3                   20 -0.92914701632583729      -0.92913692406235637       -1.0092263480920849E-005 F
     orb,it,eci,eold,eci-eold=                    3                   21 -0.92915076755613324      -0.92914701632583729       -3.7512302959452626E-006 F
     orb,it,eci,eold,eci-eold=                    3                   22 -0.92915171033044830      -0.92915076755613324       -9.4277431506029075E-007 F
     orb,it,eci,eold,eci-eold=                    3                   23 -0.92915994926228618      -0.92915171033044830       -8.2389318378783827E-006 F
     orb,it,eci,eold,eci-eold=                    3                   24 -0.92916227338878732      -0.92915994926228618       -2.3241265011408885E-006 F
     orb,it,eci,eold,eci-eold=                    3                   25 -0.92916267992486501      -0.92916227338878732       -4.0653607769058908E-007 F
     orb,it,eci,eold,eci-eold=                    3                   26 -0.92916930687347599      -0.92916267992486501       -6.6269486109771236E-006 F
     orb,it,eci,eold,eci-eold=                    3                   27 -0.92917154720052975      -0.92916930687347599       -2.2403270537596498E-006 F
     orb,it,eci,eold,eci-eold=                    3                   28 -0.92917184823584675      -0.92917154720052975       -3.0103531700742536E-007 F
     orb,it,eci,eold,eci-eold=                    3                   29 -0.92917703073601887      -0.92917184823584675       -5.1825001721184094E-006 F
     orb,it,eci,eold,eci-eold=                    3                   30 -0.92917895812740725      -0.92917703073601887       -1.9273913883788296E-006 F
     orb,it,eci,eold,eci-eold=                    3                   31 -0.92917934833048321      -0.92917895812740725       -3.9020307596171477E-007 F
     orb,it,eci,eold,eci-eold=                    3                   32 -0.92918357703756016      -0.92917934833048321       -4.2287070769475577E-006 F
     orb,it,eci,eold,eci-eold=                    3                   33 -0.92918490123144704      -0.92918357703756016       -1.3241938868757686E-006 F
     orb,it,eci,eold,eci-eold=                    3                   34 -0.92918510891972628      -0.92918490123144704       -2.0768827924122490E-007 F
     orb,it,eci,eold,eci-eold=                    3                   35 -0.92918851454015750      -0.92918510891972628       -3.4056204312182814E-006 F
     orb,it,eci,eold,eci-eold=                    3                   36 -0.92918970183499516      -0.92918851454015750       -1.1872948376678849E-006 F
     orb,it,eci,eold,eci-eold=                    3                   37 -0.92918986716496677      -0.92918970183499516       -1.6532997160201290E-007 F
     orb,it,eci,eold,eci-eold=                    3                   38 -0.92919258962908802      -0.92918986716496677       -2.7224641212519884E-006 F
     orb,it,eci,eold,eci-eold=                    3                   39 -0.92919355522160885      -0.92919258962908802       -9.6559252082961677E-007 F
     orb,it,eci,eold,eci-eold=                    3                   40 -0.92919369342761027      -0.92919355522160885       -1.3820600142100403E-007 F
     orb,it,eci,eold,eci-eold=                    3                   41 -0.92919587238924062      -0.92919369342761027       -2.1789616303502513E-006 F
     orb,it,eci,eold,eci-eold=                    3                   42 -0.92919662292998129      -0.92919587238924062       -7.5054074066827070E-007 F
     orb,it,eci,eold,eci-eold=                    3                   43 -0.92919671837225004      -0.92919662292998129       -9.5442268754908355E-008 F
     orb,it,eci,eold,eci-eold=                    3                   44 -0.92919843775238709      -0.92919671837225004       -1.7193801370440909E-006 F
     orb,it,eci,eold,eci-eold=                    3                   45 -0.92919904477362603      -0.92919843775238709       -6.0702123894085247E-007 F
     orb,it,eci,eold,eci-eold=                    3                   46 -0.92919912700427187      -0.92919904477362603       -8.2230645848113681E-008 F
     orb,it,eci,eold,eci-eold=                    3                   47 -0.92920049011621675      -0.92919912700427187       -1.3631119448742623E-006 F
     orb,it,eci,eold,eci-eold=                    3                   48 -0.92920095800788394      -0.92920049011621675       -4.6789166718852471E-007 F
     orb,it,eci,eold,eci-eold=                    3                   49 -0.92920101678626077      -0.92920095800788394       -5.8778376832435697E-008 F
     orb,it,eci,eold,eci-eold=                    3                   50 -0.92920209607519655      -0.92920101678626077       -1.0792889357791324E-006 F
     orb,it,eci,eold,eci-eold=                    3                   51 -0.92920248399589889      -0.92920209607519655       -3.8792070233828468E-007 F
     orb,it,eci,eold,eci-eold=                    3                   52 -0.92920253700386013      -0.92920248399589889       -5.3007961242634849E-008 F
     orb,it,eci,eold,eci-eold=                    3                   53 -0.92920339324901646      -0.92920253700386013       -8.5624515633320186E-007 F
     orb,it,eci,eold,eci-eold=                    3                   54 -0.92920369847723827      -0.92920339324901646       -3.0522822180856224E-007 F
     orb,it,eci,eold,eci-eold=                    3                   55 -0.92920374135869799      -0.92920369847723827       -4.2881459716426207E-008 F
     orb,it,eci,eold,eci-eold=                    3                   56 -0.92920441600572989      -0.92920374135869799       -6.7464703190633912E-007 F
     orb,it,eci,eold,eci-eold=                    3                   57 -0.92920465621761239      -0.92920441600572989       -2.4021188249623293E-007 F
     orb,it,eci,eold,eci-eold=                    3                   58 -0.92920469202193068      -0.92920465621761239       -3.5804318287979697E-008 F
     orb,it,eci,eold,eci-eold=                    3                   59 -0.92920522517846615      -0.92920469202193068       -5.3315653547603148E-007 F
     orb,it,eci,eold,eci-eold=                    3                   60 -0.92920541556365843      -0.92920522517846615       -1.9038519227798645E-007 F
     orb,it,eci,eold,eci-eold=                    3                   61 -0.92920544662446625      -0.92920541556365843       -3.1060807814675684E-008 F
     orb,it,eci,eold,eci-eold=                    3                   62 -0.92920587635219265      -0.92920544662446625       -4.2972772640315071E-007 F
     orb,it,eci,eold,eci-eold=                    3                   63 -0.92920602650097428      -0.92920587635219265       -1.5014878163022161E-007 F
     orb,it,eci,eold,eci-eold=                    3                   64 -0.92920604729372058      -0.92920602650097428       -2.0792746302511489E-008 F
     orb,it,eci,eold,eci-eold=                    3                   65 -0.92920638851166393      -0.92920604729372058       -3.4121794334485145E-007 F
     orb,it,eci,eold,eci-eold=                    3                   66 -0.92920651510401941      -0.92920638851166393       -1.2659235548717618E-007 F
     orb,it,eci,eold,eci-eold=                    3                   67 -0.92920653376879736      -0.92920651510401941       -1.8664777945431865E-008 F
     orb,it,eci,eold,eci-eold=                    3                   68 -0.92920680113567888      -0.92920653376879736       -2.6736688152340093E-007 F
     orb,it,eci,eold,eci-eold=                    3                   69 -0.92920689483622754      -0.92920680113567888       -9.3700548653430360E-008 F
     orb,it,eci,eold,eci-eold=                    3                   70 -0.92920690963442532      -0.92920689483622754       -1.4798197778276290E-008 F
     orb,it,eci,eold,eci-eold=                    3                   71 -0.92920712651569604      -0.92920690963442532       -2.1688127072039265E-007 F
     orb,it,eci,eold,eci-eold=                    3                   72 -0.92920720803933476      -0.92920712651569604       -8.1523638728597803E-008 F
     orb,it,eci,eold,eci-eold=                    3                   73 -0.92920722144907364      -0.92920720803933476       -1.3409738874869959E-008 F
     orb,it,eci,eold,eci-eold=                    3                   74 -0.92920739136369324      -0.92920722144907364       -1.6991461959658949E-007 F
     orb,it,eci,eold,eci-eold=                    3                   75 -0.92920744194814231      -0.92920739136369324       -5.0584449073909354E-008 F
     orb,it,eci,eold,eci-eold=                    3                   76 -0.92920744461794114      -0.92920744194814231       -2.6697988264601236E-009 F
     orb,it,eci,eold,eci-eold=                    3                   77 -0.92920757107169361      -0.92920744461794114       -1.2645375246922441E-007 F
     orb,it,eci,eold,eci-eold=                    3                   78 -0.92920762138443980      -0.92920757107169361       -5.0312746191494284E-008 F
     orb,it,eci,eold,eci-eold=                    3                   79 -0.92920763068674672      -0.92920762138443980       -9.3023069247522017E-009 F
     orb,it,eci,eold,eci-eold=                    3                   80 -0.92920773752886654      -0.92920763068674672       -1.0684211981804026E-007 F
     orb,it,eci,eold,eci-eold=                    3                   81 -0.92920777861817028      -0.92920773752886654       -4.1089303737251726E-008 F
     orb,it,eci,eold,eci-eold=                    3                   82 -0.92920778691630002      -0.92920777861817028       -8.2981297389039810E-009 F
     orb,it,eci,eold,eci-eold=                    3                   83 -0.92920787469013100      -0.92920778691630002       -8.7773830981241474E-008 F
     orb,it,eci,eold,eci-eold=                    3                   84 -0.92920790547935972      -0.92920787469013100       -3.0789228722127859E-008 F
     orb,it,eci,eold,eci-eold=                    3                   85 -0.92920791034806305      -0.92920790547935972       -4.8687033293859372E-009 F
     orb,it,eci,eold,eci-eold=                    3                   86 -0.92920797978614944      -0.92920791034806305       -6.9438086391926390E-008 F
     orb,it,eci,eold,eci-eold=                    3                   87 -0.92920800327077524      -0.92920797978614944       -2.3484625799596870E-008 F
     orb,it,eci,eold,eci-eold=                    3                   88 -0.92920800576739615      -0.92920800327077524       -2.4966209100085734E-009 F
     orb,it,eci,eold,eci-eold=                    3                   89 -0.92920805956489505      -0.92920800576739615       -5.3797498900109986E-008 F
     orb,it,eci,eold,eci-eold=                    3                   90 -0.92920807947518924      -0.92920805956489505       -1.9910294191127775E-008 F
     orb,it,eci,eold,eci-eold=                    3                   91 -0.92920808233462759      -0.92920807947518924       -2.8594383527646983E-009 F
     orb,it,eci,eold,eci-eold=                    3                   92 -0.92920812570120481      -0.92920808233462759       -4.3366577218151292E-008 F
     orb,it,eci,eold,eci-eold=                    3                   93 -0.92920813975658334      -0.92920812570120481       -1.4055378527721984E-008 F
     orb,it,eci,eold,eci-eold=                    3                   94 -0.92920814032406795      -0.92920813975658334       -5.6748461485511825E-010 F
     orbital   3 current e=  0.468086E+00 error=0.140E+00 (eci= -0.929208140E+00 error=0.567E-09) iterations  94(   0 preconditioned, Ep,Sp= 20.0  200.0)
     orb,it,eci,eold,eci-eold=                    3                    1 -0.92920816984577304      -0.92920814032406795       -2.9521705080526317E-008 F
     orb,it,eci,eold,eci-eold=                    3                    2 -0.92920818333294330      -0.92920816984577304       -1.3487170269499416E-008 F
     orb,it,eci,eold,eci-eold=                    3                    3 -0.92920828558757484      -0.92920818333294330       -1.0225463153989978E-007 F
     orb,it,eci,eold,eci-eold=                    3                    4 -0.92920832111193019      -0.92920828558757484       -3.5524355346261416E-008 F
     orb,it,eci,eold,eci-eold=                    3                    5 -0.92920832538355835      -0.92920832111193019       -4.2716281623000896E-009 F
     orb,it,eci,eold,eci-eold=                    3                    6 -0.92920832760022121      -0.92920832538355835       -2.2166628532716004E-009 F
     orb,it,eci,eold,eci-eold=                    3                    7 -0.92920834333781932      -0.92920832760022121       -1.5737598113574336E-008 F
     orb,it,eci,eold,eci-eold=                    3                    8 -0.92920834471483560      -0.92920834333781932       -1.3770162787807294E-009 F
     orb,it,eci,eold,eci-eold=                    3                    9 -0.92920834653464246      -0.92920834471483560       -1.8198068607588880E-009 F
     orb,it,eci,eold,eci-eold=                    3                   10 -0.92920835436092808      -0.92920834653464246       -7.8262856195721042E-009 F
     orb,it,eci,eold,eci-eold=                    3                   11 -0.92920835884874320      -0.92920835436092808       -4.4878151195248961E-009 F
     orb,it,eci,eold,eci-eold=                    3                   12 -0.92920836171250420      -0.92920835884874320       -2.8637610061110763E-009 F
     orb,it,eci,eold,eci-eold=                    3                   13 -0.92920836275204355      -0.92920836171250420       -1.0395393434947664E-009 F
     orb,it,eci,eold,eci-eold=                    3                   14 -0.92920836473118440      -0.92920836275204355       -1.9791408512048747E-009 F
     orb,it,eci,eold,eci-eold=                    3                   15 -0.92920836473118440      -0.92920836473118440        0.0000000000000000      F
     orbital   3 current e=  0.467630E+00 error=0.456E-03 (eci= -0.929208365E+00 error=0.000E+00) iterations  15(   0 preconditioned, Ep,Sp= 20.0  200.0)
     orb,it,eci,eold,eci-eold=                    3                    1 -0.92920836891114278      -0.92920836472118495       -4.1899578251403113E-009 F
     orb,it,eci,eold,eci-eold=                    3                    2 -0.92920836891114278      -0.92920836891114278        0.0000000000000000      F
     orbital   3 current e=  0.467624E+00 error=0.624E-05 (eci= -0.929208369E+00 error=0.000E+00) iterations   2(   0 preconditioned, Ep,Sp= 20.0  200.0)
     orb,it,eci,eold,eci-eold=                    4                    1 -0.92890512542494785      -0.92875232727805856       -1.5279814688928806E-004 F
     orb,it,eci,eold,eci-eold=                    4                    2 -0.92892028581432340      -0.92890512542494785       -1.5160389375545869E-005 F
     orb,it,eci,eold,eci-eold=                    4                    3 -0.92896924498756717      -0.92892028581432340       -4.8959173243767751E-005 F
     orb,it,eci,eold,eci-eold=                    4                    4 -0.92899358033411605      -0.92896924498756717       -2.4335346548887138E-005 F
     orb,it,eci,eold,eci-eold=                    4                    5 -0.92901542219062372      -0.92899358033411605       -2.1841856507665014E-005 F
     orb,it,eci,eold,eci-eold=                    4                    6 -0.92902525802082980      -0.92901542219062372       -9.8358302060841396E-006 F
     orb,it,eci,eold,eci-eold=                    4                    7 -0.92902892487631283      -0.92902525802082980       -3.6668554830310285E-006 F
     orb,it,eci,eold,eci-eold=                    4                    8 -0.92905927927353371      -0.92902892487631283       -3.0354397220877516E-005 F
     orb,it,eci,eold,eci-eold=                    4                    9 -0.92907043979950632      -0.92905927927353371       -1.1160525972608859E-005 F
     orb,it,eci,eold,eci-eold=                    4                   10 -0.92907137652176164      -0.92907043979950632       -9.3672225531804543E-007 F
     orb,it,eci,eold,eci-eold=                    4                   11 -0.92908770427221721      -0.92907137652176164       -1.6327750455569223E-005 F
     orb,it,eci,eold,eci-eold=                    4                   12 -0.92909536541293980      -0.92908770427221721       -7.6611407225923855E-006 F
     orb,it,eci,eold,eci-eold=                    4                   13 -0.92910022343522403      -0.92909536541293980       -4.8580222842264931E-006 F
     orb,it,eci,eold,eci-eold=                    4                   14 -0.92911646918888580      -0.92910022343522403       -1.6245753661769946E-005 F
     orb,it,eci,eold,eci-eold=                    4                   15 -0.92911735175684818      -0.92911646918888580       -8.8256796237917712E-007 F
     orb,it,eci,eold,eci-eold=                    4                   16 -0.92911771017442779      -0.92911735175684818       -3.5841757961563303E-007 F
     orb,it,eci,eold,eci-eold=                    4                   17 -0.92913089707326424      -0.92911771017442779       -1.3186898836448080E-005 F
     orb,it,eci,eold,eci-eold=                    4                   18 -0.92913621538249180      -0.92913089707326424       -5.3183092275643773E-006 F
     orb,it,eci,eold,eci-eold=                    4                   19 -0.92913691050916059      -0.92913621538249180       -6.9512666878157603E-007 F
     orb,it,eci,eold,eci-eold=                    4                   20 -0.92914688695066050      -0.92913691050916059       -9.9764414999148343E-006 F
     orb,it,eci,eold,eci-eold=                    4                   21 -0.92915095589499352      -0.92914688695066050       -4.0689443330244046E-006 F
     orb,it,eci,eold,eci-eold=                    4                   22 -0.92915203648669864      -0.92915095589499352       -1.0805917051159852E-006 F
     orb,it,eci,eold,eci-eold=                    4                   23 -0.92916019955938267      -0.92915203648669864       -8.1630726840309364E-006 F
     orb,it,eci,eold,eci-eold=                    4                   24 -0.92916243545651789      -0.92916019955938267       -2.2358971352165469E-006 F
     orb,it,eci,eold,eci-eold=                    4                   25 -0.92916290626581088      -0.92916243545651789       -4.7080929299614382E-007 F
     orb,it,eci,eold,eci-eold=                    4                   26 -0.92916952454391577      -0.92916290626581088       -6.6182781048862438E-006 F
     orb,it,eci,eold,eci-eold=                    4                   27 -0.92917164102504723      -0.92916952454391577       -2.1164811314644538E-006 F
     orb,it,eci,eold,eci-eold=                    4                   28 -0.92917190460015220      -0.92917164102504723       -2.6357510496399783E-007 F
     orb,it,eci,eold,eci-eold=                    4                   29 -0.92917708798773058      -0.92917190460015220       -5.1833875783779959E-006 F
     orb,it,eci,eold,eci-eold=                    4                   30 -0.92917906605032496      -0.92917708798773058       -1.9780625943877084E-006 F
     orb,it,eci,eold,eci-eold=                    4                   31 -0.92917943853176155      -0.92917906605032496       -3.7248143658352717E-007 F
     orb,it,eci,eold,eci-eold=                    4                   32 -0.92918359393832128      -0.92917943853176155       -4.1554065597360079E-006 F
     orb,it,eci,eold,eci-eold=                    4                   33 -0.92918502737007580      -0.92918359393832128       -1.4334317545161568E-006 F
     orb,it,eci,eold,eci-eold=                    4                   34 -0.92918533042560636      -0.92918502737007580       -3.0305553055942624E-007 F
     orb,it,eci,eold,eci-eold=                    4                   35 -0.92918869509943691      -0.92918533042560636       -3.3646738305526114E-006 F
     orb,it,eci,eold,eci-eold=                    4                   36 -0.92918977283567750      -0.92918869509943691       -1.0777362405844926E-006 F
     orb,it,eci,eold,eci-eold=                    4                   37 -0.92918994919578923      -0.92918977283567750       -1.7636011173660648E-007 F
     orb,it,eci,eold,eci-eold=                    4                   38 -0.92919265447984145      -0.92918994919578923       -2.7052840522179267E-006 F
     orb,it,eci,eold,eci-eold=                    4                   39 -0.92919357867305163      -0.92919265447984145       -9.2419321018333278E-007 F
     orb,it,eci,eold,eci-eold=                    4                   40 -0.92919369534566143      -0.92919357867305163       -1.1667260979564276E-007 F
     orb,it,eci,eold,eci-eold=                    4                   41 -0.92919584186273640      -0.92919369534566143       -2.1465170749745965E-006 F
     orb,it,eci,eold,eci-eold=                    4                   42 -0.92919663686356579      -0.92919584186273640       -7.9500082938999128E-007 F
     orb,it,eci,eold,eci-eold=                    4                   43 -0.92919675313822203      -0.92919663686356579       -1.1627465623664790E-007 F
     orb,it,eci,eold,eci-eold=                    4                   44 -0.92919844935005746      -0.92919675313822203       -1.6962118354335587E-006 F
     orb,it,eci,eold,eci-eold=                    4                   45 -0.92919904544408349      -0.92919844935005746       -5.9609402602855965E-007 F
     orb,it,eci,eold,eci-eold=                    4                   46 -0.92919913950743527      -0.92919904544408349       -9.4063351774309467E-008 F
     orb,it,eci,eold,eci-eold=                    4                   47 -0.92920049275586214      -0.92919913950743527       -1.3532484268719003E-006 F
     orb,it,eci,eold,eci-eold=                    4                   48 -0.92920094299306277      -0.92920049275586214       -4.5023720063319672E-007 F
     orb,it,eci,eold,eci-eold=                    4                   49 -0.92920099950368440      -0.92920094299306277       -5.6510621626593149E-008 F
     orb,it,eci,eold,eci-eold=                    4                   50 -0.92920207965822499      -0.92920099950368440       -1.0801545405891844E-006 F
     orb,it,eci,eold,eci-eold=                    4                   51 -0.92920247320992910      -0.92920207965822499       -3.9355170411425888E-007 F
     orb,it,eci,eold,eci-eold=                    4                   52 -0.92920252279607762      -0.92920247320992910       -4.9586148520575080E-008 F
     orb,it,eci,eold,eci-eold=                    4                   53 -0.92920337470576042      -0.92920252279607762       -8.5190968279746926E-007 F
     orb,it,eci,eold,eci-eold=                    4                   54 -0.92920369188063168      -0.92920337470576042       -3.1717487125604293E-007 F
     orb,it,eci,eold,eci-eold=                    4                   55 -0.92920374132232220      -0.92920369188063168       -4.9441690519458348E-008 F
     orb,it,eci,eold,eci-eold=                    4                   56 -0.92920441516972974      -0.92920374132232220       -6.7384740753961836E-007 F
     orb,it,eci,eold,eci-eold=                    4                   57 -0.92920464400457692      -0.92920441516972974       -2.2883484718239089E-007 F
     orb,it,eci,eold,eci-eold=                    4                   58 -0.92920467805512741      -0.92920464400457692       -3.4050550490327680E-008 F
     orb,it,eci,eold,eci-eold=                    4                   59 -0.92920522054656629      -0.92920467805512741       -5.4249143888185358E-007 F
     orb,it,eci,eold,eci-eold=                    4                   60 -0.92920540805850993      -0.92920522054656629       -1.8751194363897383E-007 F
     orb,it,eci,eold,eci-eold=                    4                   61 -0.92920543012170542      -0.92920540805850993       -2.2063195492805221E-008 F
     orb,it,eci,eold,eci-eold=                    4                   62 -0.92920586367838254      -0.92920543012170542       -4.3355667711519885E-007 F
     orb,it,eci,eold,eci-eold=                    4                   63 -0.92920602810514219      -0.92920586367838254       -1.6442675965233633E-007 F
     orb,it,eci,eold,eci-eold=                    4                   64 -0.92920605056066619      -0.92920602810514219       -2.2455523995823512E-008 F
     orb,it,eci,eold,eci-eold=                    4                   65 -0.92920639459016785      -0.92920605056066619       -3.4402950166434465E-007 F
     orb,it,eci,eold,eci-eold=                    4                   66 -0.92920652189932185      -0.92920639459016785       -1.2730915399661313E-007 F
     orb,it,eci,eold,eci-eold=                    4                   67 -0.92920654185683405      -0.92920652189932185       -1.9957512198409688E-008 F
     orb,it,eci,eold,eci-eold=                    4                   68 -0.92920681119922022      -0.92920654185683405       -2.6934238617215556E-007 F
     orb,it,eci,eold,eci-eold=                    4                   69 -0.92920690277339935      -0.92920681119922022       -9.1574179128528499E-008 F
     orb,it,eci,eold,eci-eold=                    4                   70 -0.92920691741805894      -0.92920690277339935       -1.4644659596108056E-008 F
     orb,it,eci,eold,eci-eold=                    4                   71 -0.92920713499945518      -0.92920691741805894       -2.1758139623351269E-007 F
     orb,it,eci,eold,eci-eold=                    4                   72 -0.92920721526463801      -0.92920713499945518       -8.0265182833549886E-008 F
     orb,it,eci,eold,eci-eold=                    4                   73 -0.92920722799488187      -0.92920721526463801       -1.2730243859060408E-008 F
     orb,it,eci,eold,eci-eold=                    4                   74 -0.92920739653869389      -0.92920722799488187       -1.6854381201802937E-007 F
     orb,it,eci,eold,eci-eold=                    4                   75 -0.92920744672830091      -0.92920739653869389       -5.0189607025963312E-008 F
     orb,it,eci,eold,eci-eold=                    4                   76 -0.92920744969926883      -0.92920744672830091       -2.9709679161271652E-009 F
     orb,it,eci,eold,eci-eold=                    4                   77 -0.92920757523886177      -0.92920744969926883       -1.2553959294336892E-007 F
     orb,it,eci,eold,eci-eold=                    4                   78 -0.92920762512376931      -0.92920757523886177       -4.9884907538100265E-008 F
     orb,it,eci,eold,eci-eold=                    4                   79 -0.92920763471968248      -0.92920762512376931       -9.5959131751754967E-009 F
     orb,it,eci,eold,eci-eold=                    4                   80 -0.92920774082653845      -0.92920763471968248       -1.0610685596823544E-007 F
     orb,it,eci,eold,eci-eold=                    4                   81 -0.92920778125021397      -0.92920774082653845       -4.0423675518042046E-008 F
     orb,it,eci,eold,eci-eold=                    4                   82 -0.92920778948883620      -0.92920778125021397       -8.2386222288732824E-009 F
     orb,it,eci,eold,eci-eold=                    4                   83 -0.92920787662580517      -0.92920778948883620       -8.7136968973666740E-008 F
     orb,it,eci,eold,eci-eold=                    4                   84 -0.92920790730400182      -0.92920787662580517       -3.0678196649702727E-008 F
     orb,it,eci,eold,eci-eold=                    4                   85 -0.92920791211931997      -0.92920790730400182       -4.8153181442245341E-009 F
     orb,it,eci,eold,eci-eold=                    4                   86 -0.92920798079030575      -0.92920791211931997       -6.8670985786667416E-008 F
     orb,it,eci,eold,eci-eold=                    4                   87 -0.92920800457651898      -0.92920798079030575       -2.3786213221299590E-008 F
     orb,it,eci,eold,eci-eold=                    4                   88 -0.92920800743221077      -0.92920800457651898       -2.8556917941457982E-009 F
     orb,it,eci,eold,eci-eold=                    4                   89 -0.92920806065054640      -0.92920800743221077       -5.3218335627214230E-008 F
     orb,it,eci,eold,eci-eold=                    4                   90 -0.92920808027774948      -0.92920806065054640       -1.9627203085015310E-008 F
     orb,it,eci,eold,eci-eold=                    4                   91 -0.92920808335318028      -0.92920808027774948       -3.0754307989155905E-009 F
     orb,it,eci,eold,eci-eold=                    4                   92 -0.92920812634479999      -0.92920808335318028       -4.2991619708665496E-008 F
     orb,it,eci,eold,eci-eold=                    4                   93 -0.92920814000726937      -0.92920812634479999       -1.3662469378061814E-008 F
     orb,it,eci,eold,eci-eold=                    4                   94 -0.92920814051731215      -0.92920814000726937       -5.1004278578403728E-010 F
     orbital   4 current e=  0.468086E+00 error=0.140E+00 (eci= -0.929208141E+00 error=0.510E-09) iterations  94(   0 preconditioned, Ep,Sp= 20.0  200.0)
     orb,it,eci,eold,eci-eold=                    4                    1 -0.92920816948508000      -0.92920814051731215       -2.8967767851106885E-008 F
     orb,it,eci,eold,eci-eold=                    4                    2 -0.92920818222004198      -0.92920816948508000       -1.2734961973848158E-008 F
     orb,it,eci,eold,eci-eold=                    4                    3 -0.92920828512577247      -0.92920818222004198       -1.0290573049243079E-007 F
     orb,it,eci,eold,eci-eold=                    4                    4 -0.92920832075515725      -0.92920828512577247       -3.5629384775859307E-008 F
     orb,it,eci,eold,eci-eold=                    4                    5 -0.92920832497433103      -0.92920832075515725       -4.2191737881225322E-009 F
     orb,it,eci,eold,eci-eold=                    4                    6 -0.92920832724412328      -0.92920832497433103       -2.2697922430481299E-009 F
     orb,it,eci,eold,eci-eold=                    4                    7 -0.92920834322391532      -0.92920832724412328       -1.5979792045150987E-008 F
     orb,it,eci,eold,eci-eold=                    4                    8 -0.92920834451831946      -0.92920834322391532       -1.2944041394291617E-009 F
     orb,it,eci,eold,eci-eold=                    4                    9 -0.92920834613722048      -0.92920834451831946       -1.6189010132450221E-009 F
     orb,it,eci,eold,eci-eold=                    4                   10 -0.92920835408278790      -0.92920834613722048       -7.9455674262263187E-009 F
     orb,it,eci,eold,eci-eold=                    4                   11 -0.92920835877831964      -0.92920835408278790       -4.6955317412056274E-009 F
     orb,it,eci,eold,eci-eold=                    4                   12 -0.92920836162404097      -0.92920835877831964       -2.8457213252508495E-009 F
     orb,it,eci,eold,eci-eold=                    4                   13 -0.92920836255538275      -0.92920836162404097       -9.3134178147380453E-010 F
     orbital   4 current e=  0.467670E+00 error=0.416E-03 (eci= -0.929208363E+00 error=0.931E-09) iterations  13(   0 preconditioned, Ep,Sp= 20.0  200.0)
     orb,it,eci,eold,eci-eold=                    4                    1 -0.92920836395769701      -0.92920836255538275       -1.4023142647090481E-009 F
     orb,it,eci,eold,eci-eold=                    4                    2 -0.92920836395769701      -0.92920836395769701        0.0000000000000000      F
     orbital   4 current e=  0.467661E+00 error=0.927E-05 (eci= -0.929208364E+00 error=0.000E+00) iterations   2(   0 preconditioned, Ep,Sp= 20.0  200.0)

 virtual orbital energies:
     0.4676610E+00 (  12.726eV)
     0.4676238E+00 (  12.725eV)
     0.5307641E+00 (  14.443eV)
    -0.1295808E-01 (  -0.353eV)


 == Generating One-Electron and Two-Electron Integrals ==

 begin_one_electron_integrals
    1    1        -0.8008581904
    2    1         0.0000030277
    3    1         0.0708657366
    4    1        -0.0000000466
    5    1         0.0000009474
    2    2        -0.6970027092
    3    2         0.0000066830
    4    2        -0.0000000004
    5    2         0.0000000001
    3    3        -0.1725045916
    4    3         0.0000164917
    5    3         0.0000010131
    4    4        -0.2280266443
    5    4         0.0000000010
    5    5        -0.2280013162
 end_one_electron_integrals

 begin_two_electron_integrals
    1    1    1    1        0.4111901730
    1    1    2    1       -0.0000030327
    1    1    3    1       -0.0708614940
    1    1    4    1        0.0000000471
    1    1    5    1       -0.0000009473
    1    1    2    2        0.4253887363
    1    1    3    2       -0.0000100525
    1    1    4    2        0.0000000001
    1    1    5    2       -0.0000000002
    1    1    3    3        0.3858012198
    1    1    4    3        0.0000089389
    1    1    5    3        0.0000002064
    1    1    4    4        0.3781665441
    1    1    5    4        0.0000000002
    1    1    5    5        0.3781732678
    2    1    2    1        0.1667328395
    2    1    3    1       -0.0000024626
    2    1    4    1       -0.0000000001
    2    1    5    1       -0.0000000000
    2    1    2    2       -0.0000059492
    2    1    3    2        0.0146011473
    2    1    4    2        0.0000175461
    2    1    5    2        0.0000002488
    2    1    3    3        0.0000121822
    2    1    4    3       -0.0000000007
    2    1    5    3        0.0000000003
    2    1    4    4       -0.0000050926
    2    1    5    4       -0.0000000000
    2    1    5    5       -0.0000050902
    3    1    3    1        0.0683337149
    3    1    4    1        0.0000013654
    3    1    5    1        0.0000001171
    3    1    2    2       -0.0530800059
    3    1    3    2        0.0000055403
    3    1    4    2       -0.0000000003
    3    1    5    2        0.0000000001
    3    1    3    3       -0.0830414310
    3    1    4    3       -0.0000029291
    3    1    5    3       -0.0000000910
    3    1    4    4       -0.0675297247
    3    1    5    4       -0.0000000000
    3    1    5    5       -0.0675308148
    4    1    4    1        0.0606826700
    4    1    5    1        0.0000000001
    4    1    2    2        0.0000066275
    4    1    3    2       -0.0000000003
    4    1    4    2       -0.0000014241
    4    1    5    2       -0.0000000000
    4    1    3    3       -0.0000032354
    4    1    4    3       -0.0126458262
    4    1    5    3       -0.0000000009
    4    1    4    4       -0.0000107791
    4    1    5    4       -0.0000001721
    4    1    5    5       -0.0000042589
    5    1    5    1        0.0606842589
    5    1    2    2       -0.0000006865
    5    1    3    2        0.0000000001
    5    1    4    2       -0.0000000000
    5    1    5    2       -0.0000014230
    5    1    3    3       -0.0000008260
    5    1    4    3        0.0000000008
    5    1    5    3       -0.0126462893
    5    1    4    4       -0.0000009058
    5    1    5    4       -0.0000041346
    5    1    5    5       -0.0000012269
    2    2    2    2        0.4601761502
    2    2    3    2       -0.0000120355
    2    2    4    2       -0.0000000002
    2    2    5    2       -0.0000000002
    2    2    3    3        0.3830905716
    2    2    4    3        0.0000089921
    2    2    5    3        0.0000002199
    2    2    4    4        0.3745839184
    2    2    5    4        0.0000000002
    2    2    5    5        0.3745920243
    3    2    3    2        0.0347452747
    3    2    4    2        0.0000022253
    3    2    5    2        0.0000000525
    3    2    3    3       -0.0000041319
    3    2    4    3       -0.0000000003
    3    2    5    3        0.0000000001
    3    2    4    4       -0.0000085208
    3    2    5    4       -0.0000000000
    3    2    5    5       -0.0000085212
    4    2    4    2        0.0323616405
    4    2    5    2        0.0000000001
    4    2    3    3        0.0000000015
    4    2    4    3       -0.0000007731
    4    2    5    3       -0.0000000000
    4    2    4    4        0.0000000000
    4    2    5    4       -0.0000000000
    4    2    5    5       -0.0000000001
    5    2    5    2        0.0323641464
    5    2    3    3       -0.0000000001
    5    2    4    3       -0.0000000000
    5    2    5    3       -0.0000007736
    5    2    4    4       -0.0000000001
    5    2    5    4        0.0000000000
    5    2    5    5       -0.0000000002
    3    3    3    3        0.3979405763
    3    3    4    3        0.0000092348
    3    3    5    3        0.0000001677
    3    3    4    4        0.3587806559
    3    3    5    4        0.0000000002
    3    3    5    5        0.3587865766
    4    3    4    3        0.0185246313
    4    3    5    3        0.0000000000
    4    3    4    4        0.0000099923
    4    3    5    4        0.0000000213
    4    3    5    5        0.0000077034
    5    3    5    3        0.0185253877
    5    3    4    4        0.0000001371
    5    3    5    4        0.0000012011
    5    3    5    5        0.0000001692
    4    4    4    4        0.3880980351
    4    4    5    4       -0.0000000358
    4    4    5    5        0.3552350303
    5    4    5    4        0.0175506890
    5    4    5    5        0.0000000365
    5    5    5    5        0.3881079613
 end_two_electron_integrals


 output epsi filename:./pspw_hf_H2.emovecs

 Total PSPW energy     :  -0.9259375833E+00


=== Spin Contamination ===

 <Sexact^2> =    0.0000000000000000     
 <S^2>      =    0.0000000000000000     



== Center of Charge ==

spin up     (    0.0000,    0.0000,    0.0000 )
spin down   (    0.0000,    0.0000,    0.0000 )
     total  (    0.0000,    0.0000,    0.0000 )
ionic       (    0.0000,    0.0000,    0.0000 )


== Molecular Dipole wrt Center of Mass ==

mu   =  (   -0.0000,   -0.0000,   -0.0000 ) au
|mu| =     0.0000 au,       0.0001 Debye

 output psi filename:./pspw_hf_H2.movecs

 Writing Crystallographic Information File:./H2.cif
   - cell not shifted (nwpw:cif_shift_cell .false.)


== Timing ==

cputime in seconds
  prologue    :   0.591501E+01
  main loop   :   0.353662E+03
  epilogue    :   0.126012E-01
  total       :   0.359589E+03
  cputime/step:   0.258147E+01       (     137 evalulations,      57 linesearches)


Time spent doing                        total          step       percent
  total time                 :   0.359593E+03  0.262477E+01       100.0 %
  i/o time                   :   0.995123E-01  0.726367E-03         0.0 %
  FFTs                       :   0.287934E+03  0.210171E+01        80.1 %
  dot products               :   0.536546E+01  0.391640E-01         1.5 %
  geodesic                   :   0.588911E-01  0.429862E-03         0.0 %
  ffm_dgemm                  :   0.904019E-02  0.659868E-04         0.0 %
  fmf_dgemm                  :   0.144710E-01  0.105628E-03         0.0 %
  mmm_dgemm                  :   0.171697E-02  0.125326E-04         0.0 %
  m_diagonalize              :   0.107542E-02  0.784982E-05         0.0 %
  local pseudopotentials     :   0.861036E+01  0.628493E-01         2.4 %
  non-local pseudopotentials :   0.536655E+01  0.391719E-01         1.5 %
  structure factors          :   0.695461E+00  0.507636E-02         0.2 %
  phase factors              :   0.989900E-05  0.722555E-07         0.0 %
  masking and packing        :   0.270198E+01  0.197225E-01         0.8 %
  queue fft                  :   0.733161E+01  0.535154E-01         2.0 %
  queue fft (serial)         :   0.393230E+01  0.287030E-01         1.1 %
  queue fft (message passing):   0.335847E+01  0.245144E-01         0.9 %
  HFX potential              :   0.717285E+01  0.523566E-01         2.0 %
  non-local psp FFM          :   0.501978E+01  0.366407E-01         1.4 %
  non-local psp FMF          :   0.971464E-01  0.709098E-03         0.0 %
  non-local psp FFM A        :   0.524704E-01  0.382996E-03         0.0 %
  non-local psp FFM B        :   0.142844E+00  0.104266E-02         0.0 %

== HFX Counters ==
  HFX Evalulations         =   137
  Lin ACE HFX Evalulations =     0


     >>>  JOB COMPLETED     AT Sat Apr  5 14:06:29 2025  <<<

 Task  times  cpu:      337.1s     wall:      359.6s


                                NWChem Input Module
                                -------------------


 Summary of allocated global arrays
-----------------------------------
  No active global arrays


MA_summarize_allocated_blocks: starting scan ...
MA_summarize_allocated_blocks: scan completed: 0 heap blocks, 0 stack blocks
MA usage statistics:

	allocation statistics:
					      heap	     stack
					      ----	     -----
	current number of blocks	         0	         0
	maximum number of blocks	       313	        36
	current total bytes		         0	         0
	maximum total bytes		  46187456	  15937496
	maximum total K-bytes		     46188	     15938
	maximum total M-bytes		        47	        16


                                     CITATION
                                     --------
                Please cite the following reference when publishing
                           results obtained with NWChem:

          E. Apra, E. J. Bylaska, W. A. de Jong, N. Govind, K. Kowalski,
       T. P. Straatsma, M. Valiev, H. J. J. van Dam, Y. Alexeev, J. Anchell,
       V. Anisimov, F. W. Aquino, R. Atta-Fynn, J. Autschbach, N. P. Bauman,
     J. C. Becca, D. E. Bernholdt, K. Bhaskaran-Nair, S. Bogatko, P. Borowski,
         J. Boschen, J. Brabec, A. Bruner, E. Cauet, Y. Chen, G. N. Chuev,
      C. J. Cramer, J. Daily, M. J. O. Deegan, T. H. Dunning Jr., M. Dupuis,
   K. G. Dyall, G. I. Fann, S. A. Fischer, A. Fonari, H. Fruchtl, L. Gagliardi,
      J. Garza, N. Gawande, S. Ghosh, K. Glaesemann, A. W. Gotz, J. Hammond,
       V. Helms, E. D. Hermes, K. Hirao, S. Hirata, M. Jacquelin, L. Jensen,
   B. G. Johnson, H. Jonsson, R. A. Kendall, M. Klemm, R. Kobayashi, V. Konkov,
      S. Krishnamoorthy, M. Krishnan, Z. Lin, R. D. Lins, R. J. Littlefield,
      A. J. Logsdail, K. Lopata, W. Ma, A. V. Marenich, J. Martin del Campo,
   D. Mejia-Rodriguez, J. E. Moore, J. M. Mullin, T. Nakajima, D. R. Nascimento,
    J. A. Nichols, P. J. Nichols, J. Nieplocha, A. Otero-de-la-Roza, B. Palmer,
    A. Panyala, T. Pirojsirikul, B. Peng, R. Peverati, J. Pittner, L. Pollack,
   R. M. Richard, P. Sadayappan, G. C. Schatz, W. A. Shelton, D. W. Silverstein,
   D. M. A. Smith, T. A. Soares, D. Song, M. Swart, H. L. Taylor, G. S. Thomas,
            V. Tipparaju, D. G. Truhlar, K. Tsemekhman, T. Van Voorhis,
      A. Vazquez-Mayagoitia, P. Verma, O. Villa, A. Vishnu, K. D. Vogiatzis,
        D. Wang, J. H. Weare, M. J. Williamson, T. L. Windus, K. Wolinski,
        A. T. Wong, Q. Wu, C. Yang, Q. Yu, M. Zacharias, Z. Zhang, Y. Zhao,
                                and R. J. Harrison
                        "NWChem: Past, present, and future
                         J. Chem. Phys. 152, 184102 (2020)
                               doi:10.1063/5.0004997

                                      AUTHORS
                                      -------
  E. Apra, E. J. Bylaska, N. Govind, K. Kowalski, M. Valiev, D. Mejia-Rodriguez,
       A. Kunitsa, N. P. Bauman, A. Panyala, W. A. de Jong, T. P. Straatsma,
   H. J. J. van Dam, D. Wang, T. L. Windus, J. Hammond, J. Autschbach, A. Woods,
    K. Bhaskaran-Nair, J. Brabec, K. Lopata, S. A. Fischer, S. Krishnamoorthy,
     M. Jacquelin, W. Ma, M. Klemm, O. Villa, Y. Chen, V. Anisimov, F. Aquino,
     S. Hirata, M. T. Hackler, E. Hermes, L. Jensen, J. E. Moore, J. C. Becca,
      V. Konjkov, T. Risthaus, M. Malagoli, A. Marenich, A. Otero-de-la-Roza,
        J. Mullin, P. Nichols, R. Peverati, J. Pittner, Y. Zhao, P.-D. Fan,
        A. Fonari, M. J. Williamson, R. J. Harrison, J. R. Rehr, M. Dupuis,
     D. Silverstein, D. M. A. Smith, J. Nieplocha, V. Tipparaju, M. Krishnan,
     B. E. Van Kuiken, A. Vazquez-Mayagoitia, M. Swart, Q. Wu, T. Van Voorhis,
     A. A. Auer, M. Nooijen, L. D. Crosby, E. Brown, G. Cisneros, G. I. Fann,
   H. Fruchtl, J. Garza, K. Hirao, R. A. Kendall, J. A. Nichols, K. Tsemekhman,
    K. Wolinski, J. Anchell, D. E. Bernholdt, P. Borowski, T. Clark, D. Clerc,
   H. Dachsel, M. J. O. Deegan, K. Dyall, D. Elwood, E. Glendening, M. Gutowski,
   A. C. Hess, J. Jaffe, B. G. Johnson, J. Ju, R. Kobayashi, R. Kutteh, Z. Lin,
   R. Littlefield, X. Long, B. Meng, T. Nakajima, S. Niu, L. Pollack, M. Rosing,
   K. Glaesemann, G. Sandrone, M. Stave, H. Taylor, G. Thomas, J. H. van Lenthe,
                               A. T. Wong, Z. Zhang.

 Total times  cpu:      337.1s     wall:      359.6s
