 argument  1 = H2-2.5.nw



============================== echo of input deck ==============================
title "swnc: e theory=pspw4 xc=hf formula=H2 charge=0 mult=1"
#machinejob:expert

echo

start pspw_hf_H2

memory heap 1200 mb stack 1200 mb global 10 mb

charge 0

geometry
H    0.00000    0.00000   -1.25000
H    0.00000    0.00000    1.25000
end

nwpw
  ### pseudopotential block begin ###
  ### pseudopotential block end   ###
  simulation_cell
     SC 15.0000
     boundary_conditions aperiodic
  end

  cutoff 50.0
  mult 1
  xc hf
  lmbfgs
  tolerances 1.0e-9 1.0e-9

  virtual 4
end
set nwpw:cif_filename H2

#set nwpw:CI_maxit_orb 15
#set nwpw:CI_maxit_linesearch 15
set pspw:HFX_screening_radius 14.0


set nwpw:2qintegrals .true.
set nwpw:3x3_virtual .true.

task pspw energy
================================================================================


                                         
                                         


             Northwest Computational Chemistry Package (NWChem) 7.2.3
             --------------------------------------------------------


                    Environmental Molecular Sciences Laboratory
                       Pacific Northwest National Laboratory
                                Richland, WA 99352

                              Copyright (c) 1994-2022
                       Pacific Northwest National Laboratory
                            Battelle Memorial Institute

             NWChem is an open-source computational chemistry package
                        distributed under the terms of the
                      Educational Community License (ECL) 2.0
             A copy of the license is included with this distribution
                              in the LICENSE.TXT file

                                  ACKNOWLEDGMENT
                                  --------------

            This software and its documentation were developed at the
            EMSL at Pacific Northwest National Laboratory, a multiprogram
            national laboratory, operated for the U.S. Department of Energy
            by Battelle under Contract Number DE-AC05-76RL01830. Support
            for this work was provided by the Department of Energy Office
            of Biological and Environmental Research, Office of Basic
            Energy Sciences, and the Office of Advanced Scientific Computing.


           Job information
           ---------------

    hostname        = mqs-al
    program         = nwchem
    date            = Sat Apr  5 14:06:54 2025

    compiled        = Thu_Oct_31_08:55:15_2024
    source          = /home/conda/feedstock_root/build_artifacts/nwchem_1730356057992/work
    nwchem branch   = 7.2.3
    nwchem revision = c400b04
    ga revision     = 5.8.0
    use scalapack   = T
    input           = H2-2.5.nw
    prefix          = pspw_hf_H2.
    data base       = ./pspw_hf_H2.db
    status          = startup
    nproc           =        4
    time left       =     -1s



           Memory information
           ------------------

    heap     =  157286394 doubles =   1200.0 Mbytes
    stack    =  157286399 doubles =   1200.0 Mbytes
    global   =    1310720 doubles =     10.0 Mbytes (distinct from heap & stack)
    total    =  315883513 doubles =   2410.0 Mbytes
    verify   = yes
    hardfail = no 


           Directory information
           ---------------------

  0 permanent = .
  0 scratch   = .




                                NWChem Input Module
                                -------------------


               swnc: e theory=pspw4 xc=hf formula=H2 charge=0 mult=1
               -----------------------------------------------------

 Scaling coordinates for geometry "geometry" by  1.889725989
 (inverse scale =  0.529177249)

  zeroes
  zeroes
  zeroes
  zeroes
  zeroes
  zeroes
  zeroes
  zeroes
  zeroes
  zeroes
  zeroes
  zeroes
  zeroes
  zeroes
  zeroes
  zeroes
  zeroes
  zeroes
  zeroes
  zeroes
  zeroes
  zeroes
  zeroes
  zeroes
  zeroes
  zeroes
  zeroes
  zeroes
  zeroes
  zeroes
  zeroes
  zeroes
  zeroes
  zeroes
  zeroes
  zeroes
  zeroes
  zeroes
  zeroes
  zeroes
  zeroes
  zeroes
  zeroes
  zeroes
  zeroes
  zeroes
  zeroes
  zeroes
 ORDER OF PRIMARY AXIS IS BEING SET TO 4
 D4H symmetry detected

          ------
          auto-z
          ------
     1 autoz failed with cvr_scaling = 1.2 changing to 1.3
     2 autoz failed with cvr_scaling = 1.3 changing to 1.4
     3 autoz failed with cvr_scaling = 1.4 changing to 1.5
     4 autoz failed with cvr_scaling = 1.5 changing to 1.6
     5 autoz failed with cvr_scaling = 1.6 changing to 1.7

 AUTOZ failed to generate good internal coordinates.
 Cartesian coordinates will be used in optimizations.



                             Geometry "geometry" -> ""
                             -------------------------

 Output coordinates in angstroms (scale by  1.889725989 to convert to a.u.)

  No.       Tag          Charge          X              Y              Z
 ---- ---------------- ---------- -------------- -------------- --------------
    1 H                    1.0000     0.00000000     0.00000000    -1.25000000
    2 H                    1.0000     0.00000000     0.00000000     1.25000000

      Atomic Mass 
      ----------- 

      H                  1.007825


 Effective nuclear repulsion energy (a.u.)       0.2116708996

            Nuclear Dipole moment (a.u.) 
            ----------------------------
        X                 Y               Z
 ---------------- ---------------- ----------------
     0.0000000000     0.0000000000     0.0000000000

      Symmetry information
      --------------------

 Group name             D4h       
 Group number             28
 Group order              16
 No. of unique centers     1

      Symmetry unique atoms

     1


            XYZ format geometry
            -------------------
     2
 geometry
 H                     0.00000000     0.00000000    -1.25000000
 H                     0.00000000     0.00000000     1.25000000

          ****************************************************
          *                                                  *
          *               NWPW PSPW Calculation              *
          *                                                  *
          * [ (Grassmann/Stiefel manifold implementation)  ] *
          *                                                  *
          *      [ NorthWest Chemistry implementation ]      *
          *                                                  *
          *            version #5.10   06/12/02              *
          *                                                  *
          *    This code was developed by Eric J. Bylaska,   *
          *    and was based upon algorithms and code        *
          *    developed by the group of Prof. John H. Weare *
          *                                                  *
          ****************************************************
     >>>  JOB STARTED       AT Sat Apr  5 14:06:54 2025  <<<
          ================ input data ========================

 input psi filename:./pspw_hf_H2.movecs

 number of processors used:         4
 processor grid           :   4 x   1
 parallel mapping         :2d-hilbert
 parallel mapping         :  balanced
 number of threads        :         1
 parallel io              :       off

 options:
      boundary conditions  = aperiodic   (version4)
      electron spin        = restricted
      exchange-correlation = Hartree-Fock
      - HFX relaxed
      - HFX restricted orbitals :    1
      - HFX free-space coulomb solver


 elements involved in the cluster:
      1: H   valence charge:  1.0000  lmax=  1
             comment    : Parameterized (Chem.Phys.Lett., vol 322, page 447) Hamman psp
             pseudpotential type            :   0
             highest angular component      :   1
             local potential used           :   1
             number of non-local projections:   1
             aperiodic cutoff radius        :  1.000
             cutoff =   0.800   0.800


 total charge:   0.000

 atomic composition:
     H   :    2

 number of electrons: spin up=     1 (   1 per task)  down=     1 (   1 per task) (Fourier space)
 number of orbitals : spin up=     1 (   1 per task)  down=     1 (   1 per task) (Fourier space)

 supercell:
      cell_name:  cell_default                                      
      lattice:    a1=<  15.000   0.000   0.000 >
                  a2=<   0.000  15.000   0.000 >
                  a3=<   0.000   0.000  15.000 >
      reciprocal: b1=<   0.419   0.000   0.000 >
                  b2=<   0.000   0.419   0.000 >
                  b3=<   0.000   0.000   0.419 >
      lattice:    a=      15.000 b=     15.000 c=      15.000
                  alpha=  90.000 beta=  90.000 gamma=  90.000
                  omega=      3375.0

      density cutoff=100.000  fft= 70x 70x 70(    80618 waves    20154 per task)
      wavefnc cutoff= 50.000  fft= 70x 70x 70(    28526 waves     7131 per task)

 technical parameters:
      time step=      5.80     fictitious mass=  400000.0
      tolerance=0.100E-08 (energy)   0.100E-08 (density)
      maximum iterations =      1000 (   10 inner    100 outer )





== Energy Calculation ==


          ============ Grassmann lmbfgs iteration ============
     >>>  ITERATION STARTED AT Sat Apr  5 14:07:00 2025  <<<
    iter.           Energy         DeltaE       DeltaRho 
    ------------------------------------------------------
      10   -0.8678258394E+00   -0.16149E-02    0.88138E-02
     -  10 steepest descent iterations performed
      20   -0.8716483911E+00   -0.78182E-04    0.35373E-04
      30   -0.8718162559E+00   -0.39089E-05    0.29466E-05
      40   -0.8718273354E+00   -0.15716E-06    0.17658E-06
      50   -0.8718278348E+00   -0.11264E-07    0.22536E-08
      60   -0.8718278715E+00   -0.91040E-09    0.15477E-09
  *** tolerance ok. iteration terminated
     >>>  ITERATION ENDED   AT Sat Apr  5 14:07:20 2025  <<<


==  Summary Of Results  ==

 number of electrons: spin up=    1.00000  down=    1.00000 (real space)

 total     energy    :  -0.8718278715E+00 (   -0.43591E+00/ion)
 total orbital energy:  -0.7133853798E+00 (   -0.71339E+00/electron)
 hartree   energy    :   0.7402267825E+00 (    0.74023E+00/electron)
 exc-corr  energy    :   0.0000000000E+00 (    0.00000E+00/electron)
 HF exchange energy  :  -0.3701133912E+00 (   -0.37011E+00/electron)
 ion-ion   energy    :   0.2116708996E+00 (    0.10584E+00/ion)

 kinetic (planewave) :   0.6112860691E+00 (    0.61129E+00/electron)
 V_local (planewave) :  -0.1917596319E+01 (   -0.19176E+01/electron)
 V_nl    (planewave) :  -0.1473019119E+00 (   -0.14730E+00/electron)
 V_Coul  (planewave) :   0.1480453565E+01 (    0.14805E+01/electron)
 V_xc.   (planewave) :   0.0000000000E+00 (    0.00000E+00/electron)
 K.S. HFX energy     :  -0.7402267825E+00 (   -0.74023E+00/electron)
 Virial Coefficient  :  -0.9560902759E+00

 orbital energies:
    -0.3566927E+00 (  -9.706eV)


== Virtual Orbital Calculation ==


 input epsi filename:./pspw_hf_H2.emovecs

 COVOs Mimimization
 ------------------
CI gradient algorithm =         3
maxit_sweeps          =         3
maxit_orb             =       120
maxit_linesearch      =        15
maxerror              = 0.100E-08

     orb,it,eci,eold,eci-eold=                    1                    1 -0.95121056849916896      -0.94264859308575910       -8.5619754134098613E-003 F
     orb,it,eci,eold,eci-eold=                    1                    2 -0.95220812215761108      -0.95121056849916896       -9.9755365844211852E-004 F
     orb,it,eci,eold,eci-eold=                    1                    3 -0.95589802587046269      -0.95220812215761108       -3.6899037128516055E-003 F
     orb,it,eci,eold,eci-eold=                    1                    4 -0.95752719953431320      -0.95589802587046269       -1.6291736638505139E-003 F
     orb,it,eci,eold,eci-eold=                    1                    5 -0.96274047018109954      -0.95752719953431320       -5.2132706467863388E-003 F
     orb,it,eci,eold,eci-eold=                    1                    6 -0.96475107034150176      -0.96274047018109954       -2.0106001604022206E-003 F
     orb,it,eci,eold,eci-eold=                    1                    7 -0.96518761763743011      -0.96475107034150176       -4.3654729592834673E-004 F
     orb,it,eci,eold,eci-eold=                    1                    8 -0.96617149204086161      -0.96518761763743011       -9.8387440343150612E-004 F
     orb,it,eci,eold,eci-eold=                    1                    9 -0.96635851794348770      -0.96617149204086161       -1.8702590262609231E-004 F
     orb,it,eci,eold,eci-eold=                    1                   10 -0.96699782728900496      -0.96635851794348770       -6.3930934551725827E-004 F
     orb,it,eci,eold,eci-eold=                    1                   11 -0.96860252954858250      -0.96699782728900496       -1.6047022595775395E-003 F
     orb,it,eci,eold,eci-eold=                    1                   12 -0.97090662875555789      -0.96860252954858250       -2.3040992069753852E-003 F
     orb,it,eci,eold,eci-eold=                    1                   13 -0.97151663252938802      -0.97090662875555789       -6.1000377383013671E-004 F
     orb,it,eci,eold,eci-eold=                    1                   14 -0.97173775746413582      -0.97151663252938802       -2.2112493474779615E-004 F
     orb,it,eci,eold,eci-eold=                    1                   15 -0.97298254625585578      -0.97173775746413582       -1.2447887917199640E-003 F
     orb,it,eci,eold,eci-eold=                    1                   16 -0.97483261081203665      -0.97298254625585578       -1.8500645561808637E-003 F
     orb,it,eci,eold,eci-eold=                    1                   17 -0.97584537652670067      -0.97483261081203665       -1.0127657146640212E-003 F
     orb,it,eci,eold,eci-eold=                    1                   18 -0.97795049218313568      -0.97584537652670067       -2.1051156564350082E-003 F
     orb,it,eci,eold,eci-eold=                    1                   19 -0.97846078790692026      -0.97795049218313568       -5.1029572378458177E-004 F
     orb,it,eci,eold,eci-eold=                    1                   20 -0.97869763612943617      -0.97846078790692026       -2.3684822251590631E-004 F
     orb,it,eci,eold,eci-eold=                    1                   21 -0.97980309214514971      -0.97869763612943617       -1.1054560157135462E-003 F
     orb,it,eci,eold,eci-eold=                    1                   22 -0.97990987874512459      -0.97980309214514971       -1.0678659997487294E-004 F
     orb,it,eci,eold,eci-eold=                    1                   23 -0.98006035050671747      -0.97990987874512459       -1.5047176159288522E-004 F
     orb,it,eci,eold,eci-eold=                    1                   24 -0.98137029443300161      -0.98006035050671747       -1.3099439262841406E-003 F
     orb,it,eci,eold,eci-eold=                    1                   25 -0.98203112698555861      -0.98137029443300161       -6.6083255255700024E-004 F
     orb,it,eci,eold,eci-eold=                    1                   26 -0.98215509492696484      -0.98203112698555861       -1.2396794140623335E-004 F
     orb,it,eci,eold,eci-eold=                    1                   27 -0.98286428494949774      -0.98215509492696484       -7.0919002253289065E-004 F
     orb,it,eci,eold,eci-eold=                    1                   28 -0.98312286573891039      -0.98286428494949774       -2.5858078941265461E-004 F
     orb,it,eci,eold,eci-eold=                    1                   29 -0.98333296146478422      -0.98312286573891039       -2.1009572587382674E-004 F
     orb,it,eci,eold,eci-eold=                    1                   30 -0.98418258513362766      -0.98333296146478422       -8.4962366884344664E-004 F
     orb,it,eci,eold,eci-eold=                    1                   31 -0.98426267865730588      -0.98418258513362766       -8.0093523678215206E-005 F
     orb,it,eci,eold,eci-eold=                    1                   32 -0.98430614451404219      -0.98426267865730588       -4.3465856736313313E-005 F
     orb,it,eci,eold,eci-eold=                    1                   33 -0.98504573394505202      -0.98430614451404219       -7.3958943100982388E-004 F
     orb,it,eci,eold,eci-eold=                    1                   34 -0.98519969760515069      -0.98504573394505202       -1.5396366009867712E-004 F
     orb,it,eci,eold,eci-eold=                    1                   35 -0.98521844527507985      -0.98519969760515069       -1.8747669929153332E-005 F
     orb,it,eci,eold,eci-eold=                    1                   36 -0.98566674409182065      -0.98521844527507985       -4.4829881674079974E-004 F
     orb,it,eci,eold,eci-eold=                    1                   37 -0.98576706905716160      -0.98566674409182065       -1.0032496534095880E-004 F
     orb,it,eci,eold,eci-eold=                    1                   38 -0.98580443574037424      -0.98576706905716160       -3.7366683212636254E-005 F
     orb,it,eci,eold,eci-eold=                    1                   39 -0.98633109583042744      -0.98580443574037424       -5.2666009005319925E-004 F
     orb,it,eci,eold,eci-eold=                    1                   40 -0.98644635417984983      -0.98633109583042744       -1.1525834942238689E-004 F
     orb,it,eci,eold,eci-eold=                    1                   41 -0.98648652392864078      -0.98644635417984983       -4.0169748790952475E-005 F
     orb,it,eci,eold,eci-eold=                    1                   42 -0.98689279246553596      -0.98648652392864078       -4.0626853689518239E-004 F
     orb,it,eci,eold,eci-eold=                    1                   43 -0.98709819229889173      -0.98689279246553596       -2.0539983335576828E-004 F
     orb,it,eci,eold,eci-eold=                    1                   44 -0.98727478972111149      -0.98709819229889173       -1.7659742221975971E-004 F
     orb,it,eci,eold,eci-eold=                    1                   45 -0.98737548674590392      -0.98727478972111149       -1.0069702479242881E-004 F
     orb,it,eci,eold,eci-eold=                    1                   46 -0.98757510015680228      -0.98737548674590392       -1.9961341089835827E-004 F
     orb,it,eci,eold,eci-eold=                    1                   47 -0.98769161941954564      -0.98757510015680228       -1.1651926274336422E-004 F
     orb,it,eci,eold,eci-eold=                    1                   48 -0.98782243334629893      -0.98769161941954564       -1.3081392675329262E-004 F
     orb,it,eci,eold,eci-eold=                    1                   49 -0.98788535459952365      -0.98782243334629893       -6.2921253224712537E-005 F
     orb,it,eci,eold,eci-eold=                    1                   50 -0.98797906500710608      -0.98788535459952365       -9.3710407582436872E-005 F
     orb,it,eci,eold,eci-eold=                    1                   51 -0.98803767311836999      -0.98797906500710608       -5.8608111263902529E-005 F
     orb,it,eci,eold,eci-eold=                    1                   52 -0.98813033240006232      -0.98803767311836999       -9.2659281692331064E-005 F
     orb,it,eci,eold,eci-eold=                    1                   53 -0.98817988261302026      -0.98813033240006232       -4.9550212957938378E-005 F
     orb,it,eci,eold,eci-eold=                    1                   54 -0.98823510096634415      -0.98817988261302026       -5.5218353323893687E-005 F
     orb,it,eci,eold,eci-eold=                    1                   55 -0.98826311483519391      -0.98823510096634415       -2.8013868849763313E-005 F
     orb,it,eci,eold,eci-eold=                    1                   56 -0.98831216226120655      -0.98826311483519391       -4.9047426012638340E-005 F
     orb,it,eci,eold,eci-eold=                    1                   57 -0.98831387976895679      -0.98831216226120655       -1.7175077502429303E-006 F
     orb,it,eci,eold,eci-eold=                    1                   58 -0.98831757570192846      -0.98831387976895679       -3.6959329716701461E-006 F
     orb,it,eci,eold,eci-eold=                    1                   59 -0.98834958467637579      -0.98831757570192846       -3.2008974447328420E-005 F
     orb,it,eci,eold,eci-eold=                    1                   60 -0.98835875197948431      -0.98834958467637579       -9.1673031085148793E-006 F
     orb,it,eci,eold,eci-eold=                    1                   61 -0.98836275106571458      -0.98835875197948431       -3.9990862302774488E-006 F
     orb,it,eci,eold,eci-eold=                    1                   62 -0.98839689563788058      -0.98836275106571458       -3.4144572165994980E-005 F
     orb,it,eci,eold,eci-eold=                    1                   63 -0.98841553926946935      -0.98839689563788058       -1.8643631588766141E-005 F
     orb,it,eci,eold,eci-eold=                    1                   64 -0.98841907543574048      -0.98841553926946935       -3.5361662711341779E-006 F
     orb,it,eci,eold,eci-eold=                    1                   65 -0.98843923981593795      -0.98841907543574048       -2.0164380197473797E-005 F
     orb,it,eci,eold,eci-eold=                    1                   66 -0.98844604185318852      -0.98843923981593795       -6.8020372505639415E-006 F
     orb,it,eci,eold,eci-eold=                    1                   67 -0.98844921616822901      -0.98844604185318852       -3.1743150404883735E-006 F
     orb,it,eci,eold,eci-eold=                    1                   68 -0.98846767475439912      -0.98844921616822901       -1.8458586170111424E-005 F
     orb,it,eci,eold,eci-eold=                    1                   69 -0.98847417151138151      -0.98846767475439912       -6.4967569823881632E-006 F
     orb,it,eci,eold,eci-eold=                    1                   70 -0.98847568837043698      -0.98847417151138151       -1.5168590554726080E-006 F
     orb,it,eci,eold,eci-eold=                    1                   71 -0.98848874650145024      -0.98847568837043698       -1.3058131013266028E-005 F
     orb,it,eci,eold,eci-eold=                    1                   72 -0.98849520050255646      -0.98848874650145024       -6.4540011062153013E-006 F
     orb,it,eci,eold,eci-eold=                    1                   73 -0.98849772488005094      -0.98849520050255646       -2.5243774944838648E-006 F
     orb,it,eci,eold,eci-eold=                    1                   74 -0.98850861281877700      -0.98849772488005094       -1.0887938726056312E-005 F
     orb,it,eci,eold,eci-eold=                    1                   75 -0.98851306712083264      -0.98850861281877700       -4.4543020556453428E-006 F
     orb,it,eci,eold,eci-eold=                    1                   76 -0.98851516128599903      -0.98851306712083264       -2.0941651663886063E-006 F
     orb,it,eci,eold,eci-eold=                    1                   77 -0.98852432199113316      -0.98851516128599903       -9.1607051341258128E-006 F
     orb,it,eci,eold,eci-eold=                    1                   78 -0.98852709201633693      -0.98852432199113316       -2.7700252037687889E-006 F
     orb,it,eci,eold,eci-eold=                    1                   79 -0.98852808937939307      -0.98852709201633693       -9.9736305614328558E-007 F
     orb,it,eci,eold,eci-eold=                    1                   80 -0.98853592359639086      -0.98852808937939307       -7.8342169977929643E-006 F
     orb,it,eci,eold,eci-eold=                    1                   81 -0.98853994360366049      -0.98853592359639086       -4.0200072696228162E-006 F
     orb,it,eci,eold,eci-eold=                    1                   82 -0.98854114705179164      -0.98853994360366049       -1.2034481311484768E-006 F
     orb,it,eci,eold,eci-eold=                    1                   83 -0.98854687593443891      -0.98854114705179164       -5.7288826472712273E-006 F
     orb,it,eci,eold,eci-eold=                    1                   84 -0.98854834860855023      -0.98854687593443891       -1.4726741113246788E-006 F
     orb,it,eci,eold,eci-eold=                    1                   85 -0.98854885826110728      -0.98854834860855023       -5.0965255704582546E-007 F
     orb,it,eci,eold,eci-eold=                    1                   86 -0.98855424512701173      -0.98854885826110728       -5.3868659044553624E-006 F
     orb,it,eci,eold,eci-eold=                    1                   87 -0.98855718107026369      -0.98855424512701173       -2.9359432519582285E-006 F
     orb,it,eci,eold,eci-eold=                    1                   88 -0.98855785625863779      -0.98855718107026369       -6.7518837409963339E-007 F
     orb,it,eci,eold,eci-eold=                    1                   89 -0.98856156800888495      -0.98855785625863779       -3.7117502471595287E-006 F
     orb,it,eci,eold,eci-eold=                    1                   90 -0.98856274200971983      -0.98856156800888495       -1.1740008348803954E-006 F
     orb,it,eci,eold,eci-eold=                    1                   91 -0.98856315378612436      -0.98856274200971983       -4.1177640452971787E-007 F
     orb,it,eci,eold,eci-eold=                    1                   92 -0.98856656941872478      -0.98856315378612436       -3.4156326004231019E-006 F
     orb,it,eci,eold,eci-eold=                    1                   93 -0.98856835527751752      -0.98856656941872478       -1.7858587927355174E-006 F
     orb,it,eci,eold,eci-eold=                    1                   94 -0.98856890599688707      -0.98856835527751752       -5.5071936955197742E-007 F
     orb,it,eci,eold,eci-eold=                    1                   95 -0.98857165819302029      -0.98856890599688707       -2.7521961332155342E-006 F
     orb,it,eci,eold,eci-eold=                    1                   96 -0.98857249735272301      -0.98857165819302029       -8.3915970272574469E-007 F
     orb,it,eci,eold,eci-eold=                    1                   97 -0.98857264327378636      -0.98857249735272301       -1.4592106334365695E-007 F
     orb,it,eci,eold,eci-eold=                    1                   98 -0.98857461058529428      -0.98857264327378636       -1.9673115079221759E-006 F
     orb,it,eci,eold,eci-eold=                    1                   99 -0.98857563148720973      -0.98857461058529428       -1.0209019154494570E-006 F
     orb,it,eci,eold,eci-eold=                    1                  100 -0.98857597506278239      -0.98857563148720973       -3.4357557265884964E-007 F
     orb,it,eci,eold,eci-eold=                    1                  101 -0.98857758355005343      -0.98857597506278239       -1.6084872710431242E-006 F
     orb,it,eci,eold,eci-eold=                    1                  102 -0.98857823231010744      -0.98857758355005343       -6.4876005401171000E-007 F
     orb,it,eci,eold,eci-eold=                    1                  103 -0.98857852638032750      -0.98857823231010744       -2.9407022006378014E-007 F
     orb,it,eci,eold,eci-eold=                    1                  104 -0.98857999850804434      -0.98857852638032750       -1.4721277168394664E-006 F
     orb,it,eci,eold,eci-eold=                    1                  105 -0.98858059355472572      -0.98857999850804434       -5.9504668137311256E-007 F
     orb,it,eci,eold,eci-eold=                    1                  106 -0.98858077666160193      -0.98858059355472572       -1.8310687621703181E-007 F
     orb,it,eci,eold,eci-eold=                    1                  107 -0.98858187024638000      -0.98858077666160193       -1.0935847780668695E-006 F
     orb,it,eci,eold,eci-eold=                    1                  108 -0.98858228276961047      -0.98858187024638000       -4.1252323046414574E-007 F
     orb,it,eci,eold,eci-eold=                    1                  109 -0.98858242451342737      -0.98858228276961047       -1.4174381690601479E-007 F
     orb,it,eci,eold,eci-eold=                    1                  110 -0.98858335870704628      -0.98858242451342737       -9.3419361890667574E-007 F
     orb,it,eci,eold,eci-eold=                    1                  111 -0.98858378844204187      -0.98858335870704628       -4.2973499558840444E-007 F
     orb,it,eci,eold,eci-eold=                    1                  112 -0.98858391867337525      -0.98858378844204187       -1.3023133338396775E-007 F
     orb,it,eci,eold,eci-eold=                    1                  113 -0.98858458624094436      -0.98858391867337525       -6.6756756911257042E-007 F
     orb,it,eci,eold,eci-eold=                    1                  114 -0.98858473137592950      -0.98858458624094436       -1.4513498514112655E-007 F
     orb,it,eci,eold,eci-eold=                    1                  115 -0.98858476405070128      -0.98858473137592950       -3.2674771777152500E-008 F
     orb,it,eci,eold,eci-eold=                    1                  116 -0.98858531478620648      -0.98858476405070128       -5.5073550520035042E-007 F
     orb,it,eci,eold,eci-eold=                    1                  117 -0.98858564158621942      -0.98858531478620648       -3.2680001293972083E-007 F
     orb,it,eci,eold,eci-eold=                    1                  118 -0.98858575469798771      -0.98858564158621942       -1.1311176828510128E-007 F
     orb,it,eci,eold,eci-eold=                    1                  119 -0.98858624099775194      -0.98858575469798771       -4.8629976423519850E-007 F
     orb,it,eci,eold,eci-eold=                    1                  120 -0.98858642075452641      -0.98858624099775194       -1.7975677446546712E-007 F
     orb,it,eci,eold,eci-eold=                    1                  121 -0.98858648173030050      -0.98858642075452641       -6.0975774096583280E-008 F
     orbital   1 current e= -0.767340E-01 error=0.115E+00 (eci= -0.988586482E+00 error=0.610E-07) iterations 121(   0 preconditioned, Ep,Sp= 20.0  200.0)
     orb,it,eci,eold,eci-eold=                    1                    1 -0.98858779527834995      -0.98858648173030050       -1.3135480494419483E-006 F
     orb,it,eci,eold,eci-eold=                    1                    2 -0.98858814925509619      -0.98858779527834995       -3.5397674624793041E-007 F
     orb,it,eci,eold,eci-eold=                    1                    3 -0.98858817976748281      -0.98858814925509619       -3.0512386617331799E-008 F
     orb,it,eci,eold,eci-eold=                    1                    4 -0.98858865282278297      -0.98858817976748281       -4.7305530015417929E-007 F
     orb,it,eci,eold,eci-eold=                    1                    5 -0.98858886467536244      -0.98858865282278297       -2.1185257947919922E-007 F
     orb,it,eci,eold,eci-eold=                    1                    6 -0.98858891927033532      -0.98858886467536244       -5.4594972875854353E-008 F
     orb,it,eci,eold,eci-eold=                    1                    7 -0.98858903864801362      -0.98858891927033532       -1.1937767829817147E-007 F
     orb,it,eci,eold,eci-eold=                    1                    8 -0.98858904212000509      -0.98858903864801362       -3.4719914721037526E-009 F
     orb,it,eci,eold,eci-eold=                    1                    9 -0.98858913371978030      -0.98858904212000509       -9.1599775209338929E-008 F
     orb,it,eci,eold,eci-eold=                    1                   10 -0.98858922919413250      -0.98858913371978030       -9.5474352201918578E-008 F
     orb,it,eci,eold,eci-eold=                    1                   11 -0.98858927751709702      -0.98858922919413250       -4.8322964518732192E-008 F
     orb,it,eci,eold,eci-eold=                    1                   12 -0.98858935251530322      -0.98858927751709702       -7.4998206200938000E-008 F
     orb,it,eci,eold,eci-eold=                    1                   13 -0.98858935672485837      -0.98858935251530322       -4.2095551489040872E-009 F
     orb,it,eci,eold,eci-eold=                    1                   14 -0.98858937767668853      -0.98858935672485837       -2.0951830159710028E-008 F
     orb,it,eci,eold,eci-eold=                    1                   15 -0.98858941539676359      -0.98858937767668853       -3.7720075063418790E-008 F
     orb,it,eci,eold,eci-eold=                    1                   16 -0.98858943864439752      -0.98858941539676359       -2.3247633929024403E-008 F
     orb,it,eci,eold,eci-eold=                    1                   17 -0.98858948013474812      -0.98858943864439752       -4.1490350599637793E-008 F
     orb,it,eci,eold,eci-eold=                    1                   18 -0.98858950199770634      -0.98858948013474812       -2.1862958221596784E-008 F
     orb,it,eci,eold,eci-eold=                    1                   19 -0.98858952014820911      -0.98858950199770634       -1.8150502767433352E-008 F
     orb,it,eci,eold,eci-eold=                    1                   20 -0.98858952833905556      -0.98858952014820911       -8.1908464455437979E-009 F
     orb,it,eci,eold,eci-eold=                    1                   21 -0.98858954042331504      -0.98858952833905556       -1.2084259481959236E-008 F
     orb,it,eci,eold,eci-eold=                    1                   22 -0.98858954764586171      -0.98858954042331504       -7.2225466718478515E-009 F
     orb,it,eci,eold,eci-eold=                    1                   23 -0.98858955500128154      -0.98858954764586171       -7.3554198287695272E-009 F
     orb,it,eci,eold,eci-eold=                    1                   24 -0.98858955833193263      -0.98858955500128154       -3.3306510882624707E-009 F
     orb,it,eci,eold,eci-eold=                    1                   25 -0.98858956534682219      -0.98858955833193263       -7.0148895581212400E-009 F
     orb,it,eci,eold,eci-eold=                    1                   26 -0.98858956562291611      -0.98858956534682219       -2.7609392549976519E-010 F
     orbital   1 current e= -0.767837E-01 error=0.497E-04 (eci= -0.988589566E+00 error=0.276E-09) iterations  26(   0 preconditioned, Ep,Sp= 20.0  200.0)
     orb,it,eci,eold,eci-eold=                    1                    1 -0.98858957369467249      -0.98858956562291611       -8.0717563744059362E-009 F
     orb,it,eci,eold,eci-eold=                    1                    2 -0.98858957369467249      -0.98858957369467249        0.0000000000000000      F
     orbital   1 current e= -0.767835E-01 error=0.152E-06 (eci= -0.988589574E+00 error=0.000E+00) iterations   2(   0 preconditioned, Ep,Sp= 20.0  200.0)
     orb,it,eci,eold,eci-eold=                    2                    1 -0.87467273175448579      -0.87435338975417898       -3.1934200030681037E-004 F
     orb,it,eci,eold,eci-eold=                    2                    2 -0.87473565203726733      -0.87467273175448579       -6.2920282781542269E-005 F
     orb,it,eci,eold,eci-eold=                    2                    3 -0.87477498675307919      -0.87473565203726733       -3.9334715811856213E-005 F
     orb,it,eci,eold,eci-eold=                    2                    4 -0.87479101796352199      -0.87477498675307919       -1.6031210442801758E-005 F
     orb,it,eci,eold,eci-eold=                    2                    5 -0.87483151027439154      -0.87479101796352199       -4.0492310869555403E-005 F
     orb,it,eci,eold,eci-eold=                    2                    6 -0.87485781901075410      -0.87483151027439154       -2.6308736362556928E-005 F
     orb,it,eci,eold,eci-eold=                    2                    7 -0.87490522326495435      -0.87485781901075410       -4.7404254200245077E-005 F
     orb,it,eci,eold,eci-eold=                    2                    8 -0.87491771981943378      -0.87490522326495435       -1.2496554479435318E-005 F
     orb,it,eci,eold,eci-eold=                    2                    9 -0.87493435483816484      -0.87491771981943378       -1.6635018731059326E-005 F
     orb,it,eci,eold,eci-eold=                    2                   10 -0.87497933959295637      -0.87493435483816484       -4.4984754791532744E-005 F
     orb,it,eci,eold,eci-eold=                    2                   11 -0.87500457646401708      -0.87497933959295637       -2.5236871060707600E-005 F
     orb,it,eci,eold,eci-eold=                    2                   12 -0.87502835354678021      -0.87500457646401708       -2.3777082763132285E-005 F
     orb,it,eci,eold,eci-eold=                    2                   13 -0.87506928753207924      -0.87502835354678021       -4.0933985299029807E-005 F
     orb,it,eci,eold,eci-eold=                    2                   14 -0.87507105399884133      -0.87506928753207924       -1.7664667620875818E-006 F
     orb,it,eci,eold,eci-eold=                    2                   15 -0.87508500860391392      -0.87507105399884133       -1.3954605072585835E-005 F
     orb,it,eci,eold,eci-eold=                    2                   16 -0.87512956778424522      -0.87508500860391392       -4.4559180331305015E-005 F
     orb,it,eci,eold,eci-eold=                    2                   17 -0.87514512575821723      -0.87512956778424522       -1.5557973972013528E-005 F
     orb,it,eci,eold,eci-eold=                    2                   18 -0.87516273218896079      -0.87514512575821723       -1.7606430743555279E-005 F
     orb,it,eci,eold,eci-eold=                    2                   19 -0.87521581588600639      -0.87516273218896079       -5.3083697045597233E-005 F
     orb,it,eci,eold,eci-eold=                    2                   20 -0.87523067979345048      -0.87521581588600639       -1.4863907444095936E-005 F
     orb,it,eci,eold,eci-eold=                    2                   21 -0.87525015658660721      -0.87523067979345048       -1.9476793156725236E-005 F
     orb,it,eci,eold,eci-eold=                    2                   22 -0.87531257580905641      -0.87525015658660721       -6.2419222449205947E-005 F
     orb,it,eci,eold,eci-eold=                    2                   23 -0.87532080886410957      -0.87531257580905641       -8.2330550531528601E-006 F
     orb,it,eci,eold,eci-eold=                    2                   24 -0.87533864465868827      -0.87532080886410957       -1.7835794578702213E-005 F
     orb,it,eci,eold,eci-eold=                    2                   25 -0.87539964519005242      -0.87533864465868827       -6.1000531364152621E-005 F
     orb,it,eci,eold,eci-eold=                    2                   26 -0.87540520803844002      -0.87539964519005242       -5.5628483875969081E-006 F
     orb,it,eci,eold,eci-eold=                    2                   27 -0.87542759283346216      -0.87540520803844002       -2.2384795022145632E-005 F
     orb,it,eci,eold,eci-eold=                    2                   28 -0.87547686533627844      -0.87542759283346216       -4.9272502816277708E-005 F
     orb,it,eci,eold,eci-eold=                    2                   29 -0.87548158163190193      -0.87547686533627844       -4.7162956234858555E-006 F
     orb,it,eci,eold,eci-eold=                    2                   30 -0.87548812763321315      -0.87548158163190193       -6.5460013112250692E-006 F
     orb,it,eci,eold,eci-eold=                    2                   31 -0.87553059927736820      -0.87548812763321315       -4.2471644155051003E-005 F
     orb,it,eci,eold,eci-eold=                    2                   32 -0.87553843125040953      -0.87553059927736820       -7.8319730413278776E-006 F
     orb,it,eci,eold,eci-eold=                    2                   33 -0.87553866950001280      -0.87553843125040953       -2.3824960326823685E-007 F
     orb,it,eci,eold,eci-eold=                    2                   34 -0.87557751102134584      -0.87553866950001280       -3.8841521333043971E-005 F
     orb,it,eci,eold,eci-eold=                    2                   35 -0.87558020756407928      -0.87557751102134584       -2.6965427334380010E-006 F
     orb,it,eci,eold,eci-eold=                    2                   36 -0.87558051227370459      -0.87558020756407928       -3.0470962530948498E-007 F
     orb,it,eci,eold,eci-eold=                    2                   37 -0.87560473949618967      -0.87558051227370459       -2.4227222485073696E-005 F
     orb,it,eci,eold,eci-eold=                    2                   38 -0.87560553767459914      -0.87560473949618967       -7.9817840947793428E-007 F
     orb,it,eci,eold,eci-eold=                    2                   39 -0.87560676506908486      -0.87560553767459914       -1.2273944857144059E-006 F
     orb,it,eci,eold,eci-eold=                    2                   40 -0.87562206819892763      -0.87560676506908486       -1.5303129842769714E-005 F
     orb,it,eci,eold,eci-eold=                    2                   41 -0.87562966974544498      -0.87562206819892763       -7.6015465173551178E-006 F
     orb,it,eci,eold,eci-eold=                    2                   42 -0.87563419182947044      -0.87562966974544498       -4.5220840254600603E-006 F
     orb,it,eci,eold,eci-eold=                    2                   43 -0.87563617100283286      -0.87563419182947044       -1.9791733624208163E-006 F
     orb,it,eci,eold,eci-eold=                    2                   44 -0.87564083690291938      -0.87563617100283286       -4.6659000865201250E-006 F
     orb,it,eci,eold,eci-eold=                    2                   45 -0.87564093404536458      -0.87564083690291938       -9.7142445198983296E-008 F
     orb,it,eci,eold,eci-eold=                    2                   46 -0.87564150828532361      -0.87564093404536458       -5.7423995902805558E-007 F
     orb,it,eci,eold,eci-eold=                    2                   47 -0.87564525887371603      -0.87564150828532361       -3.7505883924149330E-006 F
     orb,it,eci,eold,eci-eold=                    2                   48 -0.87564734980088588      -0.87564525887371603       -2.0909271698510423E-006 F
     orb,it,eci,eold,eci-eold=                    2                   49 -0.87564805733419382      -0.87564734980088588       -7.0753330794204317E-007 F
     orb,it,eci,eold,eci-eold=                    2                   50 -0.87564823408142067      -0.87564805733419382       -1.7674722685434574E-007 F
     orb,it,eci,eold,eci-eold=                    2                   51 -0.87564931495987941      -0.87564823408142067       -1.0808784587368336E-006 F
     orb,it,eci,eold,eci-eold=                    2                   52 -0.87564965800869288      -0.87564931495987941       -3.4304881346702842E-007 F
     orb,it,eci,eold,eci-eold=                    2                   53 -0.87564986299921954      -0.87564965800869288       -2.0499052666433926E-007 F
     orb,it,eci,eold,eci-eold=                    2                   54 -0.87565062647420189      -0.87564986299921954       -7.6347498234596856E-007 F
     orb,it,eci,eold,eci-eold=                    2                   55 -0.87565108851805040      -0.87565062647420189       -4.6204384851478153E-007 F
     orb,it,eci,eold,eci-eold=                    2                   56 -0.87565146917975567      -0.87565108851805040       -3.8066170526818155E-007 F
     orb,it,eci,eold,eci-eold=                    2                   57 -0.87565166456464250      -0.87565146917975567       -1.9538488682524502E-007 F
     orb,it,eci,eold,eci-eold=                    2                   58 -0.87565204131386365      -0.87565166456464250       -3.7674922115371601E-007 F
     orb,it,eci,eold,eci-eold=                    2                   59 -0.87565215209484371      -0.87565204131386365       -1.1078098005601333E-007 F
     orb,it,eci,eold,eci-eold=                    2                   60 -0.87565228800548756      -0.87565215209484371       -1.3591064385032325E-007 F
     orb,it,eci,eold,eci-eold=                    2                   61 -0.87565273745587791      -0.87565228800548756       -4.4945039034960388E-007 F
     orb,it,eci,eold,eci-eold=                    2                   62 -0.87565281397577155      -0.87565273745587791       -7.6519893643656189E-008 F
     orb,it,eci,eold,eci-eold=                    2                   63 -0.87565283563922303      -0.87565281397577155       -2.1663451477138551E-008 F
     orb,it,eci,eold,eci-eold=                    2                   64 -0.87565311499592480      -0.87565283563922303       -2.7935670177114957E-007 F
     orb,it,eci,eold,eci-eold=                    2                   65 -0.87565311765559928      -0.87565311499592480       -2.6596744806539618E-009 F
     orb,it,eci,eold,eci-eold=                    2                   66 -0.87565325993971799      -0.87565311765559928       -1.4228411870931268E-007 F
     orb,it,eci,eold,eci-eold=                    2                   67 -0.87565377242113018      -0.87565325993971799       -5.1248141219595311E-007 F
     orb,it,eci,eold,eci-eold=                    2                   68 -0.87565378288429541      -0.87565377242113018       -1.0463165223129067E-008 F
     orb,it,eci,eold,eci-eold=                    2                   69 -0.87565379992934067      -0.87565378288429541       -1.7045045264119096E-008 F
     orb,it,eci,eold,eci-eold=                    2                   70 -0.87565421380402841      -0.87565379992934067       -4.1387468774356506E-007 F
     orb,it,eci,eold,eci-eold=                    2                   71 -0.87565439763742603      -0.87565421380402841       -1.8383339761562922E-007 F
     orb,it,eci,eold,eci-eold=                    2                   72 -0.87565466985988538      -0.87565439763742603       -2.7222245935210054E-007 F
     orb,it,eci,eold,eci-eold=                    2                   73 -0.87565467566786004      -0.87565466985988538       -5.8079746567685220E-009 F
     orb,it,eci,eold,eci-eold=                    2                   74 -0.87565478949069775      -0.87565467566786004       -1.1382283771066426E-007 F
     orb,it,eci,eold,eci-eold=                    2                   75 -0.87565515933995597      -0.87565478949069775       -3.6984925821936798E-007 F
     orb,it,eci,eold,eci-eold=                    2                   76 -0.87565536592436044      -0.87565515933995597       -2.0658440447185455E-007 F
     orb,it,eci,eold,eci-eold=                    2                   77 -0.87565552929391610      -0.87565536592436044       -1.6336955566131905E-007 F
     orb,it,eci,eold,eci-eold=                    2                   78 -0.87565559783398794      -0.87565552929391610       -6.8540071840317296E-008 F
     orb,it,eci,eold,eci-eold=                    2                   79 -0.87565573517108719      -0.87565559783398794       -1.3733709924856896E-007 F
     orb,it,eci,eold,eci-eold=                    2                   80 -0.87565582450026613      -0.87565573517108719       -8.9329178942776366E-008 F
     orb,it,eci,eold,eci-eold=                    2                   81 -0.87565592120330749      -0.87565582450026613       -9.6703041352341756E-008 F
     orb,it,eci,eold,eci-eold=                    2                   82 -0.87565596115572308      -0.87565592120330749       -3.9952415598065727E-008 F
     orb,it,eci,eold,eci-eold=                    2                   83 -0.87565602074066562      -0.87565596115572308       -5.9584942535551022E-008 F
     orb,it,eci,eold,eci-eold=                    2                   84 -0.87565605587258022      -0.87565602074066562       -3.5131914599695335E-008 F
     orb,it,eci,eold,eci-eold=                    2                   85 -0.87565610447027098      -0.87565605587258022       -4.8597690760487922E-008 F
     orb,it,eci,eold,eci-eold=                    2                   86 -0.87565613126960429      -0.87565610447027098       -2.6799333308069606E-008 F
     orb,it,eci,eold,eci-eold=                    2                   87 -0.87565615770056104      -0.87565613126960429       -2.6430956756584578E-008 F
     orb,it,eci,eold,eci-eold=                    2                   88 -0.87565616860781992      -0.87565615770056104       -1.0907258873871228E-008 F
     orb,it,eci,eold,eci-eold=                    2                   89 -0.87565619019948326      -0.87565616860781992       -2.1591663346143264E-008 F
     orb,it,eci,eold,eci-eold=                    2                   90 -0.87565620409316502      -0.87565619019948326       -1.3893681760634990E-008 F
     orb,it,eci,eold,eci-eold=                    2                   91 -0.87565621571762453      -0.87565620409316502       -1.1624459506087703E-008 F
     orb,it,eci,eold,eci-eold=                    2                   92 -0.87565622042526359      -0.87565621571762453       -4.7076390563560722E-009 F
     orb,it,eci,eold,eci-eold=                    2                   93 -0.87565623069345877      -0.87565622042526359       -1.0268195183016360E-008 F
     orb,it,eci,eold,eci-eold=                    2                   94 -0.87565623125189074      -0.87565623069345877       -5.5843196733462719E-010 F
     orbital   2 current e=  0.493084E+00 error=0.108E+00 (eci= -0.875656231E+00 error=0.558E-09) iterations  94(   0 preconditioned, Ep,Sp= 20.0  200.0)
     orb,it,eci,eold,eci-eold=                    2                    1 -0.87565624471038728      -0.87565623125189074       -1.3458496539442422E-008 F
     orb,it,eci,eold,eci-eold=                    2                    2 -0.87565624803049624      -0.87565624471038728       -3.3201089655321425E-009 F
     orb,it,eci,eold,eci-eold=                    2                    3 -0.87565625950784809      -0.87565624803049624       -1.1477351846700401E-008 F
     orb,it,eci,eold,eci-eold=                    2                    4 -0.87565625950784809      -0.87565625950784809        0.0000000000000000      F
     orbital   2 current e=  0.493044E+00 error=0.398E-04 (eci= -0.875656260E+00 error=0.000E+00) iterations   4(   0 preconditioned, Ep,Sp= 20.0  200.0)
     orb,it,eci,eold,eci-eold=                    2                    1 -0.87565627105473443      -0.87565625928371094       -1.1771023489259846E-008 F
     orb,it,eci,eold,eci-eold=                    2                    2 -0.87565627266481161      -0.87565627105473443       -1.6100771826899063E-009 F
     orb,it,eci,eold,eci-eold=                    2                    3 -0.87565627527008660      -0.87565627266481161       -2.6052749957372612E-009 F
     orb,it,eci,eold,eci-eold=                    2                    4 -0.87565627655367595      -0.87565627527008660       -1.2835893459239855E-009 F
     orb,it,eci,eold,eci-eold=                    2                    5 -0.87565628118077077      -0.87565627655367595       -4.6270948184101712E-009 F
     orb,it,eci,eold,eci-eold=                    2                    6 -0.87565628733276013      -0.87565628118077077       -6.1519893623795951E-009 F
     orb,it,eci,eold,eci-eold=                    2                    7 -0.87565628992261269      -0.87565628733276013       -2.5898525546352857E-009 F
     orb,it,eci,eold,eci-eold=                    2                    8 -0.87565629187944460      -0.87565628992261269       -1.9568319187257543E-009 F
     orb,it,eci,eold,eci-eold=                    2                    9 -0.87565629510772336      -0.87565629187944460       -3.2282787554294146E-009 F
     orb,it,eci,eold,eci-eold=                    2                   10 -0.87565629581464177      -0.87565629510772336       -7.0691841269621136E-010 F
     orbital   2 current e=  0.492959E+00 error=0.848E-04 (eci= -0.875656296E+00 error=0.707E-09) iterations  10(   0 preconditioned, Ep,Sp= 20.0  200.0)
     orb,it,eci,eold,eci-eold=                    3                    1 -0.87411718283947248      -0.87401054680154799       -1.0663603792449017E-004 F
     orb,it,eci,eold,eci-eold=                    3                    2 -0.87411870567582817      -0.87411718283947248       -1.5228363556829549E-006 F
     orb,it,eci,eold,eci-eold=                    3                    3 -0.87415084757919070      -0.87411870567582817       -3.2141903362536972E-005 F
     orb,it,eci,eold,eci-eold=                    3                    4 -0.87415836461334262      -0.87415084757919070       -7.5170341519159578E-006 F
     orb,it,eci,eold,eci-eold=                    3                    5 -0.87416868203495235      -0.87415836461334262       -1.0317421609729038E-005 F
     orb,it,eci,eold,eci-eold=                    3                    6 -0.87419348824058241      -0.87416868203495235       -2.4806205630056866E-005 F
     orb,it,eci,eold,eci-eold=                    3                    7 -0.87420029931932364      -0.87419348824058241       -6.8110787412312135E-006 F
     orb,it,eci,eold,eci-eold=                    3                    8 -0.87421098403192121      -0.87420029931932364       -1.0684712597575086E-005 F
     orb,it,eci,eold,eci-eold=                    3                    9 -0.87423678065701493      -0.87421098403192121       -2.5796625093721381E-005 F
     orb,it,eci,eold,eci-eold=                    3                   10 -0.87424820956415883      -0.87423678065701493       -1.1428907143895550E-005 F
     orb,it,eci,eold,eci-eold=                    3                   11 -0.87425920768949861      -0.87424820956415883       -1.0998125339778397E-005 F
     orb,it,eci,eold,eci-eold=                    3                   12 -0.87428055695408491      -0.87425920768949861       -2.1349264586301153E-005 F
     orb,it,eci,eold,eci-eold=                    3                   13 -0.87428437923256430      -0.87428055695408491       -3.8222784793928710E-006 F
     orb,it,eci,eold,eci-eold=                    3                   14 -0.87428959966067865      -0.87428437923256430       -5.2204281143497511E-006 F
     orb,it,eci,eold,eci-eold=                    3                   15 -0.87430415742974787      -0.87428959966067865       -1.4557769069223347E-005 F
     orb,it,eci,eold,eci-eold=                    3                   16 -0.87430677123463918      -0.87430415742974787       -2.6138048913049161E-006 F
     orb,it,eci,eold,eci-eold=                    3                   17 -0.87430993071524998      -0.87430677123463918       -3.1594806108037332E-006 F
     orb,it,eci,eold,eci-eold=                    3                   18 -0.87432047848890138      -0.87430993071524998       -1.0547773651392589E-005 F
     orb,it,eci,eold,eci-eold=                    3                   19 -0.87432296102883056      -0.87432047848890138       -2.4825399291827921E-006 F
     orb,it,eci,eold,eci-eold=                    3                   20 -0.87432520691839333      -0.87432296102883056       -2.2458895627686104E-006 F
     orb,it,eci,eold,eci-eold=                    3                   21 -0.87433273731709660      -0.87432520691839333       -7.5303987032704356E-006 F
     orb,it,eci,eold,eci-eold=                    3                   22 -0.87433457312558305      -0.87433273731709660       -1.8358084864500412E-006 F
     orb,it,eci,eold,eci-eold=                    3                   23 -0.87433621240542125      -0.87433457312558305       -1.6392798382058871E-006 F
     orb,it,eci,eold,eci-eold=                    3                   24 -0.87434215000360505      -0.87433621240542125       -5.9375981837916925E-006 F
     orb,it,eci,eold,eci-eold=                    3                   25 -0.87434374505147749      -0.87434215000360505       -1.5950478724491290E-006 F
     orb,it,eci,eold,eci-eold=                    3                   26 -0.87434484604543727      -0.87434374505147749       -1.1009939597794727E-006 F
     orb,it,eci,eold,eci-eold=                    3                   27 -0.87434939586118454      -0.87434484604543727       -4.5498157472678713E-006 F
     orb,it,eci,eold,eci-eold=                    3                   28 -0.87435097555508845      -0.87434939586118454       -1.5796939039081082E-006 F
     orb,it,eci,eold,eci-eold=                    3                   29 -0.87435188027424815      -0.87435097555508845       -9.0471915970002925E-007 F
     orb,it,eci,eold,eci-eold=                    3                   30 -0.87435523120423064      -0.87435188027424815       -3.3509299824929784E-006 F
     orb,it,eci,eold,eci-eold=                    3                   31 -0.87435640875724174      -0.87435523120423064       -1.1775530111002297E-006 F
     orb,it,eci,eold,eci-eold=                    3                   32 -0.87435716289731436      -0.87435640875724174       -7.5414007261187521E-007 F
     orb,it,eci,eold,eci-eold=                    3                   33 -0.87435966711895807      -0.87435716289731436       -2.5042216437176634E-006 F
     orb,it,eci,eold,eci-eold=                    3                   34 -0.87436032222419180      -0.87435966711895807       -6.5510523372669383E-007 F
     orb,it,eci,eold,eci-eold=                    3                   35 -0.87436081015568901      -0.87436032222419180       -4.8793149720616213E-007 F
     orb,it,eci,eold,eci-eold=                    3                   36 -0.87436274955014115      -0.87436081015568901       -1.9393944521439721E-006 F
     orb,it,eci,eold,eci-eold=                    3                   37 -0.87436312751162115      -0.87436274955014115       -3.7796148000257546E-007 F
     orb,it,eci,eold,eci-eold=                    3                   38 -0.87436333577261582      -0.87436312751162115       -2.0826099467186054E-007 F
     orb,it,eci,eold,eci-eold=                    3                   39 -0.87436482148669836      -0.87436333577261582       -1.4857140825386139E-006 F
     orb,it,eci,eold,eci-eold=                    3                   40 -0.87436519924085498      -0.87436482148669836       -3.7775415662189005E-007 F
     orb,it,eci,eold,eci-eold=                    3                   41 -0.87436527854396018      -0.87436519924085498       -7.9303105193773149E-008 F
     orb,it,eci,eold,eci-eold=                    3                   42 -0.87436638602310790      -0.87436527854396018       -1.1074791477216905E-006 F
     orb,it,eci,eold,eci-eold=                    3                   43 -0.87436688292100917      -0.87436638602310790       -4.9689790126983269E-007 F
     orb,it,eci,eold,eci-eold=                    3                   44 -0.87436702062611005      -0.87436688292100917       -1.3770510087773857E-007 F
     orb,it,eci,eold,eci-eold=                    3                   45 -0.87436783438644650      -0.87436702062611005       -8.1376033644886547E-007 F
     orb,it,eci,eold,eci-eold=                    3                   46 -0.87436820387174130      -0.87436783438644650       -3.6948529480440584E-007 F
     orb,it,eci,eold,eci-eold=                    3                   47 -0.87436837856157557      -0.87436820387174130       -1.7468983426471851E-007 F
     orb,it,eci,eold,eci-eold=                    3                   48 -0.87436903414955991      -0.87436837856157557       -6.5558798434395271E-007 F
     orb,it,eci,eold,eci-eold=                    3                   49 -0.87436921275236212      -0.87436903414955991       -1.7860280221437819E-007 F
     orb,it,eci,eold,eci-eold=                    3                   50 -0.87436931033726439      -0.87436921275236212       -9.7584902269964857E-008 F
     orb,it,eci,eold,eci-eold=                    3                   51 -0.87436987142576128      -0.87436931033726439       -5.6108849688651929E-007 F
     orb,it,eci,eold,eci-eold=                    3                   52 -0.87437004299399024      -0.87436987142576128       -1.7156822895714186E-007 F
     orb,it,eci,eold,eci-eold=                    3                   53 -0.87437007906008812      -0.87437004299399024       -3.6066097885978365E-008 F
     orb,it,eci,eold,eci-eold=                    3                   54 -0.87437048497324255      -0.87437007906008812       -4.0591315442206621E-007 F
     orb,it,eci,eold,eci-eold=                    3                   55 -0.87437070333059830      -0.87437048497324255       -2.1835735575237436E-007 F
     orb,it,eci,eold,eci-eold=                    3                   56 -0.87437078006413260      -0.87437070333059830       -7.6733534304374018E-008 F
     orb,it,eci,eold,eci-eold=                    3                   57 -0.87437107930427049      -0.87437078006413260       -2.9924013789095483E-007 F
     orb,it,eci,eold,eci-eold=                    3                   58 -0.87437119157043253      -0.87437107930427049       -1.1226616203341422E-007 F
     orb,it,eci,eold,eci-eold=                    3                   59 -0.87437126082369243      -0.87437119157043253       -6.9253259904478170E-008 F
     orb,it,eci,eold,eci-eold=                    3                   60 -0.87437151480687381      -0.87437126082369243       -2.5398318137526132E-007 F
     orb,it,eci,eold,eci-eold=                    3                   61 -0.87437153813499247      -0.87437151480687381       -2.3328118659016184E-008 F
     orb,it,eci,eold,eci-eold=                    3                   62 -0.87437154151899654      -0.87437153813499247       -3.3840040769561597E-009 F
     orb,it,eci,eold,eci-eold=                    3                   63 -0.87437173630961018      -0.87437154151899654       -1.9479061363902872E-007 F
     orb,it,eci,eold,eci-eold=                    3                   64 -0.87437183116698525      -0.87437173630961018       -9.4857375065870997E-008 F
     orb,it,eci,eold,eci-eold=                    3                   65 -0.87437184863803330      -0.87437183116698525       -1.7471048052719595E-008 F
     orb,it,eci,eold,eci-eold=                    3                   66 -0.87437199286546630      -0.87437184863803330       -1.4422743299657981E-007 F
     orb,it,eci,eold,eci-eold=                    3                   67 -0.87437207360208435      -0.87437199286546630       -8.0736618057741794E-008 F
     orb,it,eci,eold,eci-eold=                    3                   68 -0.87437211030911444      -0.87437207360208435       -3.6707030082183678E-008 F
     orb,it,eci,eold,eci-eold=                    3                   69 -0.87437224421729443      -0.87437211030911444       -1.3390817998892857E-007 F
     orb,it,eci,eold,eci-eold=                    3                   70 -0.87437227337863921      -0.87437224421729443       -2.9161344783368293E-008 F
     orb,it,eci,eold,eci-eold=                    3                   71 -0.87437228326564898      -0.87437227337863921       -9.8870097664516265E-009 F
     orb,it,eci,eold,eci-eold=                    3                   72 -0.87437240214059364      -0.87437228326564898       -1.1887494466567006E-007 F
     orb,it,eci,eold,eci-eold=                    3                   73 -0.87437245293331056      -0.87437240214059364       -5.0792716921321812E-008 F
     orb,it,eci,eold,eci-eold=                    3                   74 -0.87437245788008511      -0.87437245293331056       -4.9467745455444856E-009 F
     orb,it,eci,eold,eci-eold=                    3                   75 -0.87437254295183553      -0.87437245788008511       -8.5071750421938930E-008 F
     orb,it,eci,eold,eci-eold=                    3                   76 -0.87437258914364491      -0.87437254295183553       -4.6191809377482684E-008 F
     orb,it,eci,eold,eci-eold=                    3                   77 -0.87437260142167395      -0.87437258914364491       -1.2278029037915417E-008 F
     orb,it,eci,eold,eci-eold=                    3                   78 -0.87437266368423472      -0.87437260142167395       -6.2262560773795883E-008 F
     orb,it,eci,eold,eci-eold=                    3                   79 -0.87437268414204017      -0.87437266368423472       -2.0457805449680677E-008 F
     orb,it,eci,eold,eci-eold=                    3                   80 -0.87437269355623914      -0.87437268414204017       -9.4141989759322087E-009 F
     orb,it,eci,eold,eci-eold=                    3                   81 -0.87437275083564892      -0.87437269355623914       -5.7279409770849554E-008 F
     orb,it,eci,eold,eci-eold=                    3                   82 -0.87437277124140789      -0.87437275083564892       -2.0405758971442367E-008 F
     orb,it,eci,eold,eci-eold=                    3                   83 -0.87437277678235625      -0.87437277124140789       -5.5409483668000803E-009 F
     orb,it,eci,eold,eci-eold=                    3                   84 -0.87437282374142045      -0.87437277678235625       -4.6959064192719779E-008 F
     orb,it,eci,eold,eci-eold=                    3                   85 -0.87437284328338127      -0.87437282374142045       -1.9541960827318405E-008 F
     orb,it,eci,eold,eci-eold=                    3                   86 -0.87437284768714851      -0.87437284328338127       -4.4037672397578831E-009 F
     orb,it,eci,eold,eci-eold=                    3                   87 -0.87437288414680248      -0.87437284768714851       -3.6459653962594984E-008 F
     orb,it,eci,eold,eci-eold=                    3                   88 -0.87437289725512235      -0.87437288414680248       -1.3108319874000074E-008 F
     orb,it,eci,eold,eci-eold=                    3                   89 -0.87437289995857848      -0.87437289725512235       -2.7034561256300549E-009 F
     orb,it,eci,eold,eci-eold=                    3                   90 -0.87437293035829677      -0.87437289995857848       -3.0399718298212974E-008 F
     orb,it,eci,eold,eci-eold=                    3                   91 -0.87437294629923734      -0.87437293035829677       -1.5940940567560347E-008 F
     orb,it,eci,eold,eci-eold=                    3                   92 -0.87437295056719377      -0.87437294629923734       -4.2679564327130493E-009 F
     orb,it,eci,eold,eci-eold=                    3                   93 -0.87437297259728797      -0.87437295056719377       -2.2030094193326022E-008 F
     orb,it,eci,eold,eci-eold=                    3                   94 -0.87437297917682399      -0.87437297259728797       -6.5795360271181380E-009 F
     orb,it,eci,eold,eci-eold=                    3                   95 -0.87437298137623098      -0.87437297917682399       -2.1994069898667590E-009 F
     orb,it,eci,eold,eci-eold=                    3                   96 -0.87437299864364926      -0.87437298137623098       -1.7267418273014812E-008 F
     orb,it,eci,eold,eci-eold=                    3                   97 -0.87437300589242062      -0.87437299864364926       -7.2487713609348248E-009 F
     orb,it,eci,eold,eci-eold=                    3                   98 -0.87437300881666369      -0.87437300589242062       -2.9242430699127908E-009 F
     orb,it,eci,eold,eci-eold=                    3                   99 -0.87437302449087817      -0.87437300881666369       -1.5674214481897764E-008 F
     orb,it,eci,eold,eci-eold=                    3                  100 -0.87437302944729589      -0.87437302449087817       -4.9564177206917748E-009 F
     orb,it,eci,eold,eci-eold=                    3                  101 -0.87437303071237338      -0.87437302944729589       -1.2650774872113857E-009 F
     orb,it,eci,eold,eci-eold=                    3                  102 -0.87437304424680939      -0.87437303071237338       -1.3534436016371387E-008 F
     orb,it,eci,eold,eci-eold=                    3                  103 -0.87437305051153946      -0.87437304424680939       -6.2647300680396256E-009 F
     orb,it,eci,eold,eci-eold=                    3                  104 -0.87437305145718103      -0.87437305051153946       -9.4564156505327901E-010 F
     orbital   3 current e=  0.430328E+00 error=0.653E-01 (eci= -0.874373051E+00 error=0.946E-09) iterations 104(   0 preconditioned, Ep,Sp= 20.0  200.0)
     orb,it,eci,eold,eci-eold=                    3                    1 -0.87437307965666511      -0.87437305145718103       -2.8199484081170567E-008 F
     orb,it,eci,eold,eci-eold=                    3                    2 -0.87437308668077285      -0.87437307965666511       -7.0241077398947027E-009 F
     orb,it,eci,eold,eci-eold=                    3                    3 -0.87437309381789519      -0.87437308668077285       -7.1371223375749082E-009 F
     orb,it,eci,eold,eci-eold=                    3                    4 -0.87437310657663492      -0.87437309381789519       -1.2758739731388857E-008 F
     orb,it,eci,eold,eci-eold=                    3                    5 -0.87437310764177067      -0.87437310657663492       -1.0651357573721043E-009 F
     orb,it,eci,eold,eci-eold=                    3                    6 -0.87437310764177067      -0.87437310764177067        0.0000000000000000      F
     orbital   3 current e=  0.430249E+00 error=0.793E-04 (eci= -0.874373108E+00 error=0.000E+00) iterations   6(   0 preconditioned, Ep,Sp= 20.0  200.0)
     orb,it,eci,eold,eci-eold=                    3                    1 -0.87437311831705078      -0.87437310669616064       -1.1620890139063533E-008 F
     orb,it,eci,eold,eci-eold=                    3                    2 -0.87437312057960281      -0.87437311831705078       -2.2625520346153394E-009 F
     orb,it,eci,eold,eci-eold=                    3                    3 -0.87437312057960281      -0.87437312057960281        0.0000000000000000      F
     orbital   3 current e=  0.430238E+00 error=0.108E-04 (eci= -0.874373121E+00 error=0.000E+00) iterations   3(   0 preconditioned, Ep,Sp= 20.0  200.0)
     orb,it,eci,eold,eci-eold=                    4                    1 -0.87411659762091087      -0.87401056292508839       -1.0603469582248781E-004 F
     orb,it,eci,eold,eci-eold=                    4                    2 -0.87411813324989041      -0.87411659762091087       -1.5356289795320777E-006 F
     orb,it,eci,eold,eci-eold=                    4                    3 -0.87414956523019105      -0.87411813324989041       -3.1431980300644646E-005 F
     orb,it,eci,eold,eci-eold=                    4                    4 -0.87415757617152368      -0.87414956523019105       -8.0109413326256984E-006 F
     orb,it,eci,eold,eci-eold=                    4                    5 -0.87416846387210700      -0.87415757617152368       -1.0887700583328552E-005 F
     orb,it,eci,eold,eci-eold=                    4                    6 -0.87419252044547457      -0.87416846387210700       -2.4056573367570167E-005 F
     orb,it,eci,eold,eci-eold=                    4                    7 -0.87419978171830892      -0.87419252044547457       -7.2612728343468547E-006 F
     orb,it,eci,eold,eci-eold=                    4                    8 -0.87421095516982761      -0.87419978171830892       -1.1173451518686761E-005 F
     orb,it,eci,eold,eci-eold=                    4                    9 -0.87423624456990578      -0.87421095516982761       -2.5289400078176705E-005 F
     orb,it,eci,eold,eci-eold=                    4                   10 -0.87424760320120032      -0.87423624456990578       -1.1358631294533517E-005 F
     orb,it,eci,eold,eci-eold=                    4                   11 -0.87425867650218958      -0.87424760320120032       -1.1073300989261625E-005 F
     orb,it,eci,eold,eci-eold=                    4                   12 -0.87427946745486707      -0.87425867650218958       -2.0790952677485208E-005 F
     orb,it,eci,eold,eci-eold=                    4                   13 -0.87428321381346552      -0.87427946745486707       -3.7463585984554015E-006 F
     orb,it,eci,eold,eci-eold=                    4                   14 -0.87428860725585511      -0.87428321381346552       -5.3934423895896089E-006 F
     orb,it,eci,eold,eci-eold=                    4                   15 -0.87430289962941976      -0.87428860725585511       -1.4292373564650518E-005 F
     orb,it,eci,eold,eci-eold=                    4                   16 -0.87430546951091492      -0.87430289962941976       -2.5698814951624627E-006 F
     orb,it,eci,eold,eci-eold=                    4                   17 -0.87430883770996604      -0.87430546951091492       -3.3681990511125193E-006 F
     orb,it,eci,eold,eci-eold=                    4                   18 -0.87431950888087706      -0.87430883770996604       -1.0671170911025207E-005 F
     orb,it,eci,eold,eci-eold=                    4                   19 -0.87432155279926471      -0.87431950888087706       -2.0439183876508338E-006 F
     orb,it,eci,eold,eci-eold=                    4                   20 -0.87432362828534016      -0.87432155279926471       -2.0754860754479409E-006 F
     orb,it,eci,eold,eci-eold=                    4                   21 -0.87433140692691769      -0.87432362828534016       -7.7786415775271678E-006 F
     orb,it,eci,eold,eci-eold=                    4                   22 -0.87433319515065033      -0.87433140692691769       -1.7882237326460881E-006 F
     orb,it,eci,eold,eci-eold=                    4                   23 -0.87433464922743676      -0.87433319515065033       -1.4540767864223980E-006 F
     orb,it,eci,eold,eci-eold=                    4                   24 -0.87434072828375231      -0.87433464922743676       -6.0790563155554977E-006 F
     orb,it,eci,eold,eci-eold=                    4                   25 -0.87434239955607085      -0.87434072828375231       -1.6712723185374756E-006 F
     orb,it,eci,eold,eci-eold=                    4                   26 -0.87434338348941243      -0.87434239955607085       -9.8393334158064505E-007 F
     orb,it,eci,eold,eci-eold=                    4                   27 -0.87434808434081968      -0.87434338348941243       -4.7008514072466312E-006 F
     orb,it,eci,eold,eci-eold=                    4                   28 -0.87434979078374453      -0.87434808434081968       -1.7064429248536683E-006 F
     orb,it,eci,eold,eci-eold=                    4                   29 -0.87435064036996613      -0.87434979078374453       -8.4958622159625463E-007 F
     orb,it,eci,eold,eci-eold=                    4                   30 -0.87435408085634692      -0.87435064036996613       -3.4404863807901975E-006 F
     orb,it,eci,eold,eci-eold=                    4                   31 -0.87435540678983581      -0.87435408085634692       -1.3259334888937602E-006 F
     orb,it,eci,eold,eci-eold=                    4                   32 -0.87435620946525239      -0.87435540678983581       -8.0267541657796926E-007 F
     orb,it,eci,eold,eci-eold=                    4                   33 -0.87435875928335705      -0.87435620946525239       -2.5498181046579305E-006 F
     orb,it,eci,eold,eci-eold=                    4                   34 -0.87435945255067304      -0.87435875928335705       -6.9326731599872460E-007 F
     orb,it,eci,eold,eci-eold=                    4                   35 -0.87436000849503559      -0.87435945255067304       -5.5594436254580160E-007 F
     orb,it,eci,eold,eci-eold=                    4                   36 -0.87436204737336176      -0.87436000849503559       -2.0388783261715560E-006 F
     orb,it,eci,eold,eci-eold=                    4                   37 -0.87436239426701412      -0.87436204737336176       -3.4689365235873737E-007 F
     orb,it,eci,eold,eci-eold=                    4                   38 -0.87436259866431898      -0.87436239426701412       -2.0439730485932728E-007 F
     orb,it,eci,eold,eci-eold=                    4                   39 -0.87436420571489948      -0.87436259866431898       -1.6070505804988144E-006 F
     orb,it,eci,eold,eci-eold=                    4                   40 -0.87436464240846523      -0.87436420571489948       -4.3669356575293250E-007 F
     orb,it,eci,eold,eci-eold=                    4                   41 -0.87436470449038051      -0.87436464240846523       -6.2081915275236099E-008 F
     orb,it,eci,eold,eci-eold=                    4                   42 -0.87436585257592947      -0.87436470449038051       -1.1480855489631736E-006 F
     orb,it,eci,eold,eci-eold=                    4                   43 -0.87436642848736623      -0.87436585257592947       -5.7591143676205547E-007 F
     orb,it,eci,eold,eci-eold=                    4                   44 -0.87436660955515955      -0.87436642848736623       -1.8106779331450440E-007 F
     orb,it,eci,eold,eci-eold=                    4                   45 -0.87436746240175289      -0.87436660955515955       -8.5284659334661228E-007 F
     orb,it,eci,eold,eci-eold=                    4                   46 -0.87436778114386682      -0.87436746240175289       -3.1874211392501905E-007 F
     orb,it,eci,eold,eci-eold=                    4                   47 -0.87436795275523815      -0.87436778114386682       -1.7161137133570037E-007 F
     orb,it,eci,eold,eci-eold=                    4                   48 -0.87436870045148030      -0.87436795275523815       -7.4769624214265917E-007 F
     orb,it,eci,eold,eci-eold=                    4                   49 -0.87436886831089655      -0.87436870045148030       -1.6785941625574452E-007 F
     orb,it,eci,eold,eci-eold=                    4                   50 -0.87436891745815992      -0.87436886831089655       -4.9147263370130645E-008 F
     orb,it,eci,eold,eci-eold=                    4                   51 -0.87436952323078865      -0.87436891745815992       -6.0577262872563153E-007 F
     orb,it,eci,eold,eci-eold=                    4                   52 -0.87436979887447885      -0.87436952323078865       -2.7564369020627311E-007 F
     orb,it,eci,eold,eci-eold=                    4                   53 -0.87436985432725323      -0.87436979887447885       -5.5452774372355407E-008 F
     orb,it,eci,eold,eci-eold=                    4                   54 -0.87437028163616026      -0.87436985432725323       -4.2730890703612801E-007 F
     orb,it,eci,eold,eci-eold=                    4                   55 -0.87437050583598053      -0.87437028163616026       -2.2419982026455898E-007 F
     orb,it,eci,eold,eci-eold=                    4                   56 -0.87437060217785456      -0.87437050583598053       -9.6341874034067132E-008 F
     orb,it,eci,eold,eci-eold=                    4                   57 -0.87437093528570653      -0.87437060217785456       -3.3310785196860593E-007 F
     orb,it,eci,eold,eci-eold=                    4                   58 -0.87437102779566711      -0.87437093528570653       -9.2509960580855477E-008 F
     orb,it,eci,eold,eci-eold=                    4                   59 -0.87437109081998521      -0.87437102779566711       -6.3024318097681942E-008 F
     orb,it,eci,eold,eci-eold=                    4                   60 -0.87437139247252427      -0.87437109081998521       -3.0165253905867218E-007 F
     orb,it,eci,eold,eci-eold=                    4                   61 -0.87437143186169330      -0.87437139247252427       -3.9389169037562510E-008 F
     orb,it,eci,eold,eci-eold=                    4                   62 -0.87437145367963309      -0.87437143186169330       -2.1817939788171259E-008 F
     orb,it,eci,eold,eci-eold=                    4                   63 -0.87437175724225114      -0.87437145367963309       -3.0356261804254103E-007 F
     orb,it,eci,eold,eci-eold=                    4                   64 -0.87437193353850728      -0.87437175724225114       -1.7629625614912214E-007 F
     orb,it,eci,eold,eci-eold=                    4                   65 -0.87437204760468334      -0.87437193353850728       -1.1406617606013469E-007 F
     orb,it,eci,eold,eci-eold=                    4                   66 -0.87437209088461876      -0.87437204760468334       -4.3279935413309545E-008 F
     orb,it,eci,eold,eci-eold=                    4                   67 -0.87437223265991149      -0.87437209088461876       -1.4177529272796363E-007 F
     orb,it,eci,eold,eci-eold=                    4                   68 -0.87437227837918441      -0.87437223265991149       -4.5719272923072651E-008 F
     orb,it,eci,eold,eci-eold=                    4                   69 -0.87437229456481325      -0.87437227837918441       -1.6185628837206423E-008 F
     orb,it,eci,eold,eci-eold=                    4                   70 -0.87437239988044735      -0.87437229456481325       -1.0531563410243194E-007 F
     orb,it,eci,eold,eci-eold=                    4                   71 -0.87437245065369373      -0.87437239988044735       -5.0773246385027448E-008 F
     orb,it,eci,eold,eci-eold=                    4                   72 -0.87437246961976356      -0.87437245065369373       -1.8966069825765430E-008 F
     orb,it,eci,eold,eci-eold=                    4                   73 -0.87437254801606068      -0.87437246961976356       -7.8396297120697511E-008 F
     orb,it,eci,eold,eci-eold=                    4                   74 -0.87437257039573946      -0.87437254801606068       -2.2379678776829337E-008 F
     orb,it,eci,eold,eci-eold=                    4                   75 -0.87437258238680182      -0.87437257039573946       -1.1991062365268590E-008 F
     orb,it,eci,eold,eci-eold=                    4                   76 -0.87437265535164232      -0.87437258238680182       -7.2964840502898198E-008 F
     orb,it,eci,eold,eci-eold=                    4                   77 -0.87437267352449155      -0.87437265535164232       -1.8172849225450705E-008 F
     orb,it,eci,eold,eci-eold=                    4                   78 -0.87437267352449155      -0.87437267352449155        0.0000000000000000      F
     orbital   4 current e=  0.430097E+00 error=0.655E-01 (eci= -0.874372674E+00 error=0.000E+00) iterations  78(   0 preconditioned, Ep,Sp= 20.0  200.0)
     orb,it,eci,eold,eci-eold=                    4                    1 -0.87437286018829785      -0.87437267270448393       -1.8748381391819890E-007 F
     orb,it,eci,eold,eci-eold=                    4                    2 -0.87437291022746200      -0.87437286018829785       -5.0039164145587733E-008 F
     orb,it,eci,eold,eci-eold=                    4                    3 -0.87437295173249019      -0.87437291022746200       -4.1505028192112547E-008 F
     orb,it,eci,eold,eci-eold=                    4                    4 -0.87437295173249019      -0.87437295173249019        0.0000000000000000      F
     orbital   4 current e=  0.430143E+00 error=0.460E-04 (eci= -0.874372952E+00 error=0.000E+00) iterations   4(   0 preconditioned, Ep,Sp= 20.0  200.0)
     orb,it,eci,eold,eci-eold=                    4                    1 -0.87437300231593706      -0.87437295131429060       -5.1001646461656946E-008 F
     orb,it,eci,eold,eci-eold=                    4                    2 -0.87437303678909539      -0.87437300231593706       -3.4473158327941178E-008 F
     orb,it,eci,eold,eci-eold=                    4                    3 -0.87437306204858256      -0.87437303678909539       -2.5259487168582950E-008 F
     orb,it,eci,eold,eci-eold=                    4                    4 -0.87437307476881965      -0.87437306204858256       -1.2720237085872554E-008 F
     orb,it,eci,eold,eci-eold=                    4                    5 -0.87437309193813972      -0.87437307476881965       -1.7169320076781958E-008 F
     orb,it,eci,eold,eci-eold=                    4                    6 -0.87437310158450865      -0.87437309193813972       -9.6463689258641239E-009 F
     orb,it,eci,eold,eci-eold=                    4                    7 -0.87437310834880910      -0.87437310158450865       -6.7643004530992812E-009 F
     orb,it,eci,eold,eci-eold=                    4                    8 -0.87437311204793189      -0.87437310834880910       -3.6991227858607090E-009 F
     orb,it,eci,eold,eci-eold=                    4                    9 -0.87437311374294335      -0.87437311204793189       -1.6950114645197800E-009 F
     orb,it,eci,eold,eci-eold=                    4                   10 -0.87437311477310931      -0.87437311374294335       -1.0301659525424611E-009 F
     orb,it,eci,eold,eci-eold=                    4                   11 -0.87437311768848613      -0.87437311477310931       -2.9153768288381343E-009 F
     orb,it,eci,eold,eci-eold=                    4                   12 -0.87437311768848613      -0.87437311768848613        0.0000000000000000      F
     orbital   4 current e=  0.430177E+00 error=0.343E-04 (eci= -0.874373118E+00 error=0.000E+00) iterations  12(   0 preconditioned, Ep,Sp= 20.0  200.0)

 virtual orbital energies:
     0.4301773E+00 (  11.706eV)
     0.4302382E+00 (  11.707eV)
     0.4929590E+00 (  13.414eV)
    -0.7678353E-01 (  -2.089eV)


 == Generating One-Electron and Two-Electron Integrals ==

 begin_one_electron_integrals
    1    1        -0.7268060811
    2    1         0.0000073906
    3    1        -0.0307133381
    4    1        -0.0001520295
    5    1         0.0000029321
    2    2        -0.6804538885
    3    2        -0.0000102573
    4    2        -0.0000000755
    5    2         0.0000000015
    3    3        -0.1949036660
    4    3         0.0000410974
    5    3        -0.0000010973
    4    4        -0.1927872663
    5    4        -0.0000000096
    5    5        -0.1928379176
 end_one_electron_integrals

 begin_two_electron_integrals
    1    1    1    1        0.3701133912
    1    1    2    1       -0.0000074150
    1    1    3    1        0.0307184781
    1    1    4    1        0.0001520270
    1    1    5    1       -0.0000029320
    1    1    2    2        0.3893026805
    1    1    3    2        0.0000039448
    1    1    4    2        0.0000001036
    1    1    5    2       -0.0000000021
    1    1    3    3        0.3763630129
    1    1    4    3       -0.0000176498
    1    1    5    3        0.0000001475
    1    1    4    4        0.3372617637
    1    1    5    4        0.0000000005
    1    1    5    5        0.3372554042
    2    1    2    1        0.1749349980
    2    1    3    1       -0.0000038774
    2    1    4    1        0.0000000297
    2    1    5    1       -0.0000000006
    2    1    2    2       -0.0000139418
    2    1    3    2        0.1071374091
    2    1    4    2        0.0000893556
    2    1    5    2       -0.0000018636
    2    1    3    3       -0.0000117266
    2    1    4    3        0.0000000760
    2    1    5    3       -0.0000000014
    2    1    4    4       -0.0000198538
    2    1    5    4       -0.0000000000
    2    1    5    5       -0.0000199368
    3    1    3    1        0.0648633288
    3    1    4    1        0.0000006935
    3    1    5    1       -0.0000000398
    3    1    2    2        0.0607415024
    3    1    3    2       -0.0000050096
    3    1    4    2        0.0000000261
    3    1    5    2       -0.0000000005
    3    1    3    3        0.0228432089
    3    1    4    3        0.0000404970
    3    1    5    3       -0.0000008347
    3    1    4    4        0.0004221138
    3    1    5    4       -0.0000000016
    3    1    5    5        0.0004095988
    4    1    4    1        0.0514980432
    4    1    5    1       -0.0000000006
    4    1    2    2        0.0001581440
    4    1    3    2        0.0000000277
    4    1    4    2       -0.0000058390
    4    1    5    2       -0.0000000000
    4    1    3    3        0.0001577207
    4    1    4    3       -0.0164022930
    4    1    5    3       -0.0000000006
    4    1    4    4        0.0001231788
    4    1    5    4        0.0000000212
    4    1    5    5        0.0001175539
    5    1    5    1        0.0514955485
    5    1    2    2       -0.0000030828
    5    1    3    2       -0.0000000005
    5    1    4    2       -0.0000000000
    5    1    5    2       -0.0000058641
    5    1    3    3       -0.0000030696
    5    1    4    3       -0.0000000022
    5    1    5    3       -0.0164112680
    5    1    4    4       -0.0000022000
    5    1    5    4        0.0000019869
    5    1    5    5       -0.0000022277
    2    2    2    2        0.4227388388
    2    2    3    2       -0.0000000161
    2    2    4    2        0.0000001166
    2    2    5    2       -0.0000000023
    2    2    3    3        0.3905494926
    2    2    4    3        0.0000015257
    2    2    5    3       -0.0000002451
    2    2    4    4        0.3416865097
    2    2    5    4       -0.0000000003
    2    2    5    5        0.3416741698
    3    2    3    2        0.0866684793
    3    2    4    2        0.0000465557
    3    2    5    2       -0.0000009814
    3    2    3    3        0.0000022198
    3    2    4    3        0.0000000528
    3    2    5    3       -0.0000000010
    3    2    4    4       -0.0000026763
    3    2    5    4       -0.0000000000
    3    2    5    5       -0.0000027197
    4    2    4    2        0.0343740784
    4    2    5    2       -0.0000000012
    4    2    3    3        0.0000001102
    4    2    4    3        0.0000006887
    4    2    5    3       -0.0000000000
    4    2    4    4        0.0000000909
    4    2    5    4       -0.0000000001
    4    2    5    5        0.0000000781
    5    2    5    2        0.0343665502
    5    2    3    3       -0.0000000022
    5    2    4    3       -0.0000000000
    5    2    5    3        0.0000006908
    5    2    4    4       -0.0000000016
    5    2    5    4        0.0000000068
    5    2    5    5       -0.0000000018
    3    3    3    3        0.4016399849
    3    3    4    3       -0.0000307992
    3    3    5    3        0.0000004194
    3    3    4    4        0.3434856833
    3    3    5    4        0.0000000009
    3    3    5    5        0.3434831698
    4    3    4    3        0.0255211732
    4    3    5    3        0.0000000004
    4    3    4    4       -0.0000340317
    4    3    5    4        0.0000000076
    4    3    5    5       -0.0000285336
    5    3    5    3        0.0255265605
    5    3    4    4        0.0000003742
    5    3    5    4       -0.0000024106
    5    3    5    5        0.0000004260
    4    4    4    4        0.3414908295
    4    4    5    4       -0.0000000544
    4    4    5    5        0.3147917007
    5    4    5    4        0.0141338760
    5    4    5    5        0.0000000524
    5    5    5    5        0.3414925729
 end_two_electron_integrals


 output epsi filename:./pspw_hf_H2.emovecs

 Total PSPW energy     :  -0.8718278715E+00


=== Spin Contamination ===

 <Sexact^2> =    0.0000000000000000     
 <S^2>      =    0.0000000000000000     



== Center of Charge ==

spin up     (    0.0000,    0.0000,    0.0001 )
spin down   (    0.0000,    0.0000,    0.0001 )
     total  (    0.0000,    0.0000,    0.0001 )
ionic       (    0.0000,    0.0000,    0.0000 )


== Molecular Dipole wrt Center of Mass ==

mu   =  (   -0.0000,   -0.0000,   -0.0002 ) au
|mu| =     0.0002 au,       0.0006 Debye

 output psi filename:./pspw_hf_H2.movecs

 Writing Crystallographic Information File:./H2.cif
   - cell not shifted (nwpw:cif_shift_cell .false.)


== Timing ==

cputime in seconds
  prologue    :   0.526187E+01
  main loop   :   0.522310E+03
  epilogue    :   0.106557E-01
  total       :   0.527583E+03
  cputime/step:   0.370433E+01       (     141 evalulations,      59 linesearches)


Time spent doing                        total          step       percent
  total time                 :   0.527584E+03  0.374173E+01       100.0 %
  i/o time                   :   0.842544E-01  0.597549E-03         0.0 %
  FFTs                       :   0.437033E+03  0.309952E+01        82.8 %
  dot products               :   0.270825E+01  0.192074E-01         0.5 %
  geodesic                   :   0.679038E-01  0.481587E-03         0.0 %
  ffm_dgemm                  :   0.135440E-01  0.960569E-04         0.0 %
  fmf_dgemm                  :   0.222819E-01  0.158027E-03         0.0 %
  mmm_dgemm                  :   0.177935E-02  0.126195E-04         0.0 %
  m_diagonalize              :   0.107184E-02  0.760174E-05         0.0 %
  local pseudopotentials     :   0.188475E+02  0.133670E+00         3.6 %
  non-local pseudopotentials :   0.241589E+01  0.171340E-01         0.5 %
  structure factors          :   0.104442E+01  0.740724E-02         0.2 %
  phase factors              :   0.779100E-05  0.552553E-07         0.0 %
  masking and packing        :   0.359585E+01  0.255025E-01         0.7 %
  queue fft                  :   0.115920E+02  0.822130E-01         2.2 %
  queue fft (serial)         :   0.674428E+01  0.478317E-01         1.3 %
  queue fft (message passing):   0.478816E+01  0.339586E-01         0.9 %
  HFX potential              :   0.104161E+02  0.738734E-01         2.0 %
  non-local psp FFM          :   0.187879E+01  0.133247E-01         0.4 %
  non-local psp FMF          :   0.163052E+00  0.115640E-02         0.0 %
  non-local psp FFM A        :   0.136276E+00  0.966498E-03         0.0 %
  non-local psp FFM B        :   0.283154E+00  0.200818E-02         0.1 %

== HFX Counters ==
  HFX Evalulations         =   141
  Lin ACE HFX Evalulations =     0


     >>>  JOB COMPLETED     AT Sat Apr  5 14:15:42 2025  <<<

 Task  times  cpu:      501.4s     wall:      527.6s


                                NWChem Input Module
                                -------------------


 Summary of allocated global arrays
-----------------------------------
  No active global arrays


MA_summarize_allocated_blocks: starting scan ...
MA_summarize_allocated_blocks: scan completed: 0 heap blocks, 0 stack blocks
MA usage statistics:

	allocation statistics:
					      heap	     stack
					      ----	     -----
	current number of blocks	         0	         0
	maximum number of blocks	       313	        36
	current total bytes		         0	         0
	maximum total bytes		  91421280	  31843352
	maximum total K-bytes		     91422	     31844
	maximum total M-bytes		        92	        32


                                     CITATION
                                     --------
                Please cite the following reference when publishing
                           results obtained with NWChem:

          E. Apra, E. J. Bylaska, W. A. de Jong, N. Govind, K. Kowalski,
       T. P. Straatsma, M. Valiev, H. J. J. van Dam, Y. Alexeev, J. Anchell,
       V. Anisimov, F. W. Aquino, R. Atta-Fynn, J. Autschbach, N. P. Bauman,
     J. C. Becca, D. E. Bernholdt, K. Bhaskaran-Nair, S. Bogatko, P. Borowski,
         J. Boschen, J. Brabec, A. Bruner, E. Cauet, Y. Chen, G. N. Chuev,
      C. J. Cramer, J. Daily, M. J. O. Deegan, T. H. Dunning Jr., M. Dupuis,
   K. G. Dyall, G. I. Fann, S. A. Fischer, A. Fonari, H. Fruchtl, L. Gagliardi,
      J. Garza, N. Gawande, S. Ghosh, K. Glaesemann, A. W. Gotz, J. Hammond,
       V. Helms, E. D. Hermes, K. Hirao, S. Hirata, M. Jacquelin, L. Jensen,
   B. G. Johnson, H. Jonsson, R. A. Kendall, M. Klemm, R. Kobayashi, V. Konkov,
      S. Krishnamoorthy, M. Krishnan, Z. Lin, R. D. Lins, R. J. Littlefield,
      A. J. Logsdail, K. Lopata, W. Ma, A. V. Marenich, J. Martin del Campo,
   D. Mejia-Rodriguez, J. E. Moore, J. M. Mullin, T. Nakajima, D. R. Nascimento,
    J. A. Nichols, P. J. Nichols, J. Nieplocha, A. Otero-de-la-Roza, B. Palmer,
    A. Panyala, T. Pirojsirikul, B. Peng, R. Peverati, J. Pittner, L. Pollack,
   R. M. Richard, P. Sadayappan, G. C. Schatz, W. A. Shelton, D. W. Silverstein,
   D. M. A. Smith, T. A. Soares, D. Song, M. Swart, H. L. Taylor, G. S. Thomas,
            V. Tipparaju, D. G. Truhlar, K. Tsemekhman, T. Van Voorhis,
      A. Vazquez-Mayagoitia, P. Verma, O. Villa, A. Vishnu, K. D. Vogiatzis,
        D. Wang, J. H. Weare, M. J. Williamson, T. L. Windus, K. Wolinski,
        A. T. Wong, Q. Wu, C. Yang, Q. Yu, M. Zacharias, Z. Zhang, Y. Zhao,
                                and R. J. Harrison
                        "NWChem: Past, present, and future
                         J. Chem. Phys. 152, 184102 (2020)
                               doi:10.1063/5.0004997

                                      AUTHORS
                                      -------
  E. Apra, E. J. Bylaska, N. Govind, K. Kowalski, M. Valiev, D. Mejia-Rodriguez,
       A. Kunitsa, N. P. Bauman, A. Panyala, W. A. de Jong, T. P. Straatsma,
   H. J. J. van Dam, D. Wang, T. L. Windus, J. Hammond, J. Autschbach, A. Woods,
    K. Bhaskaran-Nair, J. Brabec, K. Lopata, S. A. Fischer, S. Krishnamoorthy,
     M. Jacquelin, W. Ma, M. Klemm, O. Villa, Y. Chen, V. Anisimov, F. Aquino,
     S. Hirata, M. T. Hackler, E. Hermes, L. Jensen, J. E. Moore, J. C. Becca,
      V. Konjkov, T. Risthaus, M. Malagoli, A. Marenich, A. Otero-de-la-Roza,
        J. Mullin, P. Nichols, R. Peverati, J. Pittner, Y. Zhao, P.-D. Fan,
        A. Fonari, M. J. Williamson, R. J. Harrison, J. R. Rehr, M. Dupuis,
     D. Silverstein, D. M. A. Smith, J. Nieplocha, V. Tipparaju, M. Krishnan,
     B. E. Van Kuiken, A. Vazquez-Mayagoitia, M. Swart, Q. Wu, T. Van Voorhis,
     A. A. Auer, M. Nooijen, L. D. Crosby, E. Brown, G. Cisneros, G. I. Fann,
   H. Fruchtl, J. Garza, K. Hirao, R. A. Kendall, J. A. Nichols, K. Tsemekhman,
    K. Wolinski, J. Anchell, D. E. Bernholdt, P. Borowski, T. Clark, D. Clerc,
   H. Dachsel, M. J. O. Deegan, K. Dyall, D. Elwood, E. Glendening, M. Gutowski,
   A. C. Hess, J. Jaffe, B. G. Johnson, J. Ju, R. Kobayashi, R. Kutteh, Z. Lin,
   R. Littlefield, X. Long, B. Meng, T. Nakajima, S. Niu, L. Pollack, M. Rosing,
   K. Glaesemann, G. Sandrone, M. Stave, H. Taylor, G. Thomas, J. H. van Lenthe,
                               A. T. Wong, Z. Zhang.

 Total times  cpu:      501.4s     wall:      527.6s
