 argument  1 = H2-3.5.nw



============================== echo of input deck ==============================
title "swnc: e theory=pspw4 xc=hf formula=H2 charge=0 mult=1"
#machinejob:expert

echo

start pspw_hf_H2

memory heap 1200 mb stack 1200 mb global 10 mb

charge 0

geometry
H    0.00000    0.00000   -1.75000
H    0.00000    0.00000    1.75000
end

nwpw
  ### pseudopotential block begin ###
  ### pseudopotential block end   ###
  simulation_cell
     SC 15.0000
     boundary_conditions aperiodic
  end

  cutoff 50.0
  mult 1
  xc hf
  lmbfgs
  tolerances 1.0e-9 1.0e-9

  virtual 4
end
set nwpw:cif_filename H2

#set nwpw:CI_maxit_orb 15
#set nwpw:CI_maxit_linesearch 15
set pspw:HFX_screening_radius 14.0


set nwpw:2qintegrals .true.
set nwpw:3x3_virtual .true.

task pspw energy
================================================================================


                                         
                                         


             Northwest Computational Chemistry Package (NWChem) 7.2.3
             --------------------------------------------------------


                    Environmental Molecular Sciences Laboratory
                       Pacific Northwest National Laboratory
                                Richland, WA 99352

                              Copyright (c) 1994-2022
                       Pacific Northwest National Laboratory
                            Battelle Memorial Institute

             NWChem is an open-source computational chemistry package
                        distributed under the terms of the
                      Educational Community License (ECL) 2.0
             A copy of the license is included with this distribution
                              in the LICENSE.TXT file

                                  ACKNOWLEDGMENT
                                  --------------

            This software and its documentation were developed at the
            EMSL at Pacific Northwest National Laboratory, a multiprogram
            national laboratory, operated for the U.S. Department of Energy
            by Battelle under Contract Number DE-AC05-76RL01830. Support
            for this work was provided by the Department of Energy Office
            of Biological and Environmental Research, Office of Basic
            Energy Sciences, and the Office of Advanced Scientific Computing.


           Job information
           ---------------

    hostname        = mqs-al
    program         = nwchem
    date            = Sat Apr  5 14:21:53 2025

    compiled        = Thu_Oct_31_08:55:15_2024
    source          = /home/conda/feedstock_root/build_artifacts/nwchem_1730356057992/work
    nwchem branch   = 7.2.3
    nwchem revision = c400b04
    ga revision     = 5.8.0
    use scalapack   = T
    input           = H2-3.5.nw
    prefix          = pspw_hf_H2.
    data base       = ./pspw_hf_H2.db
    status          = startup
    nproc           =       16
    time left       =     -1s



           Memory information
           ------------------

    heap     =  157286398 doubles =   1200.0 Mbytes
    stack    =  157286395 doubles =   1200.0 Mbytes
    global   =    1310720 doubles =     10.0 Mbytes (distinct from heap & stack)
    total    =  315883513 doubles =   2410.0 Mbytes
    verify   = yes
    hardfail = no 


           Directory information
           ---------------------

  0 permanent = .
  0 scratch   = .




                                NWChem Input Module
                                -------------------


               swnc: e theory=pspw4 xc=hf formula=H2 charge=0 mult=1
               -----------------------------------------------------

 Scaling coordinates for geometry "geometry" by  1.889725989
 (inverse scale =  0.529177249)

  zeroes
  zeroes
  zeroes
  zeroes
  zeroes
  zeroes
  zeroes
  zeroes
  zeroes
  zeroes
  zeroes
  zeroes
  zeroes
  zeroes
  zeroes
  zeroes
  zeroes
  zeroes
  zeroes
  zeroes
  zeroes
  zeroes
  zeroes
  zeroes
  zeroes
  zeroes
  zeroes
  zeroes
  zeroes
  zeroes
  zeroes
  zeroes
  zeroes
  zeroes
  zeroes
  zeroes
  zeroes
  zeroes
  zeroes
  zeroes
  zeroes
  zeroes
  zeroes
  zeroes
  zeroes
  zeroes
  zeroes
  zeroes
 ORDER OF PRIMARY AXIS IS BEING SET TO 4
 D4H symmetry detected

          ------
          auto-z
          ------
     1 autoz failed with cvr_scaling = 1.2 changing to 1.3
     2 autoz failed with cvr_scaling = 1.3 changing to 1.4
     3 autoz failed with cvr_scaling = 1.4 changing to 1.5
     4 autoz failed with cvr_scaling = 1.5 changing to 1.6
     5 autoz failed with cvr_scaling = 1.6 changing to 1.7

 AUTOZ failed to generate good internal coordinates.
 Cartesian coordinates will be used in optimizations.



                             Geometry "geometry" -> ""
                             -------------------------

 Output coordinates in angstroms (scale by  1.889725989 to convert to a.u.)

  No.       Tag          Charge          X              Y              Z
 ---- ---------------- ---------- -------------- -------------- --------------
    1 H                    1.0000     0.00000000     0.00000000    -1.75000000
    2 H                    1.0000     0.00000000     0.00000000     1.75000000

      Atomic Mass 
      ----------- 

      H                  1.007825


 Effective nuclear repulsion energy (a.u.)       0.1511934997

            Nuclear Dipole moment (a.u.) 
            ----------------------------
        X                 Y               Z
 ---------------- ---------------- ----------------
     0.0000000000     0.0000000000     0.0000000000

      Symmetry information
      --------------------

 Group name             D4h       
 Group number             28
 Group order              16
 No. of unique centers     1

      Symmetry unique atoms

     1


            XYZ format geometry
            -------------------
     2
 geometry
 H                     0.00000000     0.00000000    -1.75000000
 H                     0.00000000     0.00000000     1.75000000

          ****************************************************
          *                                                  *
          *               NWPW PSPW Calculation              *
          *                                                  *
          * [ (Grassmann/Stiefel manifold implementation)  ] *
          *                                                  *
          *      [ NorthWest Chemistry implementation ]      *
          *                                                  *
          *            version #5.10   06/12/02              *
          *                                                  *
          *    This code was developed by Eric J. Bylaska,   *
          *    and was based upon algorithms and code        *
          *    developed by the group of Prof. John H. Weare *
          *                                                  *
          ****************************************************
     >>>  JOB STARTED       AT Sat Apr  5 14:21:53 2025  <<<
          ================ input data ========================

 input psi filename:./pspw_hf_H2.movecs

 number of processors used:        16
 processor grid           :  16 x   1
 parallel mapping         :2d-hilbert
 parallel mapping         :  balanced
 number of threads        :         1
 parallel io              :       off

 options:
      boundary conditions  = aperiodic   (version4)
      electron spin        = restricted
      exchange-correlation = Hartree-Fock
      - HFX relaxed
      - HFX restricted orbitals :    1
      - HFX free-space coulomb solver


 elements involved in the cluster:
      1: H   valence charge:  1.0000  lmax=  1
             comment    : Parameterized (Chem.Phys.Lett., vol 322, page 447) Hamman psp
             pseudpotential type            :   0
             highest angular component      :   1
             local potential used           :   1
             number of non-local projections:   1
             aperiodic cutoff radius        :  1.000
             cutoff =   0.800   0.800


 total charge:   0.000

 atomic composition:
     H   :    2

 number of electrons: spin up=     1 (   1 per task)  down=     1 (   1 per task) (Fourier space)
 number of orbitals : spin up=     1 (   1 per task)  down=     1 (   1 per task) (Fourier space)

 supercell:
      cell_name:  cell_default                                      
      lattice:    a1=<  15.000   0.000   0.000 >
                  a2=<   0.000  15.000   0.000 >
                  a3=<   0.000   0.000  15.000 >
      reciprocal: b1=<   0.419   0.000   0.000 >
                  b2=<   0.000   0.419   0.000 >
                  b3=<   0.000   0.000   0.419 >
      lattice:    a=      15.000 b=     15.000 c=      15.000
                  alpha=  90.000 beta=  90.000 gamma=  90.000
                  omega=      3375.0

      density cutoff=100.000  fft= 70x 70x 70(    80618 waves     5038 per task)
      wavefnc cutoff= 50.000  fft= 70x 70x 70(    28526 waves     1782 per task)

 technical parameters:
      time step=      5.80     fictitious mass=  400000.0
      tolerance=0.100E-08 (energy)   0.100E-08 (density)
      maximum iterations =      1000 (   10 inner    100 outer )





== Energy Calculation ==


          ============ Grassmann lmbfgs iteration ============
     >>>  ITERATION STARTED AT Sat Apr  5 14:21:59 2025  <<<
    iter.           Energy         DeltaE       DeltaRho 
    ------------------------------------------------------
      10   -0.8076756791E+00   -0.15974E-02    0.70733E-02
     -  10 steepest descent iterations performed
      20   -0.8127970491E+00   -0.13623E-03    0.76577E-04
      30   -0.8130334057E+00   -0.53416E-05    0.53269E-05
      40   -0.8130484528E+00   -0.22671E-06    0.16010E-06
      50   -0.8130491422E+00   -0.11878E-07    0.76210E-09
      60   -0.8130491716E+00   -0.87442E-09    0.74537E-10
  *** tolerance ok. iteration terminated
     >>>  ITERATION ENDED   AT Sat Apr  5 14:22:08 2025  <<<


==  Summary Of Results  ==

 number of electrons: spin up=    1.00000  down=    1.00000 (real space)

 total     energy    :  -0.8130491716E+00 (   -0.40652E+00/ion)
 total orbital energy:  -0.6392100831E+00 (   -0.63921E+00/electron)
 hartree   energy    :   0.6500651763E+00 (    0.65007E+00/electron)
 exc-corr  energy    :   0.0000000000E+00 (    0.00000E+00/electron)
 HF exchange energy  :  -0.3250325881E+00 (   -0.32503E+00/electron)
 ion-ion   energy    :   0.1511934997E+00 (    0.75597E-01/ion)

 kinetic (planewave) :   0.6171981574E+00 (    0.61720E+00/electron)
 V_local (planewave) :  -0.1759826413E+01 (   -0.17598E+01/electron)
 V_nl    (planewave) :  -0.1466470041E+00 (   -0.14665E+00/electron)
 V_Coul  (planewave) :   0.1300130353E+01 (    0.13001E+01/electron)
 V_xc.   (planewave) :   0.0000000000E+00 (    0.00000E+00/electron)
 K.S. HFX energy     :  -0.6500651763E+00 (   -0.65007E+00/electron)
 Virial Coefficient  :  -0.9824123046E+00

 orbital energies:
    -0.3196050E+00 (  -8.697eV)


== Virtual Orbital Calculation ==


 input epsi filename:./pspw_hf_H2.emovecs

 COVOs Mimimization
 ------------------
CI gradient algorithm =         3
maxit_sweeps          =         3
maxit_orb             =       120
maxit_linesearch      =        15
maxerror              = 0.100E-08

     orb,it,eci,eold,eci-eold=                    1                    1 -0.92109919581974797      -0.91895587095492792       -2.1433248648200509E-003 F
     orb,it,eci,eold,eci-eold=                    1                    2 -0.92146220351555330      -0.92109919581974797       -3.6300769580532855E-004 F
     orb,it,eci,eold,eci-eold=                    1                    3 -0.93551193997422577      -0.92146220351555330       -1.4049736458672468E-002 F
     orb,it,eci,eold,eci-eold=                    1                    4 -0.93593773000325675      -0.93551193997422577       -4.2579002903098129E-004 F
     orb,it,eci,eold,eci-eold=                    1                    5 -0.93853932032223131      -0.93593773000325675       -2.6015903189745559E-003 F
     orb,it,eci,eold,eci-eold=                    1                    6 -0.94317603394582572      -0.93853932032223131       -4.6367136235944129E-003 F
     orb,it,eci,eold,eci-eold=                    1                    7 -0.94711511624560163      -0.94317603394582572       -3.9390822997759090E-003 F
     orb,it,eci,eold,eci-eold=                    1                    8 -0.94860065889642164      -0.94711511624560163       -1.4855426508200154E-003 F
     orb,it,eci,eold,eci-eold=                    1                    9 -0.94961740474517331      -0.94860065889642164       -1.0167458487516656E-003 F
     orb,it,eci,eold,eci-eold=                    1                   10 -0.95576215121531116      -0.94961740474517331       -6.1447464701378518E-003 F
     orb,it,eci,eold,eci-eold=                    1                   11 -0.95603152588734996      -0.95576215121531116       -2.6937467203880239E-004 F
     orb,it,eci,eold,eci-eold=                    1                   12 -0.95613868426587190      -0.95603152588734996       -1.0715837852193211E-004 F
     orb,it,eci,eold,eci-eold=                    1                   13 -0.95987937817530566      -0.95613868426587190       -3.7406939094337677E-003 F
     orb,it,eci,eold,eci-eold=                    1                   14 -0.96175002398651011      -0.95987937817530566       -1.8706458112044411E-003 F
     orb,it,eci,eold,eci-eold=                    1                   15 -0.96444869086909413      -0.96175002398651011       -2.6986668825840221E-003 F
     orb,it,eci,eold,eci-eold=                    1                   16 -0.96598023194090776      -0.96444869086909413       -1.5315410718136357E-003 F
     orb,it,eci,eold,eci-eold=                    1                   17 -0.96734805263751866      -0.96598023194090776       -1.3678206966108997E-003 F
     orb,it,eci,eold,eci-eold=                    1                   18 -0.96798888984917908      -0.96734805263751866       -6.4083721166041663E-004 F
     orb,it,eci,eold,eci-eold=                    1                   19 -0.96953013637222185      -0.96798888984917908       -1.5412465230427719E-003 F
     orb,it,eci,eold,eci-eold=                    1                   20 -0.96987265019671975      -0.96953013637222185       -3.4251382449790313E-004 F
     orb,it,eci,eold,eci-eold=                    1                   21 -0.97015465589320549      -0.96987265019671975       -2.8200569648573204E-004 F
     orb,it,eci,eold,eci-eold=                    1                   22 -0.97145712541475449      -0.97015465589320549       -1.3024695215489990E-003 F
     orb,it,eci,eold,eci-eold=                    1                   23 -0.97153686866023337      -0.97145712541475449       -7.9743245478880453E-005 F
     orb,it,eci,eold,eci-eold=                    1                   24 -0.97161351562016263      -0.97153686866023337       -7.6646959929260738E-005 F
     orb,it,eci,eold,eci-eold=                    1                   25 -0.97294132364002150      -0.97161351562016263       -1.3278080198588782E-003 F
     orb,it,eci,eold,eci-eold=                    1                   26 -0.97297548147101043      -0.97294132364002150       -3.4157830988923443E-005 F
     orb,it,eci,eold,eci-eold=                    1                   27 -0.97299642088572846      -0.97297548147101043       -2.0939414718035287E-005 F
     orb,it,eci,eold,eci-eold=                    1                   28 -0.97402355451776090      -0.97299642088572846       -1.0271336320324398E-003 F
     orb,it,eci,eold,eci-eold=                    1                   29 -0.97452494840603909      -0.97402355451776090       -5.0139388827818987E-004 F
     orb,it,eci,eold,eci-eold=                    1                   30 -0.97485662494651026      -0.97452494840603909       -3.3167654047117079E-004 F
     orb,it,eci,eold,eci-eold=                    1                   31 -0.97504971768983395      -0.97485662494651026       -1.9309274332368620E-004 F
     orb,it,eci,eold,eci-eold=                    1                   32 -0.97554723683694133      -0.97504971768983395       -4.9751914710738365E-004 F
     orb,it,eci,eold,eci-eold=                    1                   33 -0.97555885682064747      -0.97554723683694133       -1.1619983706134818E-005 F
     orb,it,eci,eold,eci-eold=                    1                   34 -0.97559159233362092      -0.97555885682064747       -3.2735512973447456E-005 F
     orb,it,eci,eold,eci-eold=                    1                   35 -0.97605133385054677      -0.97559159233362092       -4.5974151692584897E-004 F
     orb,it,eci,eold,eci-eold=                    1                   36 -0.97632298921567851      -0.97605133385054677       -2.7165536513173993E-004 F
     orb,it,eci,eold,eci-eold=                    1                   37 -0.97655541533213475      -0.97632298921567851       -2.3242611645624134E-004 F
     orb,it,eci,eold,eci-eold=                    1                   38 -0.97666990110891017      -0.97655541533213475       -1.1448577677541927E-004 F
     orb,it,eci,eold,eci-eold=                    1                   39 -0.97690761858555886      -0.97666990110891017       -2.3771747664869114E-004 F
     orb,it,eci,eold,eci-eold=                    1                   40 -0.97704008339738513      -0.97690761858555886       -1.3246481182627168E-004 F
     orb,it,eci,eold,eci-eold=                    1                   41 -0.97716861169186298      -0.97704008339738513       -1.2852829447784764E-004 F
     orb,it,eci,eold,eci-eold=                    1                   42 -0.97723744146130254      -0.97716861169186298       -6.8829769439560096E-005 F
     orb,it,eci,eold,eci-eold=                    1                   43 -0.97737913300324930      -0.97723744146130254       -1.4169154194676459E-004 F
     orb,it,eci,eold,eci-eold=                    1                   44 -0.97738682540303112      -0.97737913300324930       -7.6923997818223455E-006 F
     orb,it,eci,eold,eci-eold=                    1                   45 -0.97739166889823548      -0.97738682540303112       -4.8434952043541202E-006 F
     orb,it,eci,eold,eci-eold=                    1                   46 -0.97748772555718944      -0.97739166889823548       -9.6056658953957985E-005 F
     orb,it,eci,eold,eci-eold=                    1                   47 -0.97752146326395706      -0.97748772555718944       -3.3737706767622555E-005 F
     orb,it,eci,eold,eci-eold=                    1                   48 -0.97752440209888047      -0.97752146326395706       -2.9388349234160671E-006 F
     orb,it,eci,eold,eci-eold=                    1                   49 -0.97759801721211359      -0.97752440209888047       -7.3615113233116425E-005 F
     orb,it,eci,eold,eci-eold=                    1                   50 -0.97765687997971151      -0.97759801721211359       -5.8862767597922527E-005 F
     orb,it,eci,eold,eci-eold=                    1                   51 -0.97768043144290051      -0.97765687997971151       -2.3551463188997701E-005 F
     orb,it,eci,eold,eci-eold=                    1                   52 -0.97773611103185687      -0.97768043144290051       -5.5679588956358828E-005 F
     orb,it,eci,eold,eci-eold=                    1                   53 -0.97774223920016978      -0.97773611103185687       -6.1281683129132958E-006 F
     orb,it,eci,eold,eci-eold=                    1                   54 -0.97774924066007929      -0.97774223920016978       -7.0014599095058472E-006 F
     orb,it,eci,eold,eci-eold=                    1                   55 -0.97780334867598584      -0.97774924066007929       -5.4108015906551010E-005 F
     orb,it,eci,eold,eci-eold=                    1                   56 -0.97783019444929231      -0.97780334867598584       -2.6845773306471976E-005 F
     orb,it,eci,eold,eci-eold=                    1                   57 -0.97783745692975810      -0.97783019444929231       -7.2624804657861475E-006 F
     orb,it,eci,eold,eci-eold=                    1                   58 -0.97787452132156050      -0.97783745692975810       -3.7064391802399399E-005 F
     orb,it,eci,eold,eci-eold=                    1                   59 -0.97788834729047547      -0.97787452132156050       -1.3825968914971121E-005 F
     orb,it,eci,eold,eci-eold=                    1                   60 -0.97789452717753966      -0.97788834729047547       -6.1798870641949222E-006 F
     orb,it,eci,eold,eci-eold=                    1                   61 -0.97792901027874746      -0.97789452717753966       -3.4483101207793965E-005 F
     orb,it,eci,eold,eci-eold=                    1                   62 -0.97794569193401859      -0.97792901027874746       -1.6681655271133522E-005 F
     orb,it,eci,eold,eci-eold=                    1                   63 -0.97795117925445008      -0.97794569193401859       -5.4873204314853652E-006 F
     orb,it,eci,eold,eci-eold=                    1                   64 -0.97797577760951016      -0.97795117925445008       -2.4598355060079236E-005 F
     orb,it,eci,eold,eci-eold=                    1                   65 -0.97798657642859899      -0.97797577760951016       -1.0798819088830847E-005 F
     orb,it,eci,eold,eci-eold=                    1                   66 -0.97799289491149943      -0.97798657642859899       -6.3184829004470089E-006 F
     orb,it,eci,eold,eci-eold=                    1                   67 -0.97801826973463102      -0.97799289491149943       -2.5374823131585345E-005 F
     orb,it,eci,eold,eci-eold=                    1                   68 -0.97802619063579466      -0.97801826973463102       -7.9209011636383053E-006 F
     orb,it,eci,eold,eci-eold=                    1                   69 -0.97802792853084319      -0.97802619063579466       -1.7378950485369415E-006 F
     orb,it,eci,eold,eci-eold=                    1                   70 -0.97804391081240516      -0.97802792853084319       -1.5982281561965905E-005 F
     orb,it,eci,eold,eci-eold=                    1                   71 -0.97804922569032304      -0.97804391081240516       -5.3148779178835426E-006 F
     orb,it,eci,eold,eci-eold=                    1                   72 -0.97805080713531478      -0.97804922569032304       -1.5814449917384010E-006 F
     orb,it,eci,eold,eci-eold=                    1                   73 -0.97806463282713352      -0.97805080713531478       -1.3825691818736274E-005 F
     orb,it,eci,eold,eci-eold=                    1                   74 -0.97807159743011218      -0.97806463282713352       -6.9646029786651908E-006 F
     orb,it,eci,eold,eci-eold=                    1                   75 -0.97807376143563129      -0.97807159743011218       -2.1640055191118890E-006 F
     orb,it,eci,eold,eci-eold=                    1                   76 -0.97808431351928193      -0.97807376143563129       -1.0552083650638977E-005 F
     orb,it,eci,eold,eci-eold=                    1                   77 -0.97808719513316800      -0.97808431351928193       -2.8816138860632279E-006 F
     orb,it,eci,eold,eci-eold=                    1                   78 -0.97808803786561815      -0.97808719513316800       -8.4273245015697995E-007 F
     orb,it,eci,eold,eci-eold=                    1                   79 -0.97809718160072412      -0.97808803786561815       -9.1437351059653338E-006 F
     orb,it,eci,eold,eci-eold=                    1                   80 -0.97810257140312362      -0.97809718160072412       -5.3898023995024857E-006 F
     orb,it,eci,eold,eci-eold=                    1                   81 -0.97810443453056861      -0.97810257140312362       -1.8631274449898427E-006 F
     orb,it,eci,eold,eci-eold=                    1                   82 -0.97811241729616016      -0.97810443453056861       -7.9827655915520879E-006 F
     orb,it,eci,eold,eci-eold=                    1                   83 -0.97811460735983335      -0.97811241729616016       -2.1900636731908563E-006 F
     orb,it,eci,eold,eci-eold=                    1                   84 -0.97811496088337058      -0.97811460735983335       -3.5352353722206686E-007 F
     orb,it,eci,eold,eci-eold=                    1                   85 -0.97812130324959123      -0.97811496088337058       -6.3423662206574249E-006 F
     orb,it,eci,eold,eci-eold=                    1                   86 -0.97812585963686782      -0.97812130324959123       -4.5563872765885804E-006 F
     orb,it,eci,eold,eci-eold=                    1                   87 -0.97812754147440295      -0.97812585963686782       -1.6818375351279613E-006 F
     orb,it,eci,eold,eci-eold=                    1                   88 -0.97813304114607946      -0.97812754147440295       -5.4996716765121079E-006 F
     orb,it,eci,eold,eci-eold=                    1                   89 -0.97813476002088851      -0.97813304114607946       -1.7188748090424255E-006 F
     orb,it,eci,eold,eci-eold=                    1                   90 -0.97813552987789121      -0.97813476002088851       -7.6985700270260082E-007 F
     orb,it,eci,eold,eci-eold=                    1                   91 -0.97814028227552441      -0.97813552987789121       -4.7523976332008999E-006 F
     orb,it,eci,eold,eci-eold=                    1                   92 -0.97814199749323638      -0.97814028227552441       -1.7152177119728051E-006 F
     orb,it,eci,eold,eci-eold=                    1                   93 -0.97814229575025324      -0.97814199749323638       -2.9825701686192474E-007 F
     orb,it,eci,eold,eci-eold=                    1                   94 -0.97814561454722715      -0.97814229575025324       -3.3187969739056911E-006 F
     orb,it,eci,eold,eci-eold=                    1                   95 -0.97814724478597437      -0.97814561454722715       -1.6302387472189039E-006 F
     orb,it,eci,eold,eci-eold=                    1                   96 -0.97814779914784722      -0.97814724478597437       -5.5436187285096139E-007 F
     orb,it,eci,eold,eci-eold=                    1                   97 -0.97815069174769109      -0.97814779914784722       -2.8925998438733558E-006 F
     orb,it,eci,eold,eci-eold=                    1                   98 -0.97815203764259862      -0.97815069174769109       -1.3458949075229043E-006 F
     orb,it,eci,eold,eci-eold=                    1                   99 -0.97815254236762927      -0.97815203764259862       -5.0472503065890351E-007 F
     orb,it,eci,eold,eci-eold=                    1                  100 -0.97815480733010074      -0.97815254236762927       -2.2649624714654593E-006 F
     orb,it,eci,eold,eci-eold=                    1                  101 -0.97815543510980996      -0.97815480733010074       -6.2777970921690240E-007 F
     orb,it,eci,eold,eci-eold=                    1                  102 -0.97815557158376643      -0.97815543510980996       -1.3647395646909644E-007 F
     orb,it,eci,eold,eci-eold=                    1                  103 -0.97815707108719141      -0.97815557158376643       -1.4995034249842831E-006 F
     orb,it,eci,eold,eci-eold=                    1                  104 -0.97815778636219775      -0.97815707108719141       -7.1527500633550289E-007 F
     orb,it,eci,eold,eci-eold=                    1                  105 -0.97815810897635347      -0.97815778636219775       -3.2261415572332197E-007 F
     orb,it,eci,eold,eci-eold=                    1                  106 -0.97815951845644267      -0.97815810897635347       -1.4094800891983894E-006 F
     orb,it,eci,eold,eci-eold=                    1                  107 -0.97816003610206015      -0.97815951845644267       -5.1764561748157689E-007 F
     orb,it,eci,eold,eci-eold=                    1                  108 -0.97816022345135423      -0.97816003610206015       -1.8734929407848711E-007 F
     orb,it,eci,eold,eci-eold=                    1                  109 -0.97816139694166304      -0.97816022345135423       -1.1734903088145288E-006 F
     orb,it,eci,eold,eci-eold=                    1                  110 -0.97816204942260865      -0.97816139694166304       -6.5248094560654835E-007 F
     orb,it,eci,eold,eci-eold=                    1                  111 -0.97816231641898976      -0.97816204942260865       -2.6699638111526980E-007 F
     orb,it,eci,eold,eci-eold=                    1                  112 -0.97816332721544230      -0.97816231641898976       -1.0107964525385427E-006 F
     orb,it,eci,eold,eci-eold=                    1                  113 -0.97816371820507264      -0.97816332721544230       -3.9098963033890044E-007 F
     orb,it,eci,eold,eci-eold=                    1                  114 -0.97816389710691154      -0.97816371820507264       -1.7890183889868183E-007 F
     orb,it,eci,eold,eci-eold=                    1                  115 -0.97816474615949955      -0.97816389710691154       -8.4905258801448724E-007 F
     orb,it,eci,eold,eci-eold=                    1                  116 -0.97816496366358929      -0.97816474615949955       -2.1750408973897351E-007 F
     orb,it,eci,eold,eci-eold=                    1                  117 -0.97816499743700636      -0.97816496366358929       -3.3773417063009958E-008 F
     orb,it,eci,eold,eci-eold=                    1                  118 -0.97816560451505719      -0.97816499743700636       -6.0707805082937938E-007 F
     orb,it,eci,eold,eci-eold=                    1                  119 -0.97816590836638517      -0.97816560451505719       -3.0385132798738113E-007 F
     orb,it,eci,eold,eci-eold=                    1                  120 -0.97816599566607598      -0.97816590836638517       -8.7299690809672370E-008 F
     orb,it,eci,eold,eci-eold=                    1                  121 -0.97816649001921152      -0.97816599566607598       -4.9435313553836124E-007 F
     orbital   1 current e= -0.137148E+00 error=0.830E-01 (eci= -0.978166490E+00 error=0.494E-06) iterations 121(   0 preconditioned, Ep,Sp= 20.0  200.0)
     orb,it,eci,eold,eci-eold=                    1                    1 -0.97816789623366529      -0.97816649001921152       -1.4062144537696497E-006 F
     orb,it,eci,eold,eci-eold=                    1                    2 -0.97816847127371120      -0.97816789623366529       -5.7504004591368840E-007 F
     orb,it,eci,eold,eci-eold=                    1                    3 -0.97816910302452720      -0.97816847127371120       -6.3175081599364802E-007 F
     orb,it,eci,eold,eci-eold=                    1                    4 -0.97816915020475226      -0.97816910302452720       -4.7180225060117209E-008 F
     orb,it,eci,eold,eci-eold=                    1                    5 -0.97816915459003961      -0.97816915020475226       -4.3852873554683924E-009 F
     orb,it,eci,eold,eci-eold=                    1                    6 -0.97816949379074036      -0.97816915459003961       -3.3920070074966446E-007 F
     orb,it,eci,eold,eci-eold=                    1                    7 -0.97816953146715557      -0.97816949379074036       -3.7676415209908498E-008 F
     orb,it,eci,eold,eci-eold=                    1                    8 -0.97816956911197628      -0.97816953146715557       -3.7644820705118320E-008 F
     orb,it,eci,eold,eci-eold=                    1                    9 -0.97816968897097267      -0.97816956911197628       -1.1985899639466169E-007 F
     orb,it,eci,eold,eci-eold=                    1                   10 -0.97816970976286566      -0.97816968897097267       -2.0791892985094762E-008 F
     orb,it,eci,eold,eci-eold=                    1                   11 -0.97816977224950552      -0.97816970976286566       -6.2486639862413540E-008 F
     orb,it,eci,eold,eci-eold=                    1                   12 -0.97816990234366941      -0.97816977224950552       -1.3009416388598538E-007 F
     orb,it,eci,eold,eci-eold=                    1                   13 -0.97816996146093105      -0.97816990234366941       -5.9117261641539187E-008 F
     orb,it,eci,eold,eci-eold=                    1                   14 -0.97817000492067252      -0.97816996146093105       -4.3459741472240410E-008 F
     orb,it,eci,eold,eci-eold=                    1                   15 -0.97817002690722821      -0.97817000492067252       -2.1986555687192322E-008 F
     orb,it,eci,eold,eci-eold=                    1                   16 -0.97817007763803210      -0.97817002690722821       -5.0730803891063658E-008 F
     orb,it,eci,eold,eci-eold=                    1                   17 -0.97817010585359510      -0.97817007763803210       -2.8215562997147003E-008 F
     orb,it,eci,eold,eci-eold=                    1                   18 -0.97817012099552270      -0.97817010585359510       -1.5141927600659244E-008 F
     orb,it,eci,eold,eci-eold=                    1                   19 -0.97817012763561406      -0.97817012099552270       -6.6400913656394778E-009 F
     orb,it,eci,eold,eci-eold=                    1                   20 -0.97817014729359419      -0.97817012763561406       -1.9657980132592456E-008 F
     orb,it,eci,eold,eci-eold=                    1                   21 -0.97817015823124820      -0.97817014729359419       -1.0937654004727904E-008 F
     orb,it,eci,eold,eci-eold=                    1                   22 -0.97817016993891848      -0.97817015823124820       -1.1707670277694149E-008 F
     orb,it,eci,eold,eci-eold=                    1                   23 -0.97817016993891848      -0.97817016993891848        0.0000000000000000      F
     orbital   1 current e= -0.137155E+00 error=0.753E-05 (eci= -0.978170170E+00 error=0.000E+00) iterations  23(   0 preconditioned, Ep,Sp= 20.0  200.0)
     orb,it,eci,eold,eci-eold=                    1                    1 -0.97817019132027372      -0.97817016895233533       -2.2367938390388531E-008 F
     orb,it,eci,eold,eci-eold=                    1                    2 -0.97817019732244137      -0.97817019132027372       -6.0021676517862943E-009 F
     orb,it,eci,eold,eci-eold=                    1                    3 -0.97817019926088045      -0.97817019732244137       -1.9384390759213943E-009 F
     orb,it,eci,eold,eci-eold=                    1                    4 -0.97817020081543982      -0.97817019926088045       -1.5545593701205007E-009 F
     orb,it,eci,eold,eci-eold=                    1                    5 -0.97817020229627449      -0.97817020081543982       -1.4808346771033598E-009 F
     orb,it,eci,eold,eci-eold=                    1                    6 -0.97817020411676658      -0.97817020229627449       -1.8204920904096866E-009 F
     orb,it,eci,eold,eci-eold=                    1                    7 -0.97817020478553340      -0.97817020411676658       -6.6876681970029495E-010 F
     orbital   1 current e= -0.137156E+00 error=0.817E-06 (eci= -0.978170205E+00 error=0.669E-09) iterations   7(   0 preconditioned, Ep,Sp= 20.0  200.0)
     orb,it,eci,eold,eci-eold=                    2                    1 -0.81660951177078078      -0.81606548526963729       -5.4402650114349083E-004 F
     orb,it,eci,eold,eci-eold=                    2                    2 -0.81664216283981905      -0.81660951177078078       -3.2651069038269753E-005 F
     orb,it,eci,eold,eci-eold=                    2                    3 -0.81667530077481953      -0.81664216283981905       -3.3137935000482344E-005 F
     orb,it,eci,eold,eci-eold=                    2                    4 -0.81677953090502720      -0.81667530077481953       -1.0423013020766092E-004 F
     orb,it,eci,eold,eci-eold=                    2                    5 -0.81684075865082173      -0.81677953090502720       -6.1227745794534272E-005 F
     orb,it,eci,eold,eci-eold=                    2                    6 -0.81693886039952301      -0.81684075865082173       -9.8101748701284741E-005 F
     orb,it,eci,eold,eci-eold=                    2                    7 -0.81700863983828032      -0.81693886039952301       -6.9779438757300305E-005 F
     orb,it,eci,eold,eci-eold=                    2                    8 -0.81704661340310936      -0.81700863983828032       -3.7973564829041351E-005 F
     orb,it,eci,eold,eci-eold=                    2                    9 -0.81705656091337553      -0.81704661340310936       -9.9475102661727988E-006 F
     orb,it,eci,eold,eci-eold=                    2                   10 -0.81708806344656115      -0.81705656091337553       -3.1502533185623349E-005 F
     orb,it,eci,eold,eci-eold=                    2                   11 -0.81711077908191332      -0.81708806344656115       -2.2715635352166252E-005 F
     orb,it,eci,eold,eci-eold=                    2                   12 -0.81711276188853277      -0.81711077908191332       -1.9828066194493843E-006 F
     orb,it,eci,eold,eci-eold=                    2                   13 -0.81714343151717950      -0.81711276188853277       -3.0669628646728953E-005 F
     orb,it,eci,eold,eci-eold=                    2                   14 -0.81717785966766021      -0.81714343151717950       -3.4428150480714237E-005 F
     orb,it,eci,eold,eci-eold=                    2                   15 -0.81719582395633239      -0.81717785966766021       -1.7964288672178697E-005 F
     orb,it,eci,eold,eci-eold=                    2                   16 -0.81721382940228149      -0.81719582395633239       -1.8005445949098586E-005 F
     orb,it,eci,eold,eci-eold=                    2                   17 -0.81722459920846546      -0.81721382940228149       -1.0769806183974495E-005 F
     orb,it,eci,eold,eci-eold=                    2                   18 -0.81725479899255293      -0.81722459920846546       -3.0199784087470150E-005 F
     orb,it,eci,eold,eci-eold=                    2                   19 -0.81726221885049477      -0.81725479899255293       -7.4198579418371935E-006 F
     orb,it,eci,eold,eci-eold=                    2                   20 -0.81726364169563004      -0.81726221885049477       -1.4228451352682470E-006 F
     orb,it,eci,eold,eci-eold=                    2                   21 -0.81727617513354400      -0.81726364169563004       -1.2533437913964107E-005 F
     orb,it,eci,eold,eci-eold=                    2                   22 -0.81727643112226978      -0.81727617513354400       -2.5598872577248244E-007 F
     orb,it,eci,eold,eci-eold=                    2                   23 -0.81727766079015618      -0.81727643112226978       -1.2296678864043287E-006 F
     orb,it,eci,eold,eci-eold=                    2                   24 -0.81729188489149407      -0.81727766079015618       -1.4224101337889650E-005 F
     orb,it,eci,eold,eci-eold=                    2                   25 -0.81729869236018238      -0.81729188489149407       -6.8074686883079494E-006 F
     orb,it,eci,eold,eci-eold=                    2                   26 -0.81730060913651847      -0.81729869236018238       -1.9167763360972145E-006 F
     orb,it,eci,eold,eci-eold=                    2                   27 -0.81731111138144097      -0.81730060913651847       -1.0502244922494519E-005 F
     orb,it,eci,eold,eci-eold=                    2                   28 -0.81731223109129036      -0.81731111138144097       -1.1197098493953561E-006 F
     orb,it,eci,eold,eci-eold=                    2                   29 -0.81731307528508279      -0.81731223109129036       -8.4419379242639536E-007 F
     orb,it,eci,eold,eci-eold=                    2                   30 -0.81732617863238333      -0.81731307528508279       -1.3103347300535972E-005 F
     orb,it,eci,eold,eci-eold=                    2                   31 -0.81732684790760568      -0.81732617863238333       -6.6927522235360470E-007 F
     orb,it,eci,eold,eci-eold=                    2                   32 -0.81732686037840852      -0.81732684790760568       -1.2470802834840811E-008 F
     orb,it,eci,eold,eci-eold=                    2                   33 -0.81733545804895713      -0.81732686037840852       -8.5976705486157101E-006 F
     orb,it,eci,eold,eci-eold=                    2                   34 -0.81733875174176429      -0.81733545804895713       -3.2936928071602978E-006 F
     orb,it,eci,eold,eci-eold=                    2                   35 -0.81734141460176746      -0.81733875174176429       -2.6628600031664007E-006 F
     orb,it,eci,eold,eci-eold=                    2                   36 -0.81734142771431517      -0.81734141460176746       -1.3112547714300149E-008 F
     orb,it,eci,eold,eci-eold=                    2                   37 -0.81734394169519220      -0.81734142771431517       -2.5139808770280325E-006 F
     orb,it,eci,eold,eci-eold=                    2                   38 -0.81735029812206039      -0.81734394169519220       -6.3564268681925995E-006 F
     orb,it,eci,eold,eci-eold=                    2                   39 -0.81735076971265297      -0.81735029812206039       -4.7159059257673164E-007 F
     orb,it,eci,eold,eci-eold=                    2                   40 -0.81735078383348636      -0.81735076971265297       -1.4120833391473298E-008 F
     orb,it,eci,eold,eci-eold=                    2                   41 -0.81735413283499669      -0.81735078383348636       -3.3490015103332382E-006 F
     orb,it,eci,eold,eci-eold=                    2                   42 -0.81735713674844956      -0.81735413283499669       -3.0039134528703215E-006 F
     orb,it,eci,eold,eci-eold=                    2                   43 -0.81735913163091878      -0.81735713674844956       -1.9948824692139766E-006 F
     orb,it,eci,eold,eci-eold=                    2                   44 -0.81736308140212310      -0.81735913163091878       -3.9497712043257138E-006 F
     orb,it,eci,eold,eci-eold=                    2                   45 -0.81736513686577816      -0.81736308140212310       -2.0554636550595973E-006 F
     orb,it,eci,eold,eci-eold=                    2                   46 -0.81736773645918515      -0.81736513686577816       -2.5995934069822368E-006 F
     orb,it,eci,eold,eci-eold=                    2                   47 -0.81736793003808739      -0.81736773645918515       -1.9357890224114271E-007 F
     orb,it,eci,eold,eci-eold=                    2                   48 -0.81736845359589561      -0.81736793003808739       -5.2355780821855546E-007 F
     orb,it,eci,eold,eci-eold=                    2                   49 -0.81737086403780856      -0.81736845359589561       -2.4104419129589161E-006 F
     orb,it,eci,eold,eci-eold=                    2                   50 -0.81737182864961255      -0.81737086403780856       -9.6461180398854651E-007 F
     orb,it,eci,eold,eci-eold=                    2                   51 -0.81737209333508654      -0.81737182864961255       -2.6468547398295073E-007 F
     orb,it,eci,eold,eci-eold=                    2                   52 -0.81737344547546453      -0.81737209333508654       -1.3521403779970242E-006 F
     orb,it,eci,eold,eci-eold=                    2                   53 -0.81737400916339287      -0.81737344547546453       -5.6368792833438874E-007 F
     orb,it,eci,eold,eci-eold=                    2                   54 -0.81737444379519819      -0.81737400916339287       -4.3463180532388179E-007 F
     orb,it,eci,eold,eci-eold=                    2                   55 -0.81737602644514518      -0.81737444379519819       -1.5826499469850930E-006 F
     orb,it,eci,eold,eci-eold=                    2                   56 -0.81737626726733204      -0.81737602644514518       -2.4082218685883561E-007 F
     orb,it,eci,eold,eci-eold=                    2                   57 -0.81737640287932911      -0.81737626726733204       -1.3561199707634586E-007 F
     orb,it,eci,eold,eci-eold=                    2                   58 -0.81737817606333885      -0.81737640287932911       -1.7731840097345852E-006 F
     orb,it,eci,eold,eci-eold=                    2                   59 -0.81737827595962886      -0.81737817606333885       -9.9896290017831291E-008 F
     orb,it,eci,eold,eci-eold=                    2                   60 -0.81737828170138804      -0.81737827595962886       -5.7417591792230382E-009 F
     orb,it,eci,eold,eci-eold=                    2                   61 -0.81737946877452439      -0.81737828170138804       -1.1870731363439191E-006 F
     orb,it,eci,eold,eci-eold=                    2                   62 -0.81737995602787261      -0.81737946877452439       -4.8725334822474764E-007 F
     orb,it,eci,eold,eci-eold=                    2                   63 -0.81737998395618605      -0.81737995602787261       -2.7928313439673502E-008 F
     orb,it,eci,eold,eci-eold=                    2                   64 -0.81738064932511589      -0.81737998395618605       -6.6536892984192519E-007 F
     orb,it,eci,eold,eci-eold=                    2                   65 -0.81738110994853941      -0.81738064932511589       -4.6062342351493868E-007 F
     orb,it,eci,eold,eci-eold=                    2                   66 -0.81738131432954519      -0.81738110994853941       -2.0438100578612506E-007 F
     orb,it,eci,eold,eci-eold=                    2                   67 -0.81738193439609530      -0.81738131432954519       -6.2006655010549139E-007 F
     orb,it,eci,eold,eci-eold=                    2                   68 -0.81738217713136296      -0.81738193439609530       -2.4273526766371845E-007 F
     orb,it,eci,eold,eci-eold=                    2                   69 -0.81738234113935837      -0.81738217713136296       -1.6400799540683408E-007 F
     orb,it,eci,eold,eci-eold=                    2                   70 -0.81738302955942621      -0.81738234113935837       -6.8842006784031184E-007 F
     orb,it,eci,eold,eci-eold=                    2                   71 -0.81738322589031487      -0.81738302955942621       -1.9633088865766979E-007 F
     orb,it,eci,eold,eci-eold=                    2                   72 -0.81738323103567534      -0.81738322589031487       -5.1453604710260947E-009 F
     orb,it,eci,eold,eci-eold=                    2                   73 -0.81738363780630174      -0.81738323103567534       -4.0677062640437356E-007 F
     orb,it,eci,eold,eci-eold=                    2                   74 -0.81738389387952393      -0.81738363780630174       -2.5607322218235140E-007 F
     orb,it,eci,eold,eci-eold=                    2                   75 -0.81738398643557986      -0.81738389387952393       -9.2556055930614889E-008 F
     orb,it,eci,eold,eci-eold=                    2                   76 -0.81738432941815475      -0.81738398643557986       -3.4298257489684403E-007 F
     orb,it,eci,eold,eci-eold=                    2                   77 -0.81738441383929361      -0.81738432941815475       -8.4421138857315725E-008 F
     orb,it,eci,eold,eci-eold=                    2                   78 -0.81738443776973391      -0.81738441383929361       -2.3930440296027200E-008 F
     orb,it,eci,eold,eci-eold=                    2                   79 -0.81738469236510003      -0.81738443776973391       -2.5459536612260081E-007 F
     orb,it,eci,eold,eci-eold=                    2                   80 -0.81738485553625317      -0.81738469236510003       -1.6317115314468111E-007 F
     orb,it,eci,eold,eci-eold=                    2                   81 -0.81738493350456709      -0.81738485553625317       -7.7968313916265686E-008 F
     orb,it,eci,eold,eci-eold=                    2                   82 -0.81738517307490932      -0.81738493350456709       -2.3957034223087703E-007 F
     orb,it,eci,eold,eci-eold=                    2                   83 -0.81738523398032670      -0.81738517307490932       -6.0905417376133641E-008 F
     orb,it,eci,eold,eci-eold=                    2                   84 -0.81738526035381720      -0.81738523398032670       -2.6373490502606955E-008 F
     orb,it,eci,eold,eci-eold=                    2                   85 -0.81738545593998091      -0.81738526035381720       -1.9558616370929371E-007 F
     orb,it,eci,eold,eci-eold=                    2                   86 -0.81738554340159797      -0.81738545593998091       -8.7461617059858554E-008 F
     orb,it,eci,eold,eci-eold=                    2                   87 -0.81738556980928445      -0.81738554340159797       -2.6407686481988435E-008 F
     orb,it,eci,eold,eci-eold=                    2                   88 -0.81738573962814165      -0.81738556980928445       -1.6981885719857814E-007 F
     orb,it,eci,eold,eci-eold=                    2                   89 -0.81738582488975786      -0.81738573962814165       -8.5261616211695923E-008 F
     orb,it,eci,eold,eci-eold=                    2                   90 -0.81738585004081066      -0.81738582488975786       -2.5151052795990836E-008 F
     orb,it,eci,eold,eci-eold=                    2                   91 -0.81738598382040606      -0.81738585004081066       -1.3377959540150641E-007 F
     orb,it,eci,eold,eci-eold=                    2                   92 -0.81738604111284174      -0.81738598382040606       -5.7292435684530574E-008 F
     orb,it,eci,eold,eci-eold=                    2                   93 -0.81738605968747913      -0.81738604111284174       -1.8574637383750314E-008 F
     orb,it,eci,eold,eci-eold=                    2                   94 -0.81738616750304072      -0.81738605968747913       -1.0781556158967476E-007 F
     orb,it,eci,eold,eci-eold=                    2                   95 -0.81738622468648459      -0.81738616750304072       -5.7183443868957795E-008 F
     orb,it,eci,eold,eci-eold=                    2                   96 -0.81738624727862841      -0.81738622468648459       -2.2592143822386390E-008 F
     orb,it,eci,eold,eci-eold=                    2                   97 -0.81738633042998377      -0.81738624727862841       -8.3151355356747558E-008 F
     orb,it,eci,eold,eci-eold=                    2                   98 -0.81738635763870349      -0.81738633042998377       -2.7208719721727448E-008 F
     orb,it,eci,eold,eci-eold=                    2                   99 -0.81738637105912537      -0.81738635763870349       -1.3420421884902112E-008 F
     orb,it,eci,eold,eci-eold=                    2                  100 -0.81738643854312287      -0.81738637105912537       -6.7483997501227577E-008 F
     orb,it,eci,eold,eci-eold=                    2                  101 -0.81738646335232401      -0.81738643854312287       -2.4809201137898640E-008 F
     orb,it,eci,eold,eci-eold=                    2                  102 -0.81738647412256360      -0.81738646335232401       -1.0770239589064090E-008 F
     orb,it,eci,eold,eci-eold=                    2                  103 -0.81738653416722440      -0.81738647412256360       -6.0044660799007943E-008 F
     orb,it,eci,eold,eci-eold=                    2                  104 -0.81738655420276873      -0.81738653416722440       -2.0035544334717770E-008 F
     orb,it,eci,eold,eci-eold=                    2                  105 -0.81738655782830660      -0.81738655420276873       -3.6255378699223684E-009 F
     orb,it,eci,eold,eci-eold=                    2                  106 -0.81738660288419629      -0.81738655782830660       -4.5055889685841066E-008 F
     orb,it,eci,eold,eci-eold=                    2                  107 -0.81738662783498928      -0.81738660288419629       -2.4950792987254999E-008 F
     orb,it,eci,eold,eci-eold=                    2                  108 -0.81738663506323839      -0.81738662783498928       -7.2282491103692337E-009 F
     orb,it,eci,eold,eci-eold=                    2                  109 -0.81738667065702397      -0.81738663506323839       -3.5593785585597004E-008 F
     orb,it,eci,eold,eci-eold=                    2                  110 -0.81738668949370141      -0.81738667065702397       -1.8836677440070559E-008 F
     orb,it,eci,eold,eci-eold=                    2                  111 -0.81738669890462101      -0.81738668949370141       -9.4109195991620709E-009 F
     orb,it,eci,eold,eci-eold=                    2                  112 -0.81738673329874922      -0.81738669890462101       -3.4394128212156261E-008 F
     orb,it,eci,eold,eci-eold=                    2                  113 -0.81738674528611399      -0.81738673329874922       -1.1987364767485076E-008 F
     orb,it,eci,eold,eci-eold=                    2                  114 -0.81738674999466387      -0.81738674528611399       -4.7085498833254746E-009 F
     orb,it,eci,eold,eci-eold=                    2                  115 -0.81738677881517097      -0.81738674999466387       -2.8820507091964487E-008 F
     orb,it,eci,eold,eci-eold=                    2                  116 -0.81738679045632068      -0.81738677881517097       -1.1641149710861498E-008 F
     orb,it,eci,eold,eci-eold=                    2                  117 -0.81738679282404969      -0.81738679045632068       -2.3677290128532036E-009 F
     orb,it,eci,eold,eci-eold=                    2                  118 -0.81738681272786251      -0.81738679282404969       -1.9903812820132316E-008 F
     orb,it,eci,eold,eci-eold=                    2                  119 -0.81738682223841241      -0.81738681272786251       -9.5105499031689078E-009 F
     orb,it,eci,eold,eci-eold=                    2                  120 -0.81738682542686925      -0.81738682223841241       -3.1884568318929496E-009 F
     orb,it,eci,eold,eci-eold=                    2                  121 -0.81738684081862889      -0.81738682542686925       -1.5391759644600711E-008 F
     orbital   2 current e=  0.349773E+00 error=0.648E-01 (eci= -0.817386841E+00 error=0.154E-07) iterations 121(   0 preconditioned, Ep,Sp= 20.0  200.0)
     orb,it,eci,eold,eci-eold=                    2                    1 -0.81738687760622453      -0.81738684081862889       -3.6787595636411652E-008 F
     orb,it,eci,eold,eci-eold=                    2                    2 -0.81738690057697128      -0.81738687760622453       -2.2970746749173543E-008 F
     orb,it,eci,eold,eci-eold=                    2                    3 -0.81738690140260439      -0.81738690057697128       -8.2563311742944734E-010 F
     orbital   2 current e=  0.349758E+00 error=0.146E-04 (eci= -0.817386901E+00 error=0.826E-09) iterations   3(   0 preconditioned, Ep,Sp= 20.0  200.0)
     orb,it,eci,eold,eci-eold=                    2                    1 -0.81738691891626003      -0.81738690140260439       -1.7513655636847147E-008 F
     orb,it,eci,eold,eci-eold=                    2                    2 -0.81738692947158098      -0.81738691891626003       -1.0555320950622615E-008 F
     orb,it,eci,eold,eci-eold=                    2                    3 -0.81738694705902670      -0.81738692947158098       -1.7587445722000439E-008 F
     orb,it,eci,eold,eci-eold=                    2                    4 -0.81738695411319606      -0.81738694705902670       -7.0541693597547805E-009 F
     orb,it,eci,eold,eci-eold=                    2                    5 -0.81738695866669375      -0.81738695411319606       -4.5534976900185598E-009 F
     orb,it,eci,eold,eci-eold=                    2                    6 -0.81738696166727909      -0.81738695866669375       -3.0005853357550905E-009 F
     orb,it,eci,eold,eci-eold=                    2                    7 -0.81738696288163126      -0.81738696166727909       -1.2143521743723795E-009 F
     orb,it,eci,eold,eci-eold=                    2                    8 -0.81738696354667217      -0.81738696288163126       -6.6504091122965292E-010 F
     orbital   2 current e=  0.349728E+00 error=0.297E-04 (eci= -0.817386964E+00 error=0.665E-09) iterations   8(   0 preconditioned, Ep,Sp= 20.0  200.0)
     orb,it,eci,eold,eci-eold=                    3                    1 -0.81468602287902070      -0.81461045112478314       -7.5571754237557798E-005 F
     orb,it,eci,eold,eci-eold=                    3                    2 -0.81469361898378789      -0.81468602287902070       -7.5961047671935233E-006 F
     orb,it,eci,eold,eci-eold=                    3                    3 -0.81471473179371268      -0.81469361898378789       -2.1112809924783704E-005 F
     orb,it,eci,eold,eci-eold=                    3                    4 -0.81472436841873253      -0.81471473179371268       -9.6366250198487435E-006 F
     orb,it,eci,eold,eci-eold=                    3                    5 -0.81474328382379213      -0.81472436841873253       -1.8915405059605206E-005 F
     orb,it,eci,eold,eci-eold=                    3                    6 -0.81475316161274236      -0.81474328382379213       -9.8777889502299487E-006 F
     orb,it,eci,eold,eci-eold=                    3                    7 -0.81476288728769619      -0.81475316161274236       -9.7256749538310316E-006 F
     orb,it,eci,eold,eci-eold=                    3                    8 -0.81479134818663890      -0.81476288728769619       -2.8460898942705981E-005 F
     orb,it,eci,eold,eci-eold=                    3                    9 -0.81480531361750685      -0.81479134818663890       -1.3965430867957096E-005 F
     orb,it,eci,eold,eci-eold=                    3                   10 -0.81481848791606293      -0.81480531361750685       -1.3174298556073438E-005 F
     orb,it,eci,eold,eci-eold=                    3                   11 -0.81482230771769482      -0.81481848791606293       -3.8198016318879979E-006 F
     orb,it,eci,eold,eci-eold=                    3                   12 -0.81482895506980679      -0.81482230771769482       -6.6473521119769785E-006 F
     orb,it,eci,eold,eci-eold=                    3                   13 -0.81483778257657347      -0.81482895506980679       -8.8275067666732099E-006 F
     orb,it,eci,eold,eci-eold=                    3                   14 -0.81483834178627901      -0.81483778257657347       -5.5920970554179661E-007 F
     orb,it,eci,eold,eci-eold=                    3                   15 -0.81484325430080240      -0.81483834178627901       -4.9125145233919199E-006 F
     orb,it,eci,eold,eci-eold=                    3                   16 -0.81485358975600075      -0.81484325430080240       -1.0335455198351440E-005 F
     orb,it,eci,eold,eci-eold=                    3                   17 -0.81485938486878684      -0.81485358975600075       -5.7951127860889073E-006 F
     orb,it,eci,eold,eci-eold=                    3                   18 -0.81486788412507871      -0.81485938486878684       -8.4992562918717596E-006 F
     orb,it,eci,eold,eci-eold=                    3                   19 -0.81486908539937486      -0.81486788412507871       -1.2012742961475809E-006 F
     orb,it,eci,eold,eci-eold=                    3                   20 -0.81487096157068983      -0.81486908539937486       -1.8761713149739734E-006 F
     orb,it,eci,eold,eci-eold=                    3                   21 -0.81487772535057723      -0.81487096157068983       -6.7637798873976251E-006 F
     orb,it,eci,eold,eci-eold=                    3                   22 -0.81487959797146392      -0.81487772535057723       -1.8726208866892691E-006 F
     orb,it,eci,eold,eci-eold=                    3                   23 -0.81488064013583905      -0.81487959797146392       -1.0421643751312715E-006 F
     orb,it,eci,eold,eci-eold=                    3                   24 -0.81488515372724535      -0.81488064013583905       -4.5135914062965909E-006 F
     orb,it,eci,eold,eci-eold=                    3                   25 -0.81488557738302581      -0.81488515372724535       -4.2365578045711061E-007 F
     orb,it,eci,eold,eci-eold=                    3                   26 -0.81488589235192721      -0.81488557738302581       -3.1496890140481071E-007 F
     orb,it,eci,eold,eci-eold=                    3                   27 -0.81488986715441347      -0.81488589235192721       -3.9748024862618081E-006 F
     orb,it,eci,eold,eci-eold=                    3                   28 -0.81489101834617272      -0.81488986715441347       -1.1511917592521570E-006 F
     orb,it,eci,eold,eci-eold=                    3                   29 -0.81489141749498950      -0.81489101834617272       -3.9914881677649561E-007 F
     orb,it,eci,eold,eci-eold=                    3                   30 -0.81489528784951315      -0.81489141749498950       -3.8703545236495884E-006 F
     orb,it,eci,eold,eci-eold=                    3                   31 -0.81489744694633903      -0.81489528784951315       -2.1590968258822230E-006 F
     orb,it,eci,eold,eci-eold=                    3                   32 -0.81489970057458383      -0.81489744694633903       -2.2536282447971345E-006 F
     orb,it,eci,eold,eci-eold=                    3                   33 -0.81490093941781094      -0.81489970057458383       -1.2388432271137617E-006 F
     orb,it,eci,eold,eci-eold=                    3                   34 -0.81490310185815718      -0.81490093941781094       -2.1624403462316977E-006 F
     orb,it,eci,eold,eci-eold=                    3                   35 -0.81490433704387799      -0.81490310185815718       -1.2351857208159345E-006 F
     orb,it,eci,eold,eci-eold=                    3                   36 -0.81490596373793389      -0.81490433704387799       -1.6266940559006571E-006 F
     orb,it,eci,eold,eci-eold=                    3                   37 -0.81490687978961041      -0.81490596373793389       -9.1605167651387376E-007 F
     orb,it,eci,eold,eci-eold=                    3                   38 -0.81490819681952475      -0.81490687978961041       -1.3170299143494546E-006 F
     orb,it,eci,eold,eci-eold=                    3                   39 -0.81490889538112365      -0.81490819681952475       -6.9856159889969405E-007 F
     orb,it,eci,eold,eci-eold=                    3                   40 -0.81490992465921375      -0.81490889538112365       -1.0292780900922338E-006 F
     orb,it,eci,eold,eci-eold=                    3                   41 -0.81490994352170609      -0.81490992465921375       -1.8862492345839144E-008 F
     orb,it,eci,eold,eci-eold=                    3                   42 -0.81491010773889949      -0.81490994352170609       -1.6421719339909657E-007 F
     orb,it,eci,eold,eci-eold=                    3                   43 -0.81491101308820046      -0.81491010773889949       -9.0534930097252442E-007 F
     orb,it,eci,eold,eci-eold=                    3                   44 -0.81491122934011051      -0.81491101308820046       -2.1625191004570610E-007 F
     orb,it,eci,eold,eci-eold=                    3                   45 -0.81491126685426929      -0.81491122934011051       -3.7514158779394791E-008 F
     orb,it,eci,eold,eci-eold=                    3                   46 -0.81491197495804968      -0.81491126685426929       -7.0810378038910216E-007 F
     orb,it,eci,eold,eci-eold=                    3                   47 -0.81491233654235984      -0.81491197495804968       -3.6158431016009018E-007 F
     orb,it,eci,eold,eci-eold=                    3                   48 -0.81491242538754793      -0.81491233654235984       -8.8845188095376670E-008 F
     orb,it,eci,eold,eci-eold=                    3                   49 -0.81491300176750114      -0.81491242538754793       -5.7637995320991564E-007 F
     orb,it,eci,eold,eci-eold=                    3                   50 -0.81491323403445559      -0.81491300176750114       -2.3226695444744649E-007 F
     orb,it,eci,eold,eci-eold=                    3                   51 -0.81491331118175225      -0.81491323403445559       -7.7147296662083420E-008 F
     orb,it,eci,eold,eci-eold=                    3                   52 -0.81491381895398196      -0.81491331118175225       -5.0777222970754821E-007 F
     orb,it,eci,eold,eci-eold=                    3                   53 -0.81491400997721686      -0.81491381895398196       -1.9102323489672557E-007 F
     orb,it,eci,eold,eci-eold=                    3                   54 -0.81491405862883637      -0.81491400997721686       -4.8651619510842181E-008 F
     orb,it,eci,eold,eci-eold=                    3                   55 -0.81491448015726009      -0.81491405862883637       -4.2152842372189525E-007 F
     orb,it,eci,eold,eci-eold=                    3                   56 -0.81491469581622134      -0.81491448015726009       -2.1565896124453587E-007 F
     orb,it,eci,eold,eci-eold=                    3                   57 -0.81491477231896692      -0.81491469581622134       -7.6502745582907039E-008 F
     orb,it,eci,eold,eci-eold=                    3                   58 -0.81491514900860773      -0.81491477231896692       -3.7668964081305489E-007 F
     orb,it,eci,eold,eci-eold=                    3                   59 -0.81491529168629773      -0.81491514900860773       -1.4267768999598474E-007 F
     orb,it,eci,eold,eci-eold=                    3                   60 -0.81491534631690721      -0.81491529168629773       -5.4630609480632586E-008 F
     orb,it,eci,eold,eci-eold=                    3                   61 -0.81491570033633987      -0.81491534631690721       -3.5401943265789271E-007 F
     orb,it,eci,eold,eci-eold=                    3                   62 -0.81491588681440275      -0.81491570033633987       -1.8647806288019098E-007 F
     orb,it,eci,eold,eci-eold=                    3                   63 -0.81491596241490161      -0.81491588681440275       -7.5600498861128074E-008 F
     orb,it,eci,eold,eci-eold=                    3                   64 -0.81491632164093164      -0.81491596241490161       -3.5922603003335496E-007 F
     orb,it,eci,eold,eci-eold=                    3                   65 -0.81491649279776524      -0.81491632164093164       -1.7115683359492095E-007 F
     orb,it,eci,eold,eci-eold=                    3                   66 -0.81491656931636858      -0.81491649279776524       -7.6518603342456970E-008 F
     orb,it,eci,eold,eci-eold=                    3                   67 -0.81491697312619427      -0.81491656931636858       -4.0380982568866131E-007 F
     orb,it,eci,eold,eci-eold=                    3                   68 -0.81491716430842798      -0.81491697312619427       -1.9118223371084042E-007 F
     orb,it,eci,eold,eci-eold=                    3                   69 -0.81491722387926757      -0.81491716430842798       -5.9570839594513814E-008 F
     orb,it,eci,eold,eci-eold=                    3                   70 -0.81491761959168940      -0.81491722387926757       -3.9571242183011890E-007 F
     orb,it,eci,eold,eci-eold=                    3                   71 -0.81491787274127236      -0.81491761959168940       -2.5314958296274170E-007 F
     orb,it,eci,eold,eci-eold=                    3                   72 -0.81491798679515703      -0.81491787274127236       -1.1405388467000677E-007 F
     orb,it,eci,eold,eci-eold=                    3                   73 -0.81491848644005516      -0.81491798679515703       -4.9964489812204249E-007 F
     orb,it,eci,eold,eci-eold=                    3                   74 -0.81491874206454340      -0.81491848644005516       -2.5562448824345552E-007 F
     orb,it,eci,eold,eci-eold=                    3                   75 -0.81491885501004457      -0.81491874206454340       -1.1294550117391111E-007 F
     orb,it,eci,eold,eci-eold=                    3                   76 -0.81491933543160677      -0.81491885501004457       -4.8042156219896270E-007 F
     orb,it,eci,eold,eci-eold=                    3                   77 -0.81491964818542195      -0.81491933543160677       -3.1275381517925638E-007 F
     orb,it,eci,eold,eci-eold=                    3                   78 -0.81492060170630565      -0.81491964818542195       -9.5352088369526911E-007 F
     orb,it,eci,eold,eci-eold=                    3                   79 -0.81492135738715499      -0.81492060170630565       -7.5568084934030111E-007 F
     orb,it,eci,eold,eci-eold=                    3                   80 -0.81492159247963558      -0.81492135738715499       -2.3509248059383481E-007 F
     orb,it,eci,eold,eci-eold=                    3                   81 -0.81492228395417121      -0.81492159247963558       -6.9147453563012107E-007 F
     orb,it,eci,eold,eci-eold=                    3                   82 -0.81492435402390551      -0.81492228395417121       -2.0700697342945773E-006 F
     orb,it,eci,eold,eci-eold=                    3                   83 -0.81492769935381382      -0.81492435402390551       -3.3453299083108234E-006 F
     orb,it,eci,eold,eci-eold=                    3                   84 -0.81493228989255750      -0.81492769935381382       -4.5905387436873113E-006 F
     orb,it,eci,eold,eci-eold=                    3                   85 -0.81494286610291999      -0.81493228989255750       -1.0576210362489569E-005 F
     orb,it,eci,eold,eci-eold=                    3                   86 -0.81496891775301616      -0.81494286610291999       -2.6051650096170498E-005 F
     orb,it,eci,eold,eci-eold=                    3                   87 -0.81504797655673089      -0.81496891775301616       -7.9058803714726622E-005 F
     orb,it,eci,eold,eci-eold=                    3                   88 -0.81512540828823210      -0.81504797655673089       -7.7431731501209633E-005 F
     orb,it,eci,eold,eci-eold=                    3                   89 -0.81516257952997173      -0.81512540828823210       -3.7171241739630823E-005 F
     orb,it,eci,eold,eci-eold=                    3                   90 -0.81520953811018271      -0.81516257952997173       -4.6958580210976208E-005 F
     orb,it,eci,eold,eci-eold=                    3                   91 -0.81523357593545387      -0.81520953811018271       -2.4037825271161495E-005 F
     orb,it,eci,eold,eci-eold=                    3                   92 -0.81527958421437896      -0.81523357593545387       -4.6008278925091517E-005 F
     orb,it,eci,eold,eci-eold=                    3                   93 -0.81530226168438125      -0.81527958421437896       -2.2677470002285816E-005 F
     orb,it,eci,eold,eci-eold=                    3                   94 -0.81532672280710261      -0.81530226168438125       -2.4461122721364248E-005 F
     orb,it,eci,eold,eci-eold=                    3                   95 -0.81533360182588988      -0.81532672280710261       -6.8790187872647124E-006 F
     orb,it,eci,eold,eci-eold=                    3                   96 -0.81534446426970164      -0.81533360182588988       -1.0862443811765488E-005 F
     orb,it,eci,eold,eci-eold=                    3                   97 -0.81536382024604814      -0.81534446426970164       -1.9355976346502324E-005 F
     orb,it,eci,eold,eci-eold=                    3                   98 -0.81537104911912350      -0.81536382024604814       -7.2288730753600206E-006 F
     orb,it,eci,eold,eci-eold=                    3                   99 -0.81537208681350370      -0.81537104911912350       -1.0376943802015148E-006 F
     orb,it,eci,eold,eci-eold=                    3                  100 -0.81537497974277429      -0.81537208681350370       -2.8929292705814902E-006 F
     orb,it,eci,eold,eci-eold=                    3                  101 -0.81537634405936710      -0.81537497974277429       -1.3643165928112211E-006 F
     orb,it,eci,eold,eci-eold=                    3                  102 -0.81538193199662756      -0.81537634405936710       -5.5879372604650257E-006 F
     orb,it,eci,eold,eci-eold=                    3                  103 -0.81538196569537369      -0.81538193199662756       -3.3698746126908929E-008 F
     orb,it,eci,eold,eci-eold=                    3                  104 -0.81538199047745963      -0.81538196569537369       -2.4782085938923615E-008 F
     orb,it,eci,eold,eci-eold=                    3                  105 -0.81538334435914306      -0.81538199047745963       -1.3538816834302025E-006 F
     orb,it,eci,eold,eci-eold=                    3                  106 -0.81538380467389837      -0.81538334435914306       -4.6031475531282950E-007 F
     orb,it,eci,eold,eci-eold=                    3                  107 -0.81538407097461296      -0.81538380467389837       -2.6630071459088356E-007 F
     orb,it,eci,eold,eci-eold=                    3                  108 -0.81538416755711052      -0.81538407097461296       -9.6582497555175451E-008 F
     orb,it,eci,eold,eci-eold=                    3                  109 -0.81538479449827050      -0.81538416755711052       -6.2694115998684907E-007 F
     orb,it,eci,eold,eci-eold=                    3                  110 -0.81538539729528103      -0.81538479449827050       -6.0279701052934342E-007 F
     orb,it,eci,eold,eci-eold=                    3                  111 -0.81538549433723229      -0.81538539729528103       -9.7041951252485603E-008 F
     orb,it,eci,eold,eci-eold=                    3                  112 -0.81538549650403480      -0.81538549433723229       -2.1668025151910797E-009 F
     orb,it,eci,eold,eci-eold=                    3                  113 -0.81538584011146709      -0.81538549650403480       -3.4360743228489810E-007 F
     orb,it,eci,eold,eci-eold=                    3                  114 -0.81538607098096860      -0.81538584011146709       -2.3086950151629537E-007 F
     orb,it,eci,eold,eci-eold=                    3                  115 -0.81538644854239839      -0.81538607098096860       -3.7756142978739859E-007 F
     orb,it,eci,eold,eci-eold=                    3                  116 -0.81538659223617205      -0.81538644854239839       -1.4369377365763825E-007 F
     orb,it,eci,eold,eci-eold=                    3                  117 -0.81538676995538018      -0.81538659223617205       -1.7771920812759134E-007 F
     orb,it,eci,eold,eci-eold=                    3                  118 -0.81538713103935079      -0.81538676995538018       -3.6108397061251907E-007 F
     orb,it,eci,eold,eci-eold=                    3                  119 -0.81538728208462685      -0.81538713103935079       -1.5104527606446538E-007 F
     orb,it,eci,eold,eci-eold=                    3                  120 -0.81538743724115892      -0.81538728208462685       -1.5515653206676916E-007 F
     orb,it,eci,eold,eci-eold=                    3                  121 -0.81538772841506679      -0.81538743724115892       -2.9117390787369857E-007 F
     orbital   3 current e=  0.384093E+00 error=0.709E-01 (eci= -0.815387728E+00 error=0.291E-06) iterations 121(   0 preconditioned, Ep,Sp= 20.0  200.0)
     orb,it,eci,eold,eci-eold=                    3                    1 -0.81538791748789841      -0.81538772841506679       -1.8907283161340160E-007 F
     orb,it,eci,eold,eci-eold=                    3                    2 -0.81538802403135080      -0.81538791748789841       -1.0654345239391461E-007 F
     orb,it,eci,eold,eci-eold=                    3                    3 -0.81538828268481001      -0.81538802403135080       -2.5865345920639271E-007 F
     orb,it,eci,eold,eci-eold=                    3                    4 -0.81538836782832735      -0.81538828268481001       -8.5143517347674447E-008 F
     orb,it,eci,eold,eci-eold=                    3                    5 -0.81538849757408838      -0.81538836782832735       -1.2974576102386948E-007 F
     orb,it,eci,eold,eci-eold=                    3                    6 -0.81538855415309708      -0.81538849757408838       -5.6579008700374800E-008 F
     orb,it,eci,eold,eci-eold=                    3                    7 -0.81538856048715269      -0.81538855415309708       -6.3340556133439918E-009 F
     orb,it,eci,eold,eci-eold=                    3                    8 -0.81538860528490020      -0.81538856048715269       -4.4797747511537978E-008 F
     orb,it,eci,eold,eci-eold=                    3                    9 -0.81538866675369648      -0.81538860528490020       -6.1468796275221393E-008 F
     orb,it,eci,eold,eci-eold=                    3                   10 -0.81538871213335751      -0.81538866675369648       -4.5379661028910334E-008 F
     orb,it,eci,eold,eci-eold=                    3                   11 -0.81538877915874941      -0.81538871213335751       -6.7025391903285936E-008 F
     orb,it,eci,eold,eci-eold=                    3                   12 -0.81538892570759502      -0.81538877915874941       -1.4654884561426940E-007 F
     orb,it,eci,eold,eci-eold=                    3                   13 -0.81538904759088149      -0.81538892570759502       -1.2188328646356439E-007 F
     orb,it,eci,eold,eci-eold=                    3                   14 -0.81538908792034037      -0.81538904759088149       -4.0329458883547886E-008 F
     orb,it,eci,eold,eci-eold=                    3                   15 -0.81538910081586191      -0.81538908792034037       -1.2895521539491028E-008 F
     orb,it,eci,eold,eci-eold=                    3                   16 -0.81538920189621811      -0.81538910081586191       -1.0108035619627032E-007 F
     orb,it,eci,eold,eci-eold=                    3                   17 -0.81538922488167442      -0.81538920189621811       -2.2985456316071406E-008 F
     orb,it,eci,eold,eci-eold=                    3                   18 -0.81538924544383673      -0.81538922488167442       -2.0562162306170251E-008 F
     orb,it,eci,eold,eci-eold=                    3                   19 -0.81538935771974330      -0.81538924544383673       -1.1227590657192366E-007 F
     orb,it,eci,eold,eci-eold=                    3                   20 -0.81538941997127912      -0.81538935771974330       -6.2251535815072145E-008 F
     orb,it,eci,eold,eci-eold=                    3                   21 -0.81538943912861694      -0.81538941997127912       -1.9157337827202525E-008 F
     orb,it,eci,eold,eci-eold=                    3                   22 -0.81538944852289186      -0.81538943912861694       -9.3942749135322856E-009 F
     orb,it,eci,eold,eci-eold=                    3                   23 -0.81538950782264863      -0.81538944852289186       -5.9299756771657997E-008 F
     orb,it,eci,eold,eci-eold=                    3                   24 -0.81538953270457970      -0.81538950782264863       -2.4881931071085717E-008 F
     orb,it,eci,eold,eci-eold=                    3                   25 -0.81538956115744310      -0.81538953270457970       -2.8452863398698014E-008 F
     orb,it,eci,eold,eci-eold=                    3                   26 -0.81538957421831038      -0.81538956115744310       -1.3060867276593058E-008 F
     orb,it,eci,eold,eci-eold=                    3                   27 -0.81538957621132457      -0.81538957421831038       -1.9930141981205907E-009 F
     orb,it,eci,eold,eci-eold=                    3                   28 -0.81538959210170525      -0.81538957621132457       -1.5890380677952010E-008 F
     orb,it,eci,eold,eci-eold=                    3                   29 -0.81538963640032824      -0.81538959210170525       -4.4298622992045011E-008 F
     orb,it,eci,eold,eci-eold=                    3                   30 -0.81538966310885364      -0.81538963640032824       -2.6708525391327953E-008 F
     orb,it,eci,eold,eci-eold=                    3                   31 -0.81538967475882973      -0.81538966310885364       -1.1649976094929571E-008 F
     orb,it,eci,eold,eci-eold=                    3                   32 -0.81538967636721926      -0.81538967475882973       -1.6083895326701736E-009 F
     orb,it,eci,eold,eci-eold=                    3                   33 -0.81538969541344086      -0.81538967636721926       -1.9046221599872126E-008 F
     orb,it,eci,eold,eci-eold=                    3                   34 -0.81538969969818242      -0.81538969541344086       -4.2847415615554496E-009 F
     orb,it,eci,eold,eci-eold=                    3                   35 -0.81538969969818242      -0.81538969969818242        0.0000000000000000      F
     orbital   3 current e=  0.383654E+00 error=0.439E-03 (eci= -0.815389700E+00 error=0.000E+00) iterations  35(   0 preconditioned, Ep,Sp= 20.0  200.0)
     orb,it,eci,eold,eci-eold=                    3                    1 -0.81538972901413154      -0.81538969924023641       -2.9773895127149785E-008 F
[...]
     orb,it,eci,eold,eci-eold=                    4                   62 -0.81491399596653880      -0.81491392383013173       -7.2136407069933739E-008 F
     orb,it,eci,eold,eci-eold=                    4                   63 -0.81491400499336164      -0.81491399596653880       -9.0268228447598631E-009 F
     orb,it,eci,eold,eci-eold=                    4                   64 -0.81491424671963641      -0.81491400499336164       -2.4172627477447861E-007 F
     orb,it,eci,eold,eci-eold=                    4                   65 -0.81491435040884208      -0.81491424671963641       -1.0368920566605766E-007 F
     orb,it,eci,eold,eci-eold=                    4                   66 -0.81491435987825778      -0.81491435040884208       -9.4694156960173359E-009 F
     orb,it,eci,eold,eci-eold=                    4                   67 -0.81491454179669265      -0.81491435987825778       -1.8191843487169734E-007 F
     orb,it,eci,eold,eci-eold=                    4                   68 -0.81491464719173634      -0.81491454179669265       -1.0539504369244668E-007 F
     orb,it,eci,eold,eci-eold=                    4                   69 -0.81491468435984027      -0.81491464719173634       -3.7168103927953666E-008 F
     orb,it,eci,eold,eci-eold=                    4                   70 -0.81491484636362621      -0.81491468435984027       -1.6200378594177778E-007 F
     orb,it,eci,eold,eci-eold=                    4                   71 -0.81491488765508358      -0.81491484636362621       -4.1291457364422968E-008 F
     orb,it,eci,eold,eci-eold=                    4                   72 -0.81491489857460175      -0.81491488765508358       -1.0919518178553744E-008 F
     orb,it,eci,eold,eci-eold=                    4                   73 -0.81491502829355322      -0.81491489857460175       -1.2971895146929313E-007 F
     orb,it,eci,eold,eci-eold=                    4                   74 -0.81491508246646827      -0.81491502829355322       -5.4172915042727254E-008 F
     orb,it,eci,eold,eci-eold=                    4                   75 -0.81491509573706666      -0.81491508246646827       -1.3270598397951971E-008 F
     orb,it,eci,eold,eci-eold=                    4                   76 -0.81491520011957397      -0.81491509573706666       -1.0438250730437915E-007 F
     orb,it,eci,eold,eci-eold=                    4                   77 -0.81491522254253024      -0.81491520011957397       -2.2422956269529948E-008 F
     orb,it,eci,eold,eci-eold=                    4                   78 -0.81491523118944698      -0.81491522254253024       -8.6469167381864054E-009 F
     orb,it,eci,eold,eci-eold=                    4                   79 -0.81491534696062218      -0.81491523118944698       -1.1577117520200630E-007 F
     orb,it,eci,eold,eci-eold=                    4                   80 -0.81491535219723132      -0.81491534696062218       -5.2366091463085240E-009 F
     orb,it,eci,eold,eci-eold=                    4                   81 -0.81491535414246696      -0.81491535219723132       -1.9452356392335446E-009 F
     orb,it,eci,eold,eci-eold=                    4                   82 -0.81491544611756672      -0.81491535414246696       -9.1975099758556667E-008 F
     orb,it,eci,eold,eci-eold=                    4                   83 -0.81491546633777112      -0.81491544611756672       -2.0220204399734598E-008 F
     orb,it,eci,eold,eci-eold=                    4                   84 -0.81491546913545809      -0.81491546633777112       -2.7976869709789298E-009 F
     orb,it,eci,eold,eci-eold=                    4                   85 -0.81491554298312296      -0.81491546913545809       -7.3847664872062069E-008 F
     orb,it,eci,eold,eci-eold=                    4                   86 -0.81491555561902052      -0.81491554298312296       -1.2635897550516972E-008 F
     orb,it,eci,eold,eci-eold=                    4                   87 -0.81491555841757912      -0.81491555561902052       -2.7985586070755630E-009 F
     orb,it,eci,eold,eci-eold=                    4                   88 -0.81491561904554499      -0.81491555841757912       -6.0627965869919365E-008 F
     orb,it,eci,eold,eci-eold=                    4                   89 -0.81491565651961895      -0.81491561904554499       -3.7474073955046094E-008 F
     orb,it,eci,eold,eci-eold=                    4                   90 -0.81491567917916896      -0.81491565651961895       -2.2659550014125784E-008 F
     orb,it,eci,eold,eci-eold=                    4                   91 -0.81491568817511129      -0.81491567917916896       -8.9959423243968217E-009 F
     orb,it,eci,eold,eci-eold=                    4                   92 -0.81491571884558456      -0.81491568817511129       -3.0670473272209620E-008 F
     orb,it,eci,eold,eci-eold=                    4                   93 -0.81491571912190475      -0.81491571884558456       -2.7632018895218380E-010 F
     orbital   4 current e=  0.463300E+00 error=0.826E-02 (eci= -0.814915719E+00 error=0.276E-09) iterations  93(   0 preconditioned, Ep,Sp= 20.0  200.0)
     orb,it,eci,eold,eci-eold=                    4                    1 -0.81491576560256029      -0.81491571912190475       -4.6480655546687899E-008 F
     orb,it,eci,eold,eci-eold=                    4                    2 -0.81491577831973538      -0.81491576560256029       -1.2717175090770638E-008 F
     orb,it,eci,eold,eci-eold=                    4                    3 -0.81491581919430778      -0.81491577831973538       -4.0874572393434505E-008 F
     orb,it,eci,eold,eci-eold=                    4                    4 -0.81491583472802087      -0.81491581919430778       -1.5533713093596191E-008 F
     orb,it,eci,eold,eci-eold=                    4                    5 -0.81491584163626396      -0.81491583472802087       -6.9082430886879820E-009 F
     orb,it,eci,eold,eci-eold=                    4                    6 -0.81491585677760681      -0.81491584163626396       -1.5141342846192174E-008 F
     orb,it,eci,eold,eci-eold=                    4                    7 -0.81491585677760681      -0.81491585677760681        0.0000000000000000      F
     orbital   4 current e=  0.463735E+00 error=0.435E-03 (eci= -0.814915857E+00 error=0.000E+00) iterations   7(   0 preconditioned, Ep,Sp= 20.0  200.0)
     orb,it,eci,eold,eci-eold=                    4                    1 -0.81491587666537879      -0.81491585676549882       -1.9899879966089884E-008 F
     orb,it,eci,eold,eci-eold=                    4                    2 -0.81491588052220421      -0.81491587666537879       -3.8568254145943115E-009 F
     orb,it,eci,eold,eci-eold=                    4                    3 -0.81491588076899724      -0.81491588052220421       -2.4679303045616052E-010 F
     orbital   4 current e=  0.463787E+00 error=0.517E-04 (eci= -0.814915881E+00 error=0.247E-09) iterations   3(   0 preconditioned, Ep,Sp= 20.0  200.0)

 virtual orbital energies:
     0.4637871E+00 (  12.620eV)
     0.3836168E+00 (  10.439eV)
     0.3497283E+00 (   9.517eV)
    -0.1371560E+00 (  -3.732eV)


 == Generating One-Electron and Two-Electron Integrals ==

 begin_one_electron_integrals
    1    1        -0.6446376297
    2    1         0.0000356246
    3    1        -0.0659266486
    4    1        -0.0414508283
    5    1         0.0000001946
    2    2        -0.6424861830
    3    2        -0.0001372744
    4    2        -0.0002001594
    5    2         0.0000000018
    3    3        -0.2089948573
    4    3         0.0366688015
    5    3        -0.0000003847
    4    4        -0.1443865299
    5    4        -0.0000002028
    5    5        -0.0875036809
 end_one_electron_integrals

 begin_two_electron_integrals
    1    1    1    1        0.3250325881
    1    1    2    1       -0.0000355856
    1    1    3    1        0.0659272328
    1    1    4    1        0.0414460952
    1    1    5    1       -0.0000001944
    1    1    2    2        0.3491070926
    1    1    3    2        0.0000555070
    1    1    4    2        0.0001955921
    1    1    5    2       -0.0000000030
    1    1    3    3        0.3099213460
    1    1    4    3       -0.0092400487
    1    1    5    3       -0.0000001566
    1    1    4    4        0.2876824708
    1    1    5    4       -0.0000000648
    1    1    5    5        0.2982041598
    2    1    2    1        0.1928840198
    2    1    3    1       -0.0000570976
    2    1    4    1        0.0000454704
    2    1    5    1       -0.0000000015
    2    1    2    2       -0.0000533822
    2    1    3    2        0.1123815883
    2    1    4    2        0.0170785599
    2    1    5    2       -0.0000001964
    2    1    3    3        0.0000934600
    2    1    4    3        0.0006438672
    2    1    5    3       -0.0000000047
    2    1    4    4        0.0006884217
    2    1    5    4       -0.0000000107
    2    1    5    5       -0.0002374975
    3    1    3    1        0.0611195269
    3    1    4    1        0.0016326700
    3    1    5    1       -0.0000000350
    3    1    2    2        0.0875145100
    3    1    3    2       -0.0000081458
    3    1    4    2        0.0002034864
    3    1    5    2       -0.0000000017
    3    1    3    3        0.0583911283
    3    1    4    3        0.0132800970
    3    1    5    3       -0.0000001313
    3    1    4    4        0.0365726915
    3    1    5    4       -0.0000000567
    3    1    5    5        0.0408893956
    4    1    4    1        0.0473616089
    4    1    5    1       -0.0000000143
    4    1    2    2        0.0421457593
    4    1    3    2        0.0001634920
    4    1    4    2        0.0001903086
    4    1    5    2       -0.0000000033
    4    1    3    3        0.0449983925
    4    1    4    3       -0.0051767054
    4    1    5    3       -0.0000000583
    4    1    4    4        0.0346375533
    4    1    5    4        0.0000000127
    4    1    5    5        0.0351067409
    5    1    5    1        0.0451175302
    5    1    2    2       -0.0000002194
    5    1    3    2       -0.0000000016
    5    1    4    2       -0.0000000030
    5    1    5    2       -0.0000671003
    5    1    3    3       -0.0000002571
    5    1    4    3       -0.0000000561
    5    1    5    3       -0.0006344346
    5    1    4    4       -0.0000001283
    5    1    5    4        0.0025359036
    5    1    5    5       -0.0000001132
    2    2    2    2        0.3809236601
    2    2    3    2        0.0000591784
    2    2    4    2        0.0002515528
    2    2    5    2       -0.0000000035
    2    2    3    3        0.3301936797
    2    2    4    3       -0.0041729408
    2    2    5    3       -0.0000002027
    2    2    4    4        0.3010986127
    2    2    5    4       -0.0000000842
    2    2    5    5        0.3140326659
    3    2    3    2        0.0851668989
    3    2    4    2        0.0100944170
    3    2    5    2       -0.0000001218
    3    2    3    3        0.0001320641
    3    2    4    3        0.0003353789
    3    2    5    3       -0.0000000030
    3    2    4    4        0.0003722538
    3    2    5    4       -0.0000000054
    3    2    5    5       -0.0000420914
    4    2    4    2        0.0371987830
    4    2    5    2       -0.0000000326
    4    2    3    3        0.0001957845
    4    2    4    3       -0.0000069120
    4    2    5    3       -0.0000000009
    4    2    4    4        0.0000526036
    4    2    5    4       -0.0000000002
    4    2    5    5        0.0001414982
    5    2    5    2        0.0416502008
    5    2    3    3       -0.0000000032
    5    2    4    3       -0.0000000007
    5    2    5    3        0.0000017730
    5    2    4    4       -0.0000000021
    5    2    5    4        0.0000068056
    5    2    5    5       -0.0000000020
    3    3    3    3        0.3108181109
    3    3    4    3       -0.0141225000
    3    3    5    3       -0.0000001036
    3    3    4    4        0.2724789201
    3    3    5    4       -0.0000000412
    3    3    5    5        0.2811777119
    4    3    4    3        0.0177437682
    4    3    5    3        0.0000000186
    4    3    4    4       -0.0148667460
    4    3    5    4       -0.0000000132
    4    3    5    5       -0.0125850918
    5    3    5    3        0.0148778238
    5    3    4    4       -0.0000001038
    5    3    5    4       -0.0021212870
    5    3    5    5       -0.0000001215
    4    4    4    4        0.2807323733
    4    4    5    4       -0.0000000499
    4    4    5    5        0.2669155990
    5    4    5    4        0.0116433153
    5    4    5    5       -0.0000000568
    5    5    5    5        0.2993685868
 end_two_electron_integrals


 output epsi filename:./pspw_hf_H2.emovecs

 Total PSPW energy     :  -0.8130491716E+00


=== Spin Contamination ===

 <Sexact^2> =    0.0000000000000000     
 <S^2>      =    0.0000000000000000     



== Center of Charge ==

spin up     (    0.0000,    0.0000,    0.0013 )
spin down   (    0.0000,    0.0000,    0.0013 )
     total  (    0.0000,    0.0000,    0.0013 )
ionic       (    0.0000,    0.0000,    0.0000 )


== Molecular Dipole wrt Center of Mass ==

mu   =  (   -0.0000,   -0.0000,   -0.0025 ) au
|mu| =     0.0025 au,       0.0065 Debye

 output psi filename:./pspw_hf_H2.movecs

 Writing Crystallographic Information File:./H2.cif
   - cell not shifted (nwpw:cif_shift_cell .false.)


== Timing ==

cputime in seconds
  prologue    :   0.595453E+01
  main loop   :   0.277890E+03
  epilogue    :   0.144272E-01
  total       :   0.283859E+03
  cputime/step:   0.199921E+01       (     139 evalulations,      58 linesearches)


Time spent doing                        total          step       percent
  total time                 :   0.283868E+03  0.204221E+01       100.0 %
  i/o time                   :   0.121887E+00  0.876883E-03         0.0 %
  FFTs                       :   0.217101E+03  0.156188E+01        76.5 %
  dot products               :   0.464270E+01  0.334007E-01         1.6 %
  geodesic                   :   0.530126E-01  0.381386E-03         0.0 %
  ffm_dgemm                  :   0.791401E-02  0.569353E-04         0.0 %
  fmf_dgemm                  :   0.882954E-02  0.635219E-04         0.0 %
  mmm_dgemm                  :   0.224376E-02  0.161422E-04         0.0 %
  m_diagonalize              :   0.118740E-02  0.854243E-05         0.0 %
  local pseudopotentials     :   0.482225E+01  0.346924E-01         1.7 %
  non-local pseudopotentials :   0.433801E+01  0.312087E-01         1.5 %
  structure factors          :   0.475288E+00  0.341934E-02         0.2 %
  phase factors              :   0.995100E-05  0.715899E-07         0.0 %
  masking and packing        :   0.282479E+01  0.203222E-01         1.0 %
  queue fft                  :   0.556109E+01  0.400079E-01         2.0 %
  queue fft (serial)         :   0.239402E+01  0.172231E-01         0.8 %
  queue fft (message passing):   0.313427E+01  0.225487E-01         1.1 %
  HFX potential              :   0.440515E+01  0.316917E-01         1.6 %
  non-local psp FFM          :   0.404496E+01  0.291004E-01         1.4 %
  non-local psp FMF          :   0.722125E-01  0.519514E-03         0.0 %
  non-local psp FFM A        :   0.368779E-01  0.265308E-03         0.0 %
  non-local psp FFM B        :   0.100918E+00  0.726025E-03         0.0 %

== HFX Counters ==
  HFX Evalulations         =   139
  Lin ACE HFX Evalulations =     0


     >>>  JOB COMPLETED     AT Sat Apr  5 14:26:37 2025  <<<

 Task  times  cpu:      264.9s     wall:      283.9s


                                NWChem Input Module
                                -------------------


 Summary of allocated global arrays
-----------------------------------
  No active global arrays


MA_summarize_allocated_blocks: starting scan ...
MA_summarize_allocated_blocks: scan completed: 0 heap blocks, 0 stack blocks
MA usage statistics:

	allocation statistics:
					      heap	     stack
					      ----	     -----
	current number of blocks	         0	         0
	maximum number of blocks	       313	        36
	current total bytes		         0	         0
	maximum total bytes		  23647120	   7986936
	maximum total K-bytes		     23648	      7987
	maximum total M-bytes		        24	         8


                                     CITATION
                                     --------
                Please cite the following reference when publishing
                           results obtained with NWChem:

          E. Apra, E. J. Bylaska, W. A. de Jong, N. Govind, K. Kowalski,
       T. P. Straatsma, M. Valiev, H. J. J. van Dam, Y. Alexeev, J. Anchell,
       V. Anisimov, F. W. Aquino, R. Atta-Fynn, J. Autschbach, N. P. Bauman,
     J. C. Becca, D. E. Bernholdt, K. Bhaskaran-Nair, S. Bogatko, P. Borowski,
         J. Boschen, J. Brabec, A. Bruner, E. Cauet, Y. Chen, G. N. Chuev,
      C. J. Cramer, J. Daily, M. J. O. Deegan, T. H. Dunning Jr., M. Dupuis,
   K. G. Dyall, G. I. Fann, S. A. Fischer, A. Fonari, H. Fruchtl, L. Gagliardi,
      J. Garza, N. Gawande, S. Ghosh, K. Glaesemann, A. W. Gotz, J. Hammond,
       V. Helms, E. D. Hermes, K. Hirao, S. Hirata, M. Jacquelin, L. Jensen,
   B. G. Johnson, H. Jonsson, R. A. Kendall, M. Klemm, R. Kobayashi, V. Konkov,
      S. Krishnamoorthy, M. Krishnan, Z. Lin, R. D. Lins, R. J. Littlefield,
      A. J. Logsdail, K. Lopata, W. Ma, A. V. Marenich, J. Martin del Campo,
   D. Mejia-Rodriguez, J. E. Moore, J. M. Mullin, T. Nakajima, D. R. Nascimento,
    J. A. Nichols, P. J. Nichols, J. Nieplocha, A. Otero-de-la-Roza, B. Palmer,
    A. Panyala, T. Pirojsirikul, B. Peng, R. Peverati, J. Pittner, L. Pollack,
   R. M. Richard, P. Sadayappan, G. C. Schatz, W. A. Shelton, D. W. Silverstein,
   D. M. A. Smith, T. A. Soares, D. Song, M. Swart, H. L. Taylor, G. S. Thomas,
            V. Tipparaju, D. G. Truhlar, K. Tsemekhman, T. Van Voorhis,
      A. Vazquez-Mayagoitia, P. Verma, O. Villa, A. Vishnu, K. D. Vogiatzis,
        D. Wang, J. H. Weare, M. J. Williamson, T. L. Windus, K. Wolinski,
        A. T. Wong, Q. Wu, C. Yang, Q. Yu, M. Zacharias, Z. Zhang, Y. Zhao,
                                and R. J. Harrison
                        "NWChem: Past, present, and future
                         J. Chem. Phys. 152, 184102 (2020)
                               doi:10.1063/5.0004997

                                      AUTHORS
                                      -------
  E. Apra, E. J. Bylaska, N. Govind, K. Kowalski, M. Valiev, D. Mejia-Rodriguez,
       A. Kunitsa, N. P. Bauman, A. Panyala, W. A. de Jong, T. P. Straatsma,
   H. J. J. van Dam, D. Wang, T. L. Windus, J. Hammond, J. Autschbach, A. Woods,
    K. Bhaskaran-Nair, J. Brabec, K. Lopata, S. A. Fischer, S. Krishnamoorthy,
     M. Jacquelin, W. Ma, M. Klemm, O. Villa, Y. Chen, V. Anisimov, F. Aquino,
     S. Hirata, M. T. Hackler, E. Hermes, L. Jensen, J. E. Moore, J. C. Becca,
      V. Konjkov, T. Risthaus, M. Malagoli, A. Marenich, A. Otero-de-la-Roza,
        J. Mullin, P. Nichols, R. Peverati, J. Pittner, Y. Zhao, P.-D. Fan,
        A. Fonari, M. J. Williamson, R. J. Harrison, J. R. Rehr, M. Dupuis,
     D. Silverstein, D. M. A. Smith, J. Nieplocha, V. Tipparaju, M. Krishnan,
     B. E. Van Kuiken, A. Vazquez-Mayagoitia, M. Swart, Q. Wu, T. Van Voorhis,
     A. A. Auer, M. Nooijen, L. D. Crosby, E. Brown, G. Cisneros, G. I. Fann,
   H. Fruchtl, J. Garza, K. Hirao, R. A. Kendall, J. A. Nichols, K. Tsemekhman,
    K. Wolinski, J. Anchell, D. E. Bernholdt, P. Borowski, T. Clark, D. Clerc,
   H. Dachsel, M. J. O. Deegan, K. Dyall, D. Elwood, E. Glendening, M. Gutowski,
   A. C. Hess, J. Jaffe, B. G. Johnson, J. Ju, R. Kobayashi, R. Kutteh, Z. Lin,
   R. Littlefield, X. Long, B. Meng, T. Nakajima, S. Niu, L. Pollack, M. Rosing,
   K. Glaesemann, G. Sandrone, M. Stave, H. Taylor, G. Thomas, J. H. van Lenthe,
                               A. T. Wong, Z. Zhang.

 Total times  cpu:      264.9s     wall:      283.9s
