 argument  1 = H2-3.5.nw



============================== echo of input deck ==============================
title "swnc: e theory=pspw4 xc=hf formula=H2 charge=0 mult=1"
#machinejob:expert

echo

start pspw_hf_H2

memory heap 1200 mb stack 1200 mb global 10 mb

charge 0

geometry
H    0.00000    0.00000   -1.75000
H    0.00000    0.00000    1.75000
end

nwpw
  ### pseudopotential block begin ###
  ### pseudopotential block end   ###
  simulation_cell
     SC 20.0000
     boundary_conditions aperiodic
  end

  cutoff 50.0
  mult 1
  xc hf
  lmbfgs
  tolerances 1.0e-9 1.0e-9

  virtual 4
end
set nwpw:cif_filename H2

#set nwpw:CI_maxit_orb 15
#set nwpw:CI_maxit_linesearch 15
set pspw:HFX_screening_radius 14.0


set nwpw:2qintegrals .true.
set nwpw:3x3_virtual .true.

task pspw energy
================================================================================


                                         
                                         


             Northwest Computational Chemistry Package (NWChem) 7.2.3
             --------------------------------------------------------


                    Environmental Molecular Sciences Laboratory
                       Pacific Northwest National Laboratory
                                Richland, WA 99352

                              Copyright (c) 1994-2022
                       Pacific Northwest National Laboratory
                            Battelle Memorial Institute

             NWChem is an open-source computational chemistry package
                        distributed under the terms of the
                      Educational Community License (ECL) 2.0
             A copy of the license is included with this distribution
                              in the LICENSE.TXT file

                                  ACKNOWLEDGMENT
                                  --------------

            This software and its documentation were developed at the
            EMSL at Pacific Northwest National Laboratory, a multiprogram
            national laboratory, operated for the U.S. Department of Energy
            by Battelle under Contract Number DE-AC05-76RL01830. Support
            for this work was provided by the Department of Energy Office
            of Biological and Environmental Research, Office of Basic
            Energy Sciences, and the Office of Advanced Scientific Computing.


           Job information
           ---------------

    hostname        = mqs-al
    program         = nwchem
    date            = Tue Apr 22 21:05:30 2025

    compiled        = Thu_Oct_31_08:55:15_2024
    source          = /home/conda/feedstock_root/build_artifacts/nwchem_1730356057992/work
    nwchem branch   = 7.2.3
    nwchem revision = c400b04
    ga revision     = 5.8.0
    use scalapack   = T
    input           = H2-3.5.nw
    prefix          = pspw_hf_H2.
    data base       = ./pspw_hf_H2.db
    status          = startup
    nproc           =       24
    time left       =     -1s



           Memory information
           ------------------

    heap     =  157286396 doubles =   1200.0 Mbytes
    stack    =  157286401 doubles =   1200.0 Mbytes
    global   =    1310720 doubles =     10.0 Mbytes (distinct from heap & stack)
    total    =  315883517 doubles =   2410.0 Mbytes
    verify   = yes
    hardfail = no 


           Directory information
           ---------------------

  0 permanent = .
  0 scratch   = .




                                NWChem Input Module
                                -------------------


               swnc: e theory=pspw4 xc=hf formula=H2 charge=0 mult=1
               -----------------------------------------------------

 Scaling coordinates for geometry "geometry" by  1.889725989
 (inverse scale =  0.529177249)

  zeroes
  zeroes
  zeroes
  zeroes
  zeroes
  zeroes
  zeroes
  zeroes
  zeroes
  zeroes
  zeroes
  zeroes
  zeroes
  zeroes
  zeroes
  zeroes
  zeroes
  zeroes
  zeroes
  zeroes
  zeroes
  zeroes
  zeroes
  zeroes
  zeroes
  zeroes
  zeroes
  zeroes
  zeroes
  zeroes
  zeroes
  zeroes
  zeroes
  zeroes
  zeroes
  zeroes
  zeroes
  zeroes
  zeroes
  zeroes
  zeroes
  zeroes
  zeroes
  zeroes
  zeroes
  zeroes
  zeroes
  zeroes
 ORDER OF PRIMARY AXIS IS BEING SET TO 4
 D4H symmetry detected

          ------
          auto-z
          ------
     1 autoz failed with cvr_scaling = 1.2 changing to 1.3
     2 autoz failed with cvr_scaling = 1.3 changing to 1.4
     3 autoz failed with cvr_scaling = 1.4 changing to 1.5
     4 autoz failed with cvr_scaling = 1.5 changing to 1.6
     5 autoz failed with cvr_scaling = 1.6 changing to 1.7

 AUTOZ failed to generate good internal coordinates.
 Cartesian coordinates will be used in optimizations.



                             Geometry "geometry" -> ""
                             -------------------------

 Output coordinates in angstroms (scale by  1.889725989 to convert to a.u.)

  No.       Tag          Charge          X              Y              Z
 ---- ---------------- ---------- -------------- -------------- --------------
    1 H                    1.0000     0.00000000     0.00000000    -1.75000000
    2 H                    1.0000     0.00000000     0.00000000     1.75000000

      Atomic Mass 
      ----------- 

      H                  1.007825


 Effective nuclear repulsion energy (a.u.)       0.1511934997

            Nuclear Dipole moment (a.u.) 
            ----------------------------
        X                 Y               Z
 ---------------- ---------------- ----------------
     0.0000000000     0.0000000000     0.0000000000

      Symmetry information
      --------------------

 Group name             D4h       
 Group number             28
 Group order              16
 No. of unique centers     1

      Symmetry unique atoms

     1


            XYZ format geometry
            -------------------
     2
 geometry
 H                     0.00000000     0.00000000    -1.75000000
 H                     0.00000000     0.00000000     1.75000000

          ****************************************************
          *                                                  *
          *               NWPW PSPW Calculation              *
          *                                                  *
          * [ (Grassmann/Stiefel manifold implementation)  ] *
          *                                                  *
          *      [ NorthWest Chemistry implementation ]      *
          *                                                  *
          *            version #5.10   06/12/02              *
          *                                                  *
          *    This code was developed by Eric J. Bylaska,   *
          *    and was based upon algorithms and code        *
          *    developed by the group of Prof. John H. Weare *
          *                                                  *
          ****************************************************
     >>>  JOB STARTED       AT Tue Apr 22 21:05:30 2025  <<<
          ================ input data ========================

 input psi filename:./pspw_hf_H2.movecs

 number of processors used:        24
 processor grid           :  24 x   1
 parallel mapping         :2d-hilbert
 parallel mapping         :  balanced
 number of threads        :         1
 parallel io              :       off

 options:
      boundary conditions  = aperiodic   (version4)
      electron spin        = restricted
      exchange-correlation = Hartree-Fock
      - HFX relaxed
      - HFX restricted orbitals :    1
      - HFX free-space coulomb solver


 elements involved in the cluster:
      1: H   valence charge:  1.0000  lmax=  1
             comment    : Parameterized (Chem.Phys.Lett., vol 322, page 447) Hamman psp
             pseudpotential type            :   0
             highest angular component      :   1
             local potential used           :   1
             number of non-local projections:   1
             aperiodic cutoff radius        :  1.000
             cutoff =   0.800   0.800


 total charge:   0.000

 atomic composition:
     H   :    2

 number of electrons: spin up=     1 (   1 per task)  down=     1 (   1 per task) (Fourier space)
 number of orbitals : spin up=     1 (   1 per task)  down=     1 (   1 per task) (Fourier space)

 supercell:
      cell_name:  cell_default                                      
      lattice:    a1=<  20.000   0.000   0.000 >
                  a2=<   0.000  20.000   0.000 >
                  a3=<   0.000   0.000  20.000 >
      reciprocal: b1=<   0.314   0.000   0.000 >
                  b2=<   0.000   0.314   0.000 >
                  b3=<   0.000   0.000   0.314 >
      lattice:    a=      20.000 b=     20.000 c=      20.000
                  alpha=  90.000 beta=  90.000 gamma=  90.000
                  omega=      8000.0

      density cutoff=100.000  fft= 96x 96x 96(   191162 waves     7965 per task)
      wavefnc cutoff= 50.000  fft= 96x 96x 96(    67522 waves     2813 per task)

 technical parameters:
      time step=      5.80     fictitious mass=  400000.0
      tolerance=0.100E-08 (energy)   0.100E-08 (density)
      maximum iterations =      1000 (   10 inner    100 outer )





== Energy Calculation ==


          ============ Grassmann lmbfgs iteration ============
     >>>  ITERATION STARTED AT Tue Apr 22 21:05:37 2025  <<<
    iter.           Energy         DeltaE       DeltaRho 
    ------------------------------------------------------
      10   -0.8042301925E+00   -0.14976E-02    0.73686E-02
     -  10 steepest descent iterations performed
      20   -0.8088727522E+00   -0.11112E-03    0.55214E-04
      30   -0.8090848151E+00   -0.52205E-05    0.42147E-05
      40   -0.8091016953E+00   -0.27610E-06    0.10529E-06
      50   -0.8091026267E+00   -0.16019E-07    0.40899E-08
      60   -0.8091026775E+00   -0.12000E-08    0.24873E-09
      70   -0.8091026795E+00   -0.84413E-09    0.12696E-11
  *** tolerance ok. iteration terminated
     >>>  ITERATION ENDED   AT Tue Apr 22 21:05:59 2025  <<<


==  Summary Of Results  ==

 number of electrons: spin up=    1.00000  down=    1.00000 (real space)

 total     energy    :  -0.8091026795E+00 (   -0.40455E+00/ion)
 total orbital energy:  -0.6309662190E+00 (   -0.63097E+00/electron)
 hartree   energy    :   0.6586599205E+00 (    0.65866E+00/electron)
 exc-corr  energy    :   0.0000000000E+00 (    0.00000E+00/electron)
 HF exchange energy  :  -0.3293299602E+00 (   -0.32933E+00/electron)
 ion-ion   energy    :   0.1511934997E+00 (    0.75597E-01/ion)

 kinetic (planewave) :   0.6335000042E+00 (    0.63350E+00/electron)
 V_local (planewave) :  -0.1774333898E+01 (   -0.17743E+01/electron)
 V_nl    (planewave) :  -0.1487922459E+00 (   -0.14879E+00/electron)
 V_Coul  (planewave) :   0.1317319841E+01 (    0.13173E+01/electron)
 V_xc.   (planewave) :   0.0000000000E+00 (    0.00000E+00/electron)
 K.S. HFX energy     :  -0.6586599205E+00 (   -0.65866E+00/electron)
 Virial Coefficient  :  -0.9562846072E+00

 orbital energies:
    -0.3154831E+00 (  -8.585eV)


== Virtual Orbital Calculation ==


 input epsi filename:./pspw_hf_H2.emovecs

 COVOs Mimimization
 ------------------
CI gradient algorithm =         3
maxit_sweeps          =         3
maxit_orb             =       120
maxit_linesearch      =        15
maxerror              = 0.100E-08

     orb,it,eci,eold,eci-eold=                    1                    1 -0.93832051376150749      -0.91960167624775979       -1.8718837513747699E-002 F
     orb,it,eci,eold,eci-eold=                    1                    2 -0.95019408919417570      -0.93832051376150749       -1.1873575432668204E-002 F
     orb,it,eci,eold,eci-eold=                    1                    3 -0.95210826283708949      -0.95019408919417570       -1.9141736429137968E-003 F
     orb,it,eci,eold,eci-eold=                    1                    4 -0.95629159367913807      -0.95210826283708949       -4.1833308420485826E-003 F
     orb,it,eci,eold,eci-eold=                    1                    5 -0.96074228880727308      -0.95629159367913807       -4.4506951281350071E-003 F
     orb,it,eci,eold,eci-eold=                    1                    6 -0.96155379262494212      -0.96074228880727308       -8.1150381766903479E-004 F
     orb,it,eci,eold,eci-eold=                    1                    7 -0.96182238599790604      -0.96155379262494212       -2.6859337296392116E-004 F
     orb,it,eci,eold,eci-eold=                    1                    8 -0.96597414605904475      -0.96182238599790604       -4.1517600611387095E-003 F
     orb,it,eci,eold,eci-eold=                    1                    9 -0.96759910711237884      -0.96597414605904475       -1.6249610533340952E-003 F
     orb,it,eci,eold,eci-eold=                    1                   10 -0.96874319192778413      -0.96759910711237884       -1.1440848154052885E-003 F
     orb,it,eci,eold,eci-eold=                    1                   11 -0.96887069759042888      -0.96874319192778413       -1.2750566264474461E-004 F
     orb,it,eci,eold,eci-eold=                    1                   12 -0.96969672618602132      -0.96887069759042888       -8.2602859559244290E-004 F
     orb,it,eci,eold,eci-eold=                    1                   13 -0.97097830586809586      -0.96969672618602132       -1.2815796820745406E-003 F
     orb,it,eci,eold,eci-eold=                    1                   14 -0.97156147741157017      -0.97097830586809586       -5.8317154347431455E-004 F
     orb,it,eci,eold,eci-eold=                    1                   15 -0.97246618542117647      -0.97156147741157017       -9.0470800960629205E-004 F
     orb,it,eci,eold,eci-eold=                    1                   16 -0.97293775911758396      -0.97246618542117647       -4.7157369640749014E-004 F
     orb,it,eci,eold,eci-eold=                    1                   17 -0.97347280699145211      -0.97293775911758396       -5.3504787386815522E-004 F
     orb,it,eci,eold,eci-eold=                    1                   18 -0.97395945667498285      -0.97347280699145211       -4.8664968353073768E-004 F
     orb,it,eci,eold,eci-eold=                    1                   19 -0.97412235630725352      -0.97395945667498285       -1.6289963227067439E-004 F
     orb,it,eci,eold,eci-eold=                    1                   20 -0.97469447790878272      -0.97412235630725352       -5.7212160152919633E-004 F
     orb,it,eci,eold,eci-eold=                    1                   21 -0.97515315019406945      -0.97469447790878272       -4.5867228528673198E-004 F
     orb,it,eci,eold,eci-eold=                    1                   22 -0.97547848527242031      -0.97515315019406945       -3.2533507835086350E-004 F
     orb,it,eci,eold,eci-eold=                    1                   23 -0.97583839284674445      -0.97547848527242031       -3.5990757432413645E-004 F
     orb,it,eci,eold,eci-eold=                    1                   24 -0.97602304683570440      -0.97583839284674445       -1.8465398895994856E-004 F
     orb,it,eci,eold,eci-eold=                    1                   25 -0.97645683348543555      -0.97602304683570440       -4.3378664973114933E-004 F
     orb,it,eci,eold,eci-eold=                    1                   26 -0.97655282153481437      -0.97645683348543555       -9.5988049378825657E-005 F
     orb,it,eci,eold,eci-eold=                    1                   27 -0.97663924049848216      -0.97655282153481437       -8.6418963667789228E-005 F
     orb,it,eci,eold,eci-eold=                    1                   28 -0.97696241591307853      -0.97663924049848216       -3.2317541459636612E-004 F
     orb,it,eci,eold,eci-eold=                    1                   29 -0.97715633199984353      -0.97696241591307853       -1.9391608676500027E-004 F
     orb,it,eci,eold,eci-eold=                    1                   30 -0.97734145962205621      -0.97715633199984353       -1.8512762221267742E-004 F
     orb,it,eci,eold,eci-eold=                    1                   31 -0.97744904586974779      -0.97734145962205621       -1.0758624769158232E-004 F
     orb,it,eci,eold,eci-eold=                    1                   32 -0.97766012128010549      -0.97744904586974779       -2.1107541035769728E-004 F
     orb,it,eci,eold,eci-eold=                    1                   33 -0.97768725548374147      -0.97766012128010549       -2.7134203635981180E-005 F
     orb,it,eci,eold,eci-eold=                    1                   34 -0.97770647275737277      -0.97768725548374147       -1.9217273631300102E-005 F
     orb,it,eci,eold,eci-eold=                    1                   35 -0.97781138122799971      -0.97770647275737277       -1.0490847062694098E-004 F
     orb,it,eci,eold,eci-eold=                    1                   36 -0.97783159052350010      -0.97781138122799971       -2.0209295500395186E-005 F
     orb,it,eci,eold,eci-eold=                    1                   37 -0.97785496946280581      -0.97783159052350010       -2.3378939305707114E-005 F
     orb,it,eci,eold,eci-eold=                    1                   38 -0.97797664573933374      -0.97785496946280581       -1.2167627652792667E-004 F
     orb,it,eci,eold,eci-eold=                    1                   39 -0.97799919289305270      -0.97797664573933374       -2.2547153718965873E-005 F
     orb,it,eci,eold,eci-eold=                    1                   40 -0.97800834453442020      -0.97799919289305270       -9.1516413674996855E-006 F
     orb,it,eci,eold,eci-eold=                    1                   41 -0.97813563563000117      -0.97800834453442020       -1.2729109558096141E-004 F
     orb,it,eci,eold,eci-eold=                    1                   42 -0.97820773005597883      -0.97813563563000117       -7.2094425977664578E-005 F
     orb,it,eci,eold,eci-eold=                    1                   43 -0.97825962576659076      -0.97820773005597883       -5.1895710611926660E-005 F
     orb,it,eci,eold,eci-eold=                    1                   44 -0.97828566548936458      -0.97825962576659076       -2.6039722773818497E-005 F
     orb,it,eci,eold,eci-eold=                    1                   45 -0.97835053823652385      -0.97828566548936458       -6.4872747159272492E-005 F
     orb,it,eci,eold,eci-eold=                    1                   46 -0.97838908988464468      -0.97835053823652385       -3.8551648120832560E-005 F
     orb,it,eci,eold,eci-eold=                    1                   47 -0.97843049334392529      -0.97838908988464468       -4.1403459280608956E-005 F
     orb,it,eci,eold,eci-eold=                    1                   48 -0.97845470738820262      -0.97843049334392529       -2.4214044277326430E-005 F
     orb,it,eci,eold,eci-eold=                    1                   49 -0.97849883357032097      -0.97845470738820262       -4.4126182118353618E-005 F
     orb,it,eci,eold,eci-eold=                    1                   50 -0.97852227225015387      -0.97849883357032097       -2.3438679832898934E-005 F
     orb,it,eci,eold,eci-eold=                    1                   51 -0.97855009463474063      -0.97852227225015387       -2.7822384586762006E-005 F
     orb,it,eci,eold,eci-eold=                    1                   52 -0.97856544692738567      -0.97855009463474063       -1.5352292645043342E-005 F
     orb,it,eci,eold,eci-eold=                    1                   53 -0.97859003597085437      -0.97856544692738567       -2.4589043468692395E-005 F
     orb,it,eci,eold,eci-eold=                    1                   54 -0.97860479569869596      -0.97859003597085437       -1.4759727841595627E-005 F
     orb,it,eci,eold,eci-eold=                    1                   55 -0.97862827330380453      -0.97860479569869596       -2.3477605108568333E-005 F
     orb,it,eci,eold,eci-eold=                    1                   56 -0.97864142453249880      -0.97862827330380453       -1.3151228694274764E-005 F
     orb,it,eci,eold,eci-eold=                    1                   57 -0.97865562239475157      -0.97864142453249880       -1.4197862252762761E-005 F
     orb,it,eci,eold,eci-eold=                    1                   58 -0.97866173112870969      -0.97865562239475157       -6.1087339581211708E-006 F
     orb,it,eci,eold,eci-eold=                    1                   59 -0.97867347066199595      -0.97866173112870969       -1.1739533286259096E-005 F
     orb,it,eci,eold,eci-eold=                    1                   60 -0.97867419993711846      -0.97867347066199595       -7.2927512251297344E-007 F
     orb,it,eci,eold,eci-eold=                    1                   61 -0.97867542030028787      -0.97867419993711846       -1.2203631694074346E-006 F
     orb,it,eci,eold,eci-eold=                    1                   62 -0.97868665596296933      -0.97867542030028787       -1.1235662681463587E-005 F
     orb,it,eci,eold,eci-eold=                    1                   63 -0.97869288528058951      -0.97868665596296933       -6.2293176201766443E-006 F
     orb,it,eci,eold,eci-eold=                    1                   64 -0.97869422226729030      -0.97869288528058951       -1.3369867007950731E-006 F
     orb,it,eci,eold,eci-eold=                    1                   65 -0.97870064319197103      -0.97869422226729030       -6.4209246807278575E-006 F
     orb,it,eci,eold,eci-eold=                    1                   66 -0.97870311365171458      -0.97870064319197103       -2.4704597435531994E-006 F
     orb,it,eci,eold,eci-eold=                    1                   67 -0.97870496415572328      -0.97870311365171458       -1.8505040086935765E-006 F
     orb,it,eci,eold,eci-eold=                    1                   68 -0.97871319392361866      -0.97870496415572328       -8.2297678953846543E-006 F
     orb,it,eci,eold,eci-eold=                    1                   69 -0.97871636209039004      -0.97871319392361866       -3.1681667713723272E-006 F
     orb,it,eci,eold,eci-eold=                    1                   70 -0.97871695400798331      -0.97871636209039004       -5.9191759327337223E-007 F
     orb,it,eci,eold,eci-eold=                    1                   71 -0.97872191208929071      -0.97871695400798331       -4.9580813074046048E-006 F
     orb,it,eci,eold,eci-eold=                    1                   72 -0.97872364256225985      -0.97872191208929071       -1.7304729691414167E-006 F
     orb,it,eci,eold,eci-eold=                    1                   73 -0.97872426171148974      -0.97872364256225985       -6.1914922988570709E-007 F
     orb,it,eci,eold,eci-eold=                    1                   74 -0.97872923450041660      -0.97872426171148974       -4.9727889268602610E-006 F
     orb,it,eci,eold,eci-eold=                    1                   75 -0.97873239764228703      -0.97872923450041660       -3.1631418704325398E-006 F
     orb,it,eci,eold,eci-eold=                    1                   76 -0.97873349471045723      -0.97873239764228703       -1.0970681701971685E-006 F
     orb,it,eci,eold,eci-eold=                    1                   77 -0.97873755070188984      -0.97873349471045723       -4.0559914326054880E-006 F
     orb,it,eci,eold,eci-eold=                    1                   78 -0.97873878687581439      -0.97873755070188984       -1.2361739245569936E-006 F
     orb,it,eci,eold,eci-eold=                    1                   79 -0.97873915132737443      -0.97873878687581439       -3.6445156004205614E-007 F
     orb,it,eci,eold,eci-eold=                    1                   80 -0.97874211056530713      -0.97873915132737443       -2.9592379326981444E-006 F
     orb,it,eci,eold,eci-eold=                    1                   81 -0.97874375300116623      -0.97874211056530713       -1.6424358590949595E-006 F
     orb,it,eci,eold,eci-eold=                    1                   82 -0.97874454545700218      -0.97874375300116623       -7.9245583595177749E-007 F
     orb,it,eci,eold,eci-eold=                    1                   83 -0.97874753276136328      -0.97874454545700218       -2.9873043611017280E-006 F
     orb,it,eci,eold,eci-eold=                    1                   84 -0.97874836983188940      -0.97874753276136328       -8.3707052611625699E-007 F
     orb,it,eci,eold,eci-eold=                    1                   85 -0.97874854044430126      -0.97874836983188940       -1.7061241186500098E-007 F
     orb,it,eci,eold,eci-eold=                    1                   86 -0.97875065271862305      -0.97874854044430126       -2.1122743217860673E-006 F
     orb,it,eci,eold,eci-eold=                    1                   87 -0.97875184786262970      -0.97875065271862305       -1.1951440066493291E-006 F
     orb,it,eci,eold,eci-eold=                    1                   88 -0.97875230263127688      -0.97875184786262970       -4.5476864718452248E-007 F
     orb,it,eci,eold,eci-eold=                    1                   89 -0.97875431417203340      -0.97875230263127688       -2.0115407565191035E-006 F
     orb,it,eci,eold,eci-eold=                    1                   90 -0.97875522471687970      -0.97875431417203340       -9.1054484629982113E-007 F
     orb,it,eci,eold,eci-eold=                    1                   91 -0.97875555463936370      -0.97875522471687970       -3.2992248399921209E-007 F
     orb,it,eci,eold,eci-eold=                    1                   92 -0.97875717489297631      -0.97875555463936370       -1.6202536126108669E-006 F
     orb,it,eci,eold,eci-eold=                    1                   93 -0.97875779361216497      -0.97875717489297631       -6.1871918866085451E-007 F
     orb,it,eci,eold,eci-eold=                    1                   94 -0.97875797249801988      -0.97875779361216497       -1.7888585490677400E-007 F
     orb,it,eci,eold,eci-eold=                    1                   95 -0.97875913522549285      -0.97875797249801988       -1.1627274729697490E-006 F
     orb,it,eci,eold,eci-eold=                    1                   96 -0.97875961865284011      -0.97875913522549285       -4.8342734726425363E-007 F
     orb,it,eci,eold,eci-eold=                    1                   97 -0.97875981155076719      -0.97875961865284011       -1.9289792707599673E-007 F
     orb,it,eci,eold,eci-eold=                    1                   98 -0.97876084014417153      -0.97875981155076719       -1.0285934043396949E-006 F
     orb,it,eci,eold,eci-eold=                    1                   99 -0.97876132534682636      -0.97876084014417153       -4.8520265483187330E-007 F
     orb,it,eci,eold,eci-eold=                    1                  100 -0.97876151695114877      -0.97876132534682636       -1.9160432240816760E-007 F
     orb,it,eci,eold,eci-eold=                    1                  101 -0.97876236635430303      -0.97876151695114877       -8.4940315425718893E-007 F
     orb,it,eci,eold,eci-eold=                    1                  102 -0.97876265971868326      -0.97876236635430303       -2.9336438023275235E-007 F
     orb,it,eci,eold,eci-eold=                    1                  103 -0.97876277659832855      -0.97876265971868326       -1.1687964529549788E-007 F
     orb,it,eci,eold,eci-eold=                    1                  104 -0.97876356087302929      -0.97876277659832855       -7.8427470073805239E-007 F
     orb,it,eci,eold,eci-eold=                    1                  105 -0.97876393794258409      -0.97876356087302929       -3.7706955480221183E-007 F
     orb,it,eci,eold,eci-eold=                    1                  106 -0.97876404098687053      -0.97876393794258409       -1.0304428643692631E-007 F
     orb,it,eci,eold,eci-eold=                    1                  107 -0.97876469092420570      -0.97876404098687053       -6.4993733517315633E-007 F
     orb,it,eci,eold,eci-eold=                    1                  108 -0.97876504754623039      -0.97876469092420570       -3.5662202468866866E-007 F
     orb,it,eci,eold,eci-eold=                    1                  109 -0.97876516355355059      -0.97876504754623039       -1.1600732019445559E-007 F
     orb,it,eci,eold,eci-eold=                    1                  110 -0.97876565536176718      -0.97876516355355059       -4.9180821659611240E-007 F
     orb,it,eci,eold,eci-eold=                    1                  111 -0.97876587136869952      -0.97876565536176718       -2.1600693234091750E-007 F
     orb,it,eci,eold,eci-eold=                    1                  112 -0.97876598476431531      -0.97876587136869952       -1.1339561578616042E-007 F
     orb,it,eci,eold,eci-eold=                    1                  113 -0.97876644691052395      -0.97876598476431531       -4.6214620863516132E-007 F
     orb,it,eci,eold,eci-eold=                    1                  114 -0.97876659513051401      -0.97876644691052395       -1.4821999005931730E-007 F
     orb,it,eci,eold,eci-eold=                    1                  115 -0.97876664161394056      -0.97876659513051401       -4.6483426552335061E-008 F
     orb,it,eci,eold,eci-eold=                    1                  116 -0.97876698095868275      -0.97876664161394056       -3.3934474219510236E-007 F
     orb,it,eci,eold,eci-eold=                    1                  117 -0.97876709545847973      -0.97876698095868275       -1.1449979697708557E-007 F
     orb,it,eci,eold,eci-eold=                    1                  118 -0.97876712609850502      -0.97876709545847973       -3.0640025294736972E-008 F
     orb,it,eci,eold,eci-eold=                    1                  119 -0.97876743612586925      -0.97876712609850502       -3.1002736422536259E-007 F
     orb,it,eci,eold,eci-eold=                    1                  120 -0.97876763127361255      -0.97876743612586925       -1.9514774329820739E-007 F
     orb,it,eci,eold,eci-eold=                    1                  121 -0.97876768892702515      -0.97876763127361255       -5.7653412599556475E-008 F
     orbital   1 current e= -0.136408E+00 error=0.559E-01 (eci= -0.978767689E+00 error=0.577E-07) iterations 121(   0 preconditioned, Ep,Sp= 20.0  200.0)
     orb,it,eci,eold,eci-eold=                    1                    1 -0.97876796459627535      -0.97876768892702515       -2.7566925020483524E-007 F
     orb,it,eci,eold,eci-eold=                    1                    2 -0.97876805499231390      -0.97876796459627535       -9.0396038543438806E-008 F
     orb,it,eci,eold,eci-eold=                    1                    3 -0.97876890932490335      -0.97876805499231390       -8.5433258945055712E-007 F
     orb,it,eci,eold,eci-eold=                    1                    4 -0.97876929793398593      -0.97876890932490335       -3.8860908257998261E-007 F
     orb,it,eci,eold,eci-eold=                    1                    5 -0.97876933047666070      -0.97876929793398593       -3.2542674777147340E-008 F
     orb,it,eci,eold,eci-eold=                    1                    6 -0.97876933447724246      -0.97876933047666070       -4.0005817547594802E-009 F
     orb,it,eci,eold,eci-eold=                    1                    7 -0.97876953646012965      -0.97876933447724246       -2.0198288719353030E-007 F
     orb,it,eci,eold,eci-eold=                    1                    8 -0.97876955156803824      -0.97876953646012965       -1.5107908590827890E-008 F
     orb,it,eci,eold,eci-eold=                    1                    9 -0.97876955853437442      -0.97876955156803824       -6.9663361745853081E-009 F
     orb,it,eci,eold,eci-eold=                    1                   10 -0.97876967148962080      -0.97876955853437442       -1.1295524637855436E-007 F
     orb,it,eci,eold,eci-eold=                    1                   11 -0.97876972666397644      -0.97876967148962080       -5.5174355639842076E-008 F
     orb,it,eci,eold,eci-eold=                    1                   12 -0.97876976801160298      -0.97876972666397644       -4.1347626544840921E-008 F
     orb,it,eci,eold,eci-eold=                    1                   13 -0.97876978690380134      -0.97876976801160298       -1.8892198361264434E-008 F
     orb,it,eci,eold,eci-eold=                    1                   14 -0.97876981142010533      -0.97876978690380134       -2.4516303986921173E-008 F
     orb,it,eci,eold,eci-eold=                    1                   15 -0.97876982667068879      -0.97876981142010533       -1.5250583462744771E-008 F
     orb,it,eci,eold,eci-eold=                    1                   16 -0.97876984990061588      -0.97876982667068879       -2.3229927093026959E-008 F
     orb,it,eci,eold,eci-eold=                    1                   17 -0.97876986209630057      -0.97876984990061588       -1.2195684684357389E-008 F
     orb,it,eci,eold,eci-eold=                    1                   18 -0.97876987330153298      -0.97876986209630057       -1.1205232408606491E-008 F
     orb,it,eci,eold,eci-eold=                    1                   19 -0.97876987840604446      -0.97876987330153298       -5.1045114801695490E-009 F
     orb,it,eci,eold,eci-eold=                    1                   20 -0.97876988641524210      -0.97876987840604446       -8.0091976384366603E-009 F
     orb,it,eci,eold,eci-eold=                    1                   21 -0.97876988740528237      -0.97876988641524210       -9.9004027198645872E-010 F
     orbital   1 current e= -0.136401E+00 error=0.704E-05 (eci= -0.978769887E+00 error=0.990E-09) iterations  21(   0 preconditioned, Ep,Sp= 20.0  200.0)
     orb,it,eci,eold,eci-eold=                    1                    1 -0.97876989963156691      -0.97876988740528237       -1.2226284540339805E-008 F
     orb,it,eci,eold,eci-eold=                    1                    2 -0.97876990590718216      -0.97876989963156691       -6.2756152496845630E-009 F
     orb,it,eci,eold,eci-eold=                    1                    3 -0.97876990646792073      -0.97876990590718216       -5.6073856669058841E-010 F
     orbital   1 current e= -0.136401E+00 error=0.372E-06 (eci= -0.978769906E+00 error=0.561E-09) iterations   3(   0 preconditioned, Ep,Sp= 20.0  200.0)
     orb,it,eci,eold,eci-eold=                    2                    1 -0.81275602149105963      -0.81228115619481100       -4.7486529624862772E-004 F
     orb,it,eci,eold,eci-eold=                    2                    2 -0.81275661310619862      -0.81275602149105963       -5.9161513898953189E-007 F
     orb,it,eci,eold,eci-eold=                    2                    3 -0.81276706375994656      -0.81275661310619862       -1.0450653747939853E-005 F
     orb,it,eci,eold,eci-eold=                    2                    4 -0.81288328863399517      -0.81276706375994656       -1.1622487404860937E-004 F
     orb,it,eci,eold,eci-eold=                    2                    5 -0.81298127824417776      -0.81288328863399517       -9.7989610182591669E-005 F
     orb,it,eci,eold,eci-eold=                    2                    6 -0.81298936784290521      -0.81298127824417776       -8.0895987274454129E-006 F
     orb,it,eci,eold,eci-eold=                    2                    7 -0.81299103080402702      -0.81298936784290521       -1.6629611218066387E-006 F
     orb,it,eci,eold,eci-eold=                    2                    8 -0.81302941361091130      -0.81299103080402702       -3.8382806884285081E-005 F
     orb,it,eci,eold,eci-eold=                    2                    9 -0.81308230534820325      -0.81302941361091130       -5.2891737291949070E-005 F
     orb,it,eci,eold,eci-eold=                    2                   10 -0.81313484783792322      -0.81308230534820325       -5.2542489719975549E-005 F
     orb,it,eci,eold,eci-eold=                    2                   11 -0.81315097108984391      -0.81313484783792322       -1.6123251920685533E-005 F
     orb,it,eci,eold,eci-eold=                    2                   12 -0.81315510532928359      -0.81315097108984391       -4.1342394396792770E-006 F
     orb,it,eci,eold,eci-eold=                    2                   13 -0.81320243655579394      -0.81315510532928359       -4.7331226510349822E-005 F
     orb,it,eci,eold,eci-eold=                    2                   14 -0.81322655393731469      -0.81320243655579394       -2.4117381520749603E-005 F
     orb,it,eci,eold,eci-eold=                    2                   15 -0.81324766030472984      -0.81322655393731469       -2.1106367415146821E-005 F
     orb,it,eci,eold,eci-eold=                    2                   16 -0.81325099254592459      -0.81324766030472984       -3.3322411947533936E-006 F
     orb,it,eci,eold,eci-eold=                    2                   17 -0.81326284525865189      -0.81325099254592459       -1.1852712727300485E-005 F
     orb,it,eci,eold,eci-eold=                    2                   18 -0.81328295212162960      -0.81326284525865189       -2.0106862977709028E-005 F
     orb,it,eci,eold,eci-eold=                    2                   19 -0.81330672086280786      -0.81328295212162960       -2.3768741178264996E-005 F
     orb,it,eci,eold,eci-eold=                    2                   20 -0.81331421463727582      -0.81330672086280786       -7.4937744679592910E-006 F
     orb,it,eci,eold,eci-eold=                    2                   21 -0.81332046070119790      -0.81331421463727582       -6.2460639220773828E-006 F
     orb,it,eci,eold,eci-eold=                    2                   22 -0.81333375907777472      -0.81332046070119790       -1.3298376576820203E-005 F
     orb,it,eci,eold,eci-eold=                    2                   23 -0.81334969301352467      -0.81333375907777472       -1.5933935749945505E-005 F
     orb,it,eci,eold,eci-eold=                    2                   24 -0.81335991498848781      -0.81334969301352467       -1.0221974963142699E-005 F
     orb,it,eci,eold,eci-eold=                    2                   25 -0.81338366382162064      -0.81335991498848781       -2.3748833132830605E-005 F
     orb,it,eci,eold,eci-eold=                    2                   26 -0.81338595318341955      -0.81338366382162064       -2.2893617989128145E-006 F
     orb,it,eci,eold,eci-eold=                    2                   27 -0.81338596455843448      -0.81338595318341955       -1.1375014929981830E-008 F
     orb,it,eci,eold,eci-eold=                    2                   28 -0.81339634145867845      -0.81338596455843448       -1.0376900243969089E-005 F
     orb,it,eci,eold,eci-eold=                    2                   29 -0.81340171134925221      -0.81339634145867845       -5.3698905737586955E-006 F
     orb,it,eci,eold,eci-eold=                    2                   30 -0.81340603249706667      -0.81340171134925221       -4.3211478144566939E-006 F
     orb,it,eci,eold,eci-eold=                    2                   31 -0.81341832612924669      -0.81340603249706667       -1.2293632180027103E-005 F
     orb,it,eci,eold,eci-eold=                    2                   32 -0.81342034178362210      -0.81341832612924669       -2.0156543754090706E-006 F
     orb,it,eci,eold,eci-eold=                    2                   33 -0.81342134107977215      -0.81342034178362210       -9.9929615005045491E-007 F
     orb,it,eci,eold,eci-eold=                    2                   34 -0.81342872753432249      -0.81342134107977215       -7.3864545503399270E-006 F
     orb,it,eci,eold,eci-eold=                    2                   35 -0.81343022600033477      -0.81342872753432249       -1.4984660122729920E-006 F
     orb,it,eci,eold,eci-eold=                    2                   36 -0.81343114229499081      -0.81343022600033477       -9.1629465603926263E-007 F
     orb,it,eci,eold,eci-eold=                    2                   37 -0.81343947610922751      -0.81343114229499081       -8.3338142367050949E-006 F
     orb,it,eci,eold,eci-eold=                    2                   38 -0.81344224056037251      -0.81343947610922751       -2.7644511449986808E-006 F
     orb,it,eci,eold,eci-eold=                    2                   39 -0.81344285592551135      -0.81344224056037251       -6.1536513884519195E-007 F
     orb,it,eci,eold,eci-eold=                    2                   40 -0.81344899231278889      -0.81344285592551135       -6.1363872775332950E-006 F
     orb,it,eci,eold,eci-eold=                    2                   41 -0.81345236976642221      -0.81344899231278889       -3.3774536333242011E-006 F
     orb,it,eci,eold,eci-eold=                    2                   42 -0.81345644053183264      -0.81345236976642221       -4.0707654104243929E-006 F
     orb,it,eci,eold,eci-eold=                    2                   43 -0.81345668948938998      -0.81345644053183264       -2.4895755734721803E-007 F
     orb,it,eci,eold,eci-eold=                    2                   44 -0.81345733271431087      -0.81345668948938998       -6.4322492088209060E-007 F
     orb,it,eci,eold,eci-eold=                    2                   45 -0.81345982007876350      -0.81345733271431087       -2.4873644526302030E-006 F
     orb,it,eci,eold,eci-eold=                    2                   46 -0.81346010347535291      -0.81345982007876350       -2.8339658941778367E-007 F
     orb,it,eci,eold,eci-eold=                    2                   47 -0.81346045047278337      -0.81346010347535291       -3.4699743045596421E-007 F
     orb,it,eci,eold,eci-eold=                    2                   48 -0.81346320553580631      -0.81346045047278337       -2.7550630229411510E-006 F
     orb,it,eci,eold,eci-eold=                    2                   49 -0.81346431478220116      -0.81346320553580631       -1.1092463948481068E-006 F
     orb,it,eci,eold,eci-eold=                    2                   50 -0.81346442508799366      -0.81346431478220116       -1.1030579250004280E-007 F
     orb,it,eci,eold,eci-eold=                    2                   51 -0.81346621820120979      -0.81346442508799366       -1.7931132161308483E-006 F
     orb,it,eci,eold,eci-eold=                    2                   52 -0.81346729126383188      -0.81346621820120979       -1.0730626220922801E-006 F
     orb,it,eci,eold,eci-eold=                    2                   53 -0.81346767914563944      -0.81346729126383188       -3.8788180756199608E-007 F
     orb,it,eci,eold,eci-eold=                    2                   54 -0.81346913758160899      -0.81346767914563944       -1.4584359695479776E-006 F
     orb,it,eci,eold,eci-eold=                    2                   55 -0.81346968390587515      -0.81346913758160899       -5.4632426615963681E-007 F
     orb,it,eci,eold,eci-eold=                    2                   56 -0.81346998147078731      -0.81346968390587515       -2.9756491215504610E-007 F
     orb,it,eci,eold,eci-eold=                    2                   57 -0.81347127131110020      -0.81346998147078731       -1.2898403128902558E-006 F
     orb,it,eci,eold,eci-eold=                    2                   58 -0.81347161208412022      -0.81347127131110020       -3.4077302002444299E-007 F
     orb,it,eci,eold,eci-eold=                    2                   59 -0.81347169508363493      -0.81347161208412022       -8.2999514705583977E-008 F
     orb,it,eci,eold,eci-eold=                    2                   60 -0.81347258423830859      -0.81347169508363493       -8.8915467366668111E-007 F
     orb,it,eci,eold,eci-eold=                    2                   61 -0.81347294039938145      -0.81347258423830859       -3.5616107285640908E-007 F
     orb,it,eci,eold,eci-eold=                    2                   62 -0.81347307966303584      -0.81347294039938145       -1.3926365438621247E-007 F
     orb,it,eci,eold,eci-eold=                    2                   63 -0.81347399474033488      -0.81347307966303584       -9.1507729904627411E-007 F
     orb,it,eci,eold,eci-eold=                    2                   64 -0.81347428897214713      -0.81347399474033488       -2.9423181224785822E-007 F
     orb,it,eci,eold,eci-eold=                    2                   65 -0.81347437041442072      -0.81347428897214713       -8.1442273591747494E-008 F
     orb,it,eci,eold,eci-eold=                    2                   66 -0.81347514325082915      -0.81347437041442072       -7.7283640842473744E-007 F
     orb,it,eci,eold,eci-eold=                    2                   67 -0.81347518570966759      -0.81347514325082915       -4.2458838445114111E-008 F
     orb,it,eci,eold,eci-eold=                    2                   68 -0.81347519050294093      -0.81347518570966759       -4.7932733338029720E-009 F
     orb,it,eci,eold,eci-eold=                    2                   69 -0.81347567456929293      -0.81347519050294093       -4.8406635200226589E-007 F
     orb,it,eci,eold,eci-eold=                    2                   70 -0.81347593893750902      -0.81347567456929293       -2.6436821609632233E-007 F
     orb,it,eci,eold,eci-eold=                    2                   71 -0.81347601068325659      -0.81347593893750902       -7.1745747565188367E-008 F
     orb,it,eci,eold,eci-eold=                    2                   72 -0.81347638634217911      -0.81347601068325659       -3.7565892252455768E-007 F
     orb,it,eci,eold,eci-eold=                    2                   73 -0.81347654333743658      -0.81347638634217911       -1.5699525746093457E-007 F
     orb,it,eci,eold,eci-eold=                    2                   74 -0.81347660728469107      -0.81347654333743658       -6.3947254491658612E-008 F
     orb,it,eci,eold,eci-eold=                    2                   75 -0.81347691747890849      -0.81347660728469107       -3.1019421742328745E-007 F
     orb,it,eci,eold,eci-eold=                    2                   76 -0.81347702142935074      -0.81347691747890849       -1.0395044225397498E-007 F
     orb,it,eci,eold,eci-eold=                    2                   77 -0.81347706084149418      -0.81347702142935074       -3.9412143437722591E-008 F
     orb,it,eci,eold,eci-eold=                    2                   78 -0.81347732602189060      -0.81347706084149418       -2.6518039641931779E-007 F
     orb,it,eci,eold,eci-eold=                    2                   79 -0.81347740749001030      -0.81347732602189060       -8.1468119694783070E-008 F
     orb,it,eci,eold,eci-eold=                    2                   80 -0.81347741213627323      -0.81347740749001030       -4.6462629299526270E-009 F
     orb,it,eci,eold,eci-eold=                    2                   81 -0.81347759409627041      -0.81347741213627323       -1.8195999718084721E-007 F
     orb,it,eci,eold,eci-eold=                    2                   82 -0.81347772319563361      -0.81347759409627041       -1.2909936319971393E-007 F
     orb,it,eci,eold,eci-eold=                    2                   83 -0.81347777864538784      -0.81347772319563361       -5.5449754232661519E-008 F
     orb,it,eci,eold,eci-eold=                    2                   84 -0.81347794717050537      -0.81347777864538784       -1.6852511752762922E-007 F
     orb,it,eci,eold,eci-eold=                    2                   85 -0.81347796943692829      -0.81347794717050537       -2.2266422927685880E-008 F
     orb,it,eci,eold,eci-eold=                    2                   86 -0.81347797203479288      -0.81347796943692829       -2.5978645901147956E-009 F
     orb,it,eci,eold,eci-eold=                    2                   87 -0.81347809622766998      -0.81347797203479288       -1.2419287709342086E-007 F
     orb,it,eci,eold,eci-eold=                    2                   88 -0.81347817626592012      -0.81347809622766998       -8.0038250138692035E-008 F
     orb,it,eci,eold,eci-eold=                    2                   89 -0.81347820346095123      -0.81347817626592012       -2.7195031115923030E-008 F
     orb,it,eci,eold,eci-eold=                    2                   90 -0.81347830300274970      -0.81347820346095123       -9.9541798470603737E-008 F
     orb,it,eci,eold,eci-eold=                    2                   91 -0.81347831890901978      -0.81347830300274970       -1.5906270078858142E-008 F
     orb,it,eci,eold,eci-eold=                    2                   92 -0.81347832064787196      -0.81347831890901978       -1.7388521733607831E-009 F
     orb,it,eci,eold,eci-eold=                    2                   93 -0.81347839524256316      -0.81347832064787196       -7.4594691201745889E-008 F
     orb,it,eci,eold,eci-eold=                    2                   94 -0.81347844441270922      -0.81347839524256316       -4.9170146065868892E-008 F
     orb,it,eci,eold,eci-eold=                    2                   95 -0.81347846348941544      -0.81347844441270922       -1.9076706214704586E-008 F
     orb,it,eci,eold,eci-eold=                    2                   96 -0.81347853213482768      -0.81347846348941544       -6.8645412243384385E-008 F
     orb,it,eci,eold,eci-eold=                    2                   97 -0.81347855439431982      -0.81347853213482768       -2.2259492138410053E-008 F
     orb,it,eci,eold,eci-eold=                    2                   98 -0.81347856252738948      -0.81347855439431982       -8.1330696621861875E-009 F
     orb,it,eci,eold,eci-eold=                    2                   99 -0.81347861604743121      -0.81347856252738948       -5.3520041731758283E-008 F
     orb,it,eci,eold,eci-eold=                    2                  100 -0.81347863133437825      -0.81347861604743121       -1.5286947041559529E-008 F
     orb,it,eci,eold,eci-eold=                    2                  101 -0.81347863377115104      -0.81347863133437825       -2.4367727835539199E-009 F
     orb,it,eci,eold,eci-eold=                    2                  102 -0.81347868003012536      -0.81347863377115104       -4.6258974317758828E-008 F
     orb,it,eci,eold,eci-eold=                    2                  103 -0.81347871117804060      -0.81347868003012536       -3.1147915247053959E-008 F
     orb,it,eci,eold,eci-eold=                    2                  104 -0.81347871909889269      -0.81347871117804060       -7.9208520853413233E-009 F
     orb,it,eci,eold,eci-eold=                    2                  105 -0.81347874784336260      -0.81347871909889269       -2.8744469915409354E-008 F
     orb,it,eci,eold,eci-eold=                    2                  106 -0.81347875480409926      -0.81347874784336260       -6.9607366537383086E-009 F
     orb,it,eci,eold,eci-eold=                    2                  107 -0.81347875943672598      -0.81347875480409926       -4.6326267266749710E-009 F
     orb,it,eci,eold,eci-eold=                    2                  108 -0.81347878787097305      -0.81347875943672598       -2.8434247067998797E-008 F
     orb,it,eci,eold,eci-eold=                    2                  109 -0.81347879990808014      -0.81347878787097305       -1.2037107088858079E-008 F
     orb,it,eci,eold,eci-eold=                    2                  110 -0.81347880329761624      -0.81347879990808014       -3.3895360962432619E-009 F
     orb,it,eci,eold,eci-eold=                    2                  111 -0.81347882277380101      -0.81347880329761624       -1.9476184776046068E-008 F
     orb,it,eci,eold,eci-eold=                    2                  112 -0.81347882914200309      -0.81347882277380101       -6.3682020767785730E-009 F
     orb,it,eci,eold,eci-eold=                    2                  113 -0.81347883172972735      -0.81347882914200309       -2.5877242570970793E-009 F
     orb,it,eci,eold,eci-eold=                    2                  114 -0.81347884941325477      -0.81347883172972735       -1.7683527420153666E-008 F
     orb,it,eci,eold,eci-eold=                    2                  115 -0.81347885616669235      -0.81347884941325477       -6.7534375869371388E-009 F
     orb,it,eci,eold,eci-eold=                    2                  116 -0.81347885760561267      -0.81347885616669235       -1.4389203162323838E-009 F
     orb,it,eci,eold,eci-eold=                    2                  117 -0.81347887123769547      -0.81347885760561267       -1.3632082795922429E-008 F
     orb,it,eci,eold,eci-eold=                    2                  118 -0.81347887833291077      -0.81347887123769547       -7.0952153041758947E-009 F
     orb,it,eci,eold,eci-eold=                    2                  119 -0.81347888059589801      -0.81347887833291077       -2.2629872420409924E-009 F
     orb,it,eci,eold,eci-eold=                    2                  120 -0.81347889177578836      -0.81347888059589801       -1.1179890346824095E-008 F
     orb,it,eci,eold,eci-eold=                    2                  121 -0.81347889648726524      -0.81347889177578836       -4.7114768753075964E-009 F
     orbital   2 current e=  0.358349E+00 error=0.108E+00 (eci= -0.813478896E+00 error=0.471E-08) iterations 121(   0 preconditioned, Ep,Sp= 20.0  200.0)
     orb,it,eci,eold,eci-eold=                    2                    1 -0.81347890198996275      -0.81347889648726524       -5.5026975198657624E-009 F
     orb,it,eci,eold,eci-eold=                    2                    2 -0.81347890304781356      -0.81347890198996275       -1.0578508069514214E-009 F
     orb,it,eci,eold,eci-eold=                    2                    3 -0.81347893404767746      -0.81347890304781356       -3.0999863898095725E-008 F
     orb,it,eci,eold,eci-eold=                    2                    4 -0.81347894454836966      -0.81347893404767746       -1.0500692204651330E-008 F
     orb,it,eci,eold,eci-eold=                    2                    5 -0.81347894598851189      -0.81347894454836966       -1.4401422276932863E-009 F
     orb,it,eci,eold,eci-eold=                    2                    6 -0.81347894681613031      -0.81347894598851189       -8.2761841824208204E-010 F
     orbital   2 current e=  0.358312E+00 error=0.366E-04 (eci= -0.813478947E+00 error=0.828E-09) iterations   6(   0 preconditioned, Ep,Sp= 20.0  200.0)
     orb,it,eci,eold,eci-eold=                    2                    1 -0.81347894857183667      -0.81347894681613031       -1.7557063580753152E-009 F
     orb,it,eci,eold,eci-eold=                    2                    2 -0.81347894881271754      -0.81347894857183667       -2.4088087080542664E-010 F
     orbital   2 current e=  0.358305E+00 error=0.690E-05 (eci= -0.813478949E+00 error=0.241E-09) iterations   2(   0 preconditioned, Ep,Sp= 20.0  200.0)
     orb,it,eci,eold,eci-eold=                    3                    1 -0.81083924991690859      -0.81078197865467949       -5.7271262229097175E-005 F
     orb,it,eci,eold,eci-eold=                    3                    2 -0.81088138759564066      -0.81083924991690859       -4.2137678732068196E-005 F
     orb,it,eci,eold,eci-eold=                    3                    3 -0.81091632933236868      -0.81088138759564066       -3.4941736728022477E-005 F
     orb,it,eci,eold,eci-eold=                    3                    4 -0.81093457233349664      -0.81091632933236868       -1.8243001127959957E-005 F
     orb,it,eci,eold,eci-eold=                    3                    5 -0.81102829932856213      -0.81093457233349664       -9.3726995065490648E-005 F
     orb,it,eci,eold,eci-eold=                    3                    6 -0.81107773533456695      -0.81102829932856213       -4.9436006004821564E-005 F
     orb,it,eci,eold,eci-eold=                    3                    7 -0.81109349148996257      -0.81107773533456695       -1.5756155395618698E-005 F
     orb,it,eci,eold,eci-eold=                    3                    8 -0.81110096308144242      -0.81109349148996257       -7.4715914798462180E-006 F
     orb,it,eci,eold,eci-eold=                    3                    9 -0.81114013533539131      -0.81110096308144242       -3.9172253948893676E-005 F
     orb,it,eci,eold,eci-eold=                    3                   10 -0.81116290275670733      -0.81114013533539131       -2.2767421316016723E-005 F
     orb,it,eci,eold,eci-eold=                    3                   11 -0.81117611630599784      -0.81116290275670733       -1.3213549290513882E-005 F
     orb,it,eci,eold,eci-eold=                    3                   12 -0.81118302438896350      -0.81117611630599784       -6.9080829656620324E-006 F
     orb,it,eci,eold,eci-eold=                    3                   13 -0.81120699361550774      -0.81118302438896350       -2.3969226544240385E-005 F
     orb,it,eci,eold,eci-eold=                    3                   14 -0.81120932197938567      -0.81120699361550774       -2.3283638779236782E-006 F
     orb,it,eci,eold,eci-eold=                    3                   15 -0.81121039184365562      -0.81120932197938567       -1.0698642699535910E-006 F
     orb,it,eci,eold,eci-eold=                    3                   16 -0.81122472081808006      -0.81121039184365562       -1.4328974424437924E-005 F
     orb,it,eci,eold,eci-eold=                    3                   17 -0.81122491505856065      -0.81122472081808006       -1.9424048058880317E-007 F
     orb,it,eci,eold,eci-eold=                    3                   18 -0.81122601759216351      -0.81122491505856065       -1.1025336028591681E-006 F
     orb,it,eci,eold,eci-eold=                    3                   19 -0.81123746212314018      -0.81122601759216351       -1.1444530976678635E-005 F
     orb,it,eci,eold,eci-eold=                    3                   20 -0.81124032290753090      -0.81123746212314018       -2.8607843907124675E-006 F
     orb,it,eci,eold,eci-eold=                    3                   21 -0.81124133725709990      -0.81124032290753090       -1.0143495690062565E-006 F
     orb,it,eci,eold,eci-eold=                    3                   22 -0.81125219796264703      -0.81124133725709990       -1.0860705547122151E-005 F
     orb,it,eci,eold,eci-eold=                    3                   23 -0.81125791726218677      -0.81125219796264703       -5.7192995397414848E-006 F
     orb,it,eci,eold,eci-eold=                    3                   24 -0.81126317218161370      -0.81125791726218677       -5.2549194269335686E-006 F
     orb,it,eci,eold,eci-eold=                    3                   25 -0.81126602189769403      -0.81126317218161370       -2.8497160803331312E-006 F
     orb,it,eci,eold,eci-eold=                    3                   26 -0.81127143624019193      -0.81126602189769403       -5.4143424979002930E-006 F
     orb,it,eci,eold,eci-eold=                    3                   27 -0.81127202768202744      -0.81127143624019193       -5.9144183550685625E-007 F
     orb,it,eci,eold,eci-eold=                    3                   28 -0.81127278902635636      -0.81127202768202744       -7.6134432891450388E-007 F
     orb,it,eci,eold,eci-eold=                    3                   29 -0.81127706346235262      -0.81127278902635636       -4.2744359962654244E-006 F
     orb,it,eci,eold,eci-eold=                    3                   30 -0.81127836319457747      -0.81127706346235262       -1.2997322248464727E-006 F
     orb,it,eci,eold,eci-eold=                    3                   31 -0.81127878369985273      -0.81127836319457747       -4.2050527526704684E-007 F
     orb,it,eci,eold,eci-eold=                    3                   32 -0.81128200922185156      -0.81127878369985273       -3.2255219988286399E-006 F
     orb,it,eci,eold,eci-eold=                    3                   33 -0.81128285987016913      -0.81128200922185156       -8.5064831756298531E-007 F
     orb,it,eci,eold,eci-eold=                    3                   34 -0.81128304434777510      -0.81128285987016913       -1.8447760596895790E-007 F
     orb,it,eci,eold,eci-eold=                    3                   35 -0.81128593452780773      -0.81128304434777510       -2.8901800326330829E-006 F
     orb,it,eci,eold,eci-eold=                    3                   36 -0.81128713802206320      -0.81128593452780773       -1.2034942554750572E-006 F
     orb,it,eci,eold,eci-eold=                    3                   37 -0.81128720196440374      -0.81128713802206320       -6.3942340533529318E-008 F
     orb,it,eci,eold,eci-eold=                    3                   38 -0.81128910730730408      -0.81128720196440374       -1.9053429003434985E-006 F
     orb,it,eci,eold,eci-eold=                    3                   39 -0.81129025792865261      -0.81128910730730408       -1.1506213485334982E-006 F
     orb,it,eci,eold,eci-eold=                    3                   40 -0.81129076726917737      -0.81129025792865261       -5.0934052475692937E-007 F
     orb,it,eci,eold,eci-eold=                    3                   41 -0.81129275639682552      -0.81129076726917737       -1.9891276481498466E-006 F
     orb,it,eci,eold,eci-eold=                    3                   42 -0.81129350588904181      -0.81129275639682552       -7.4949221628983764E-007 F
     orb,it,eci,eold,eci-eold=                    3                   43 -0.81129380187865885      -0.81129350588904181       -2.9598961703847237E-007 F
     orb,it,eci,eold,eci-eold=                    3                   44 -0.81129539574774623      -0.81129380187865885       -1.5938690873795736E-006 F
     orb,it,eci,eold,eci-eold=                    3                   45 -0.81129588409488640      -0.81129539574774623       -4.8834714017065295E-007 F
     orb,it,eci,eold,eci-eold=                    3                   46 -0.81129601973837895      -0.81129588409488640       -1.3564349254924224E-007 F
     orb,it,eci,eold,eci-eold=                    3                   47 -0.81129727262776641      -0.81129601973837895       -1.2528893874597102E-006 F
     orb,it,eci,eold,eci-eold=                    3                   48 -0.81129783393412969      -0.81129727262776641       -5.6130636327811345E-007 F
     orb,it,eci,eold,eci-eold=                    3                   49 -0.81129803151126123      -0.81129783393412969       -1.9757713154433532E-007 F
     orb,it,eci,eold,eci-eold=                    3                   50 -0.81129909292204916      -0.81129803151126123       -1.0614107879280965E-006 F
     orb,it,eci,eold,eci-eold=                    3                   51 -0.81129929682874202      -0.81129909292204916       -2.0390669286385332E-007 F
     orb,it,eci,eold,eci-eold=                    3                   52 -0.81129930437582520      -0.81129929682874202       -7.5470831806256911E-009 F
     orb,it,eci,eold,eci-eold=                    3                   53 -0.81130011727906481      -0.81129930437582520       -8.1290323961091815E-007 F
     orb,it,eci,eold,eci-eold=                    3                   54 -0.81130045734523837      -0.81130011727906481       -3.4006617355419877E-007 F
     orb,it,eci,eold,eci-eold=                    3                   55 -0.81130050379423835      -0.81130045734523837       -4.6448999979631367E-008 F
     orb,it,eci,eold,eci-eold=                    3                   56 -0.81130119370882192      -0.81130050379423835       -6.8991458357370306E-007 F
     orb,it,eci,eold,eci-eold=                    3                   57 -0.81130148723888840      -0.81130119370882192       -2.9353006647525604E-007 F
     orb,it,eci,eold,eci-eold=                    3                   58 -0.81130153132021643      -0.81130148723888840       -4.4081328032241629E-008 F
     orb,it,eci,eold,eci-eold=                    3                   59 -0.81130206956720263      -0.81130153132021643       -5.3824698620363876E-007 F
     orb,it,eci,eold,eci-eold=                    3                   60 -0.81130228008383254      -0.81130206956720263       -2.1051662990601017E-007 F
     orb,it,eci,eold,eci-eold=                    3                   61 -0.81130232709590921      -0.81130228008383254       -4.7012076676011816E-008 F
     orb,it,eci,eold,eci-eold=                    3                   62 -0.81130279805500072      -0.81130232709590921       -4.7095909150307591E-007 F
     orb,it,eci,eold,eci-eold=                    3                   63 -0.81130302049397185      -0.81130279805500072       -2.2243897113138900E-007 F
     orb,it,eci,eold,eci-eold=                    3                   64 -0.81130308619957148      -0.81130302049397185       -6.5705599627818856E-008 F
     orb,it,eci,eold,eci-eold=                    3                   65 -0.81130347558901539      -0.81130308619957148       -3.8938944391109231E-007 F
     orb,it,eci,eold,eci-eold=                    3                   66 -0.81130356150201033      -0.81130347558901539       -8.5912994940429144E-008 F
     orb,it,eci,eold,eci-eold=                    3                   67 -0.81130356190844100      -0.81130356150201033       -4.0643066689938223E-010 F
     orbital   3 current e=  0.454463E+00 error=0.733E-01 (eci= -0.811303562E+00 error=0.406E-09) iterations  67(   0 preconditioned, Ep,Sp= 20.0  200.0)
     orb,it,eci,eold,eci-eold=                    3                    1 -0.81130440406654780      -0.81130356190844100       -8.4215810680632330E-007 F
     orb,it,eci,eold,eci-eold=                    3                    2 -0.81130469221690726      -0.81130440406654780       -2.8815035946205825E-007 F
     orb,it,eci,eold,eci-eold=                    3                    3 -0.81130487659989803      -0.81130469221690726       -1.8438299076439790E-007 F
     orb,it,eci,eold,eci-eold=                    3                    4 -0.81130510549094292      -0.81130487659989803       -2.2889104489554057E-007 F
     orb,it,eci,eold,eci-eold=                    3                    5 -0.81130516015806431      -0.81130510549094292       -5.4667121385243433E-008 F
     orb,it,eci,eold,eci-eold=                    3                    6 -0.81130518943429564      -0.81130516015806431       -2.9276231328090319E-008 F
     orb,it,eci,eold,eci-eold=                    3                    7 -0.81130525800711562      -0.81130518943429564       -6.8572819977852362E-008 F
     orb,it,eci,eold,eci-eold=                    3                    8 -0.81130526869493758      -0.81130525800711562       -1.0687821960786437E-008 F
     orb,it,eci,eold,eci-eold=                    3                    9 -0.81130531880429102      -0.81130526869493758       -5.0109353444405258E-008 F
     orb,it,eci,eold,eci-eold=                    3                   10 -0.81130535453551689      -0.81130531880429102       -3.5731225866975080E-008 F
     orb,it,eci,eold,eci-eold=                    3                   11 -0.81130537580597462      -0.81130535453551689       -2.1270457728483905E-008 F
     orb,it,eci,eold,eci-eold=                    3                   12 -0.81130542710289233      -0.81130537580597462       -5.1296917713550272E-008 F
     orb,it,eci,eold,eci-eold=                    3                   13 -0.81130545096399076      -0.81130542710289233       -2.3861098430444372E-008 F
     orb,it,eci,eold,eci-eold=                    3                   14 -0.81130547359355965      -0.81130545096399076       -2.2629568885434992E-008 F
     orb,it,eci,eold,eci-eold=                    3                   15 -0.81130548654091383      -0.81130547359355965       -1.2947354188774796E-008 F
     orb,it,eci,eold,eci-eold=                    3                   16 -0.81130550132307833      -0.81130548654091383       -1.4782164492466165E-008 F
     orb,it,eci,eold,eci-eold=                    3                   17 -0.81130550870800688      -0.81130550132307833       -7.3849285575633417E-009 F
     orb,it,eci,eold,eci-eold=                    3                   18 -0.81130551889266733      -0.81130550870800688       -1.0184660448331329E-008 F
     orb,it,eci,eold,eci-eold=                    3                   19 -0.81130552478691786      -0.81130551889266733       -5.8942505321013527E-009 F
     orb,it,eci,eold,eci-eold=                    3                   20 -0.81130552892965713      -0.81130552478691786       -4.1427392627468862E-009 F
     orb,it,eci,eold,eci-eold=                    3                   21 -0.81130553043117237      -0.81130552892965713       -1.5015152454722624E-009 F
     orb,it,eci,eold,eci-eold=                    3                   22 -0.81130553553290230      -0.81130553043117237       -5.1017299274036532E-009 F
     orb,it,eci,eold,eci-eold=                    3                   23 -0.81130553553290230      -0.81130553553290230        0.0000000000000000      F
     orbital   3 current e=  0.451163E+00 error=0.330E-02 (eci= -0.811305536E+00 error=0.000E+00) iterations  23(   0 preconditioned, Ep,Sp= 20.0  200.0)
     orb,it,eci,eold,eci-eold=                    3                    1 -0.81130554232337548      -0.81130553545861406       -6.8647614259731427E-009 F
     orb,it,eci,eold,eci-eold=                    3                    2 -0.81130554252604370      -0.81130554232337548       -2.0266821554315584E-010 F
     orbital   3 current e=  0.451160E+00 error=0.280E-05 (eci= -0.811305543E+00 error=0.203E-09) iterations   2(   0 preconditioned, Ep,Sp= 20.0  200.0)
     orb,it,eci,eold,eci-eold=                    4                    1 -0.81037839272278112      -0.81023885028567144       -1.3954243710967429E-004 F
     orb,it,eci,eold,eci-eold=                    4                    2 -0.81040196179271717      -0.81037839272278112       -2.3569069936058007E-005 F
     orb,it,eci,eold,eci-eold=                    4                    3 -0.81045432635823977      -0.81040196179271717       -5.2364565522600159E-005 F
     orb,it,eci,eold,eci-eold=                    4                    4 -0.81052023485413582      -0.81045432635823977       -6.5908495896049857E-005 F
     orb,it,eci,eold,eci-eold=                    4                    5 -0.81055768379004944      -0.81052023485413582       -3.7448935913619863E-005 F
     orb,it,eci,eold,eci-eold=                    4                    6 -0.81056002446735553      -0.81055768379004944       -2.3406773060896668E-006 F
     orb,it,eci,eold,eci-eold=                    4                    7 -0.81056258746006338      -0.81056002446735553       -2.5629927078441028E-006 F
     orb,it,eci,eold,eci-eold=                    4                    8 -0.81059370500973515      -0.81056258746006338       -3.1117549671777489E-005 F
     orb,it,eci,eold,eci-eold=                    4                    9 -0.81061270115167461      -0.81059370500973515       -1.8996141939453537E-005 F
     orb,it,eci,eold,eci-eold=                    4                   10 -0.81062779421424314      -0.81061270115167461       -1.5093062568527493E-005 F
     orb,it,eci,eold,eci-eold=                    4                   11 -0.81063064294943044      -0.81062779421424314       -2.8487351872996669E-006 F
     orb,it,eci,eold,eci-eold=                    4                   12 -0.81063844889271797      -0.81063064294943044       -7.8059432875310364E-006 F
     orb,it,eci,eold,eci-eold=                    4                   13 -0.81064902101197611      -0.81063844889271797       -1.0572119258145385E-005 F
     orb,it,eci,eold,eci-eold=                    4                   14 -0.81065485121088199      -0.81064902101197611       -5.8301989058762160E-006 F
     orb,it,eci,eold,eci-eold=                    4                   15 -0.81066829366162951      -0.81065485121088199       -1.3442450747525037E-005 F
     orb,it,eci,eold,eci-eold=                    4                   16 -0.81067302118656914      -0.81066829366162951       -4.7275249396294683E-006 F
     orb,it,eci,eold,eci-eold=                    4                   17 -0.81067524969987437      -0.81067302118656914       -2.2285133052246664E-006 F
     orb,it,eci,eold,eci-eold=                    4                   18 -0.81068107479080553      -0.81067524969987437       -5.8250909311663435E-006 F
     orb,it,eci,eold,eci-eold=                    4                   19 -0.81068261990352841      -0.81068107479080553       -1.5451127228782724E-006 F
     orb,it,eci,eold,eci-eold=                    4                   20 -0.81068555507364437      -0.81068261990352841       -2.9351701159585630E-006 F
     orb,it,eci,eold,eci-eold=                    4                   21 -0.81069287782784993      -0.81068555507364437       -7.3227542055631645E-006 F
     orb,it,eci,eold,eci-eold=                    4                   22 -0.81069406203157324      -0.81069287782784993       -1.1842037233034119E-006 F
     orb,it,eci,eold,eci-eold=                    4                   23 -0.81069548457256091      -0.81069406203157324       -1.4225409876722495E-006 F
     orb,it,eci,eold,eci-eold=                    4                   24 -0.81070201011858933      -0.81069548457256091       -6.5255460284241451E-006 F
     orb,it,eci,eold,eci-eold=                    4                   25 -0.81070408202983102      -0.81070201011858933       -2.0719112416855978E-006 F
     orb,it,eci,eold,eci-eold=                    4                   26 -0.81070490848621568      -0.81070408202983102       -8.2645638466161131E-007 F
     orb,it,eci,eold,eci-eold=                    4                   27 -0.81070921268289275      -0.81070490848621568       -4.3041966770740459E-006 F
     orb,it,eci,eold,eci-eold=                    4                   28 -0.81070998770099334      -0.81070921268289275       -7.7501810058500098E-007 F
     orb,it,eci,eold,eci-eold=                    4                   29 -0.81071074278296762      -0.81070998770099334       -7.5508197427964774E-007 F
     orb,it,eci,eold,eci-eold=                    4                   30 -0.81071569824423884      -0.81071074278296762       -4.9554612712165991E-006 F
     orb,it,eci,eold,eci-eold=                    4                   31 -0.81071803889958916      -0.81071569824423884       -2.3406553503191319E-006 F
     orb,it,eci,eold,eci-eold=                    4                   32 -0.81072081684631170      -0.81071803889958916       -2.7779467225430565E-006 F
     orb,it,eci,eold,eci-eold=                    4                   33 -0.81072093601300677      -0.81072081684631170       -1.1916669506728539E-007 F
     orb,it,eci,eold,eci-eold=                    4                   34 -0.81072235548315819      -0.81072093601300677       -1.4194701514202990E-006 F
     orb,it,eci,eold,eci-eold=                    4                   35 -0.81072665879893568      -0.81072235548315819       -4.3033157774985398E-006 F
     orb,it,eci,eold,eci-eold=                    4                   36 -0.81072799984604704      -0.81072665879893568       -1.3410471113584066E-006 F
     orb,it,eci,eold,eci-eold=                    4                   37 -0.81072878892184708      -0.81072799984604704       -7.8907580003395594E-007 F
     orb,it,eci,eold,eci-eold=                    4                   38 -0.81073146936408336      -0.81072878892184708       -2.6804422362802782E-006 F
     orb,it,eci,eold,eci-eold=                    4                   39 -0.81073191596603444      -0.81073146936408336       -4.4660195108736644E-007 F
     orb,it,eci,eold,eci-eold=                    4                   40 -0.81073250798134211      -0.81073191596603444       -5.9201530766550547E-007 F
     orb,it,eci,eold,eci-eold=                    4                   41 -0.81073544650736262      -0.81073250798134211       -2.9385260205128105E-006 F
     orb,it,eci,eold,eci-eold=                    4                   42 -0.81073549950257040      -0.81073544650736262       -5.2995207777684072E-008 F
     orb,it,eci,eold,eci-eold=                    4                   43 -0.81073555870577985      -0.81073549950257040       -5.9203209445968241E-008 F
     orb,it,eci,eold,eci-eold=                    4                   44 -0.81073764127050418      -0.81073555870577985       -2.0825647243372103E-006 F
     orb,it,eci,eold,eci-eold=                    4                   45 -0.81073841112887757      -0.81073764127050418       -7.6985837338394703E-007 F
     orb,it,eci,eold,eci-eold=                    4                   46 -0.81073953097662899      -0.81073841112887757       -1.1198477514184901E-006 F
     orb,it,eci,eold,eci-eold=                    4                   47 -0.81074044609631857      -0.81073953097662899       -9.1511968958180034E-007 F
     orb,it,eci,eold,eci-eold=                    4                   48 -0.81074179487909026      -0.81074044609631857       -1.3487827716929246E-006 F
     orb,it,eci,eold,eci-eold=                    4                   49 -0.81074248059729481      -0.81074179487909026       -6.8571820455165522E-007 F
     orb,it,eci,eold,eci-eold=                    4                   50 -0.81074346141960540      -0.81074248059729481       -9.8082231059226643E-007 F
     orb,it,eci,eold,eci-eold=                    4                   51 -0.81074399393275742      -0.81074346141960540       -5.3251315201841010E-007 F
     orb,it,eci,eold,eci-eold=                    4                   52 -0.81074453336970498      -0.81074399393275742       -5.3943694755531624E-007 F
     orb,it,eci,eold,eci-eold=                    4                   53 -0.81074479586621728      -0.81074453336970498       -2.6249651230436655E-007 F
     orb,it,eci,eold,eci-eold=                    4                   54 -0.81074529368839188      -0.81074479586621728       -4.9782217459437561E-007 F
     orb,it,eci,eold,eci-eold=                    4                   55 -0.81074533580225028      -0.81074529368839188       -4.2113858400583126E-008 F
     orb,it,eci,eold,eci-eold=                    4                   56 -0.81074541119004628      -0.81074533580225028       -7.5387796005799146E-008 F
     orb,it,eci,eold,eci-eold=                    4                   57 -0.81074581806419488      -0.81074541119004628       -4.0687414859519322E-007 F
     orb,it,eci,eold,eci-eold=                    4                   58 -0.81074585895305451      -0.81074581806419488       -4.0888859631493801E-008 F
     orb,it,eci,eold,eci-eold=                    4                   59 -0.81074588659404945      -0.81074585895305451       -2.7640994937350172E-008 F
     orb,it,eci,eold,eci-eold=                    4                   60 -0.81074628455225028      -0.81074588659404945       -3.9795820083732281E-007 F
     orb,it,eci,eold,eci-eold=                    4                   61 -0.81074651044877055      -0.81074628455225028       -2.2589652026727691E-007 F
     orb,it,eci,eold,eci-eold=                    4                   62 -0.81074664896766047      -0.81074651044877055       -1.3851888991389671E-007 F
     orb,it,eci,eold,eci-eold=                    4                   63 -0.81074669923335430      -0.81074664896766047       -5.0265693829487645E-008 F
     orb,it,eci,eold,eci-eold=                    4                   64 -0.81074685244679190      -0.81074669923335430       -1.5321343760366091E-007 F
     orb,it,eci,eold,eci-eold=                    4                   65 -0.81074695444931377      -0.81074685244679190       -1.0200252187342329E-007 F
     orb,it,eci,eold,eci-eold=                    4                   66 -0.81074703252717972      -0.81074695444931377       -7.8077865950376690E-008 F
     orb,it,eci,eold,eci-eold=                    4                   67 -0.81074706355257020      -0.81074703252717972       -3.1025390478944814E-008 F
     orb,it,eci,eold,eci-eold=                    4                   68 -0.81074714098020961      -0.81074706355257020       -7.7427639411098426E-008 F
     orb,it,eci,eold,eci-eold=                    4                   69 -0.81074719063771195      -0.81074714098020961       -4.9657502332323133E-008 F
     orb,it,eci,eold,eci-eold=                    4                   70 -0.81074723916253821      -0.81074719063771195       -4.8524826268270260E-008 F
     orb,it,eci,eold,eci-eold=                    4                   71 -0.81074726369581196      -0.81074723916253821       -2.4533273745852568E-008 F
     orb,it,eci,eold,eci-eold=                    4                   72 -0.81074730843090181      -0.81074726369581196       -4.4735089854697208E-008 F
     orb,it,eci,eold,eci-eold=                    4                   73 -0.81074733198092797      -0.81074730843090181       -2.3550026151397674E-008 F
     orb,it,eci,eold,eci-eold=                    4                   74 -0.81074735489324379      -0.81074733198092797       -2.2912315822409823E-008 F
     orb,it,eci,eold,eci-eold=                    4                   75 -0.81074736732992969      -0.81074735489324379       -1.2436685903338685E-008 F
     orb,it,eci,eold,eci-eold=                    4                   76 -0.81074739189394762      -0.81074736732992969       -2.4564017930828186E-008 F
     orb,it,eci,eold,eci-eold=                    4                   77 -0.81074739243672678      -0.81074739189394762       -5.4277915495504203E-010 F
     orbital   4 current e=  0.624311E+00 error=0.424E-01 (eci= -0.810747392E+00 error=0.543E-09) iterations  77(   0 preconditioned, Ep,Sp= 20.0  200.0)
     orb,it,eci,eold,eci-eold=                    4                    1 -0.81074745186193276      -0.81074739243672678       -5.9425205978236306E-008 F
     orb,it,eci,eold,eci-eold=                    4                    2 -0.81074745388763803      -0.81074745186193276       -2.0257052701921907E-009 F
     orb,it,eci,eold,eci-eold=                    4                    3 -0.81074746602188463      -0.81074745388763803       -1.2134246607509169E-008 F
     orb,it,eci,eold,eci-eold=                    4                    4 -0.81074747354954246      -0.81074746602188463       -7.5276578304084296E-009 F
     orb,it,eci,eold,eci-eold=                    4                    5 -0.81074747589178209      -0.81074747354954246       -2.3422396244754395E-009 F
     orb,it,eci,eold,eci-eold=                    4                    6 -0.81074748921073159      -0.81074747589178209       -1.3318949498852817E-008 F
     orb,it,eci,eold,eci-eold=                    4                    7 -0.81074749157513559      -0.81074748921073159       -2.3644040059167537E-009 F
     orb,it,eci,eold,eci-eold=                    4                    8 -0.81074749440201499      -0.81074749157513559       -2.8268793972330286E-009 F
     orb,it,eci,eold,eci-eold=                    4                    9 -0.81074750258721329      -0.81074749440201499       -8.1851982969283199E-009 F
     orb,it,eci,eold,eci-eold=                    4                   10 -0.81074750699743525      -0.81074750258721329       -4.4102219654007513E-009 F
     orb,it,eci,eold,eci-eold=                    4                   11 -0.81074751008586565      -0.81074750699743525       -3.0884304003109264E-009 F
     orb,it,eci,eold,eci-eold=                    4                   12 -0.81074751158158431      -0.81074751008586565       -1.4957186600383920E-009 F
     orb,it,eci,eold,eci-eold=                    4                   13 -0.81074751374152554      -0.81074751158158431       -2.1599412258765938E-009 F
     orb,it,eci,eold,eci-eold=                    4                   14 -0.81074751441695181      -0.81074751374152554       -6.7542627046890402E-010 F
     orbital   4 current e=  0.626094E+00 error=0.178E-02 (eci= -0.810747514E+00 error=0.675E-09) iterations  14(   0 preconditioned, Ep,Sp= 20.0  200.0)
     orb,it,eci,eold,eci-eold=                    4                    1 -0.81074751906644060      -0.81074751441695181       -4.6494887939729779E-009 F
     orb,it,eci,eold,eci-eold=                    4                    2 -0.81074751906644060      -0.81074751906644060        0.0000000000000000      F
     orbital   4 current e=  0.626094E+00 error=0.317E-06 (eci= -0.810747519E+00 error=0.000E+00) iterations   2(   0 preconditioned, Ep,Sp= 20.0  200.0)

 virtual orbital energies:
     0.6260936E+00 (  17.037eV)
     0.4511599E+00 (  12.277eV)
     0.3583054E+00 (   9.750eV)
    -0.1364010E+00 (  -3.712eV)


 == Generating One-Electron and Two-Electron Integrals ==

 begin_one_electron_integrals
    1    1        -0.6448130697
    2    1         0.0000009280
    3    1         0.0618819899
    4    1        -0.0466934171
    5    1         0.0000067271
    2    2        -0.6432770347
    3    2         0.0000027416
    4    2        -0.0000059144
    5    2        -0.0280076345
    3    3        -0.2097588777
    4    3        -0.0457160387
    5    3         0.0000071635
    4    4        -0.0906661529
    5    4        -0.0000041420
    5    5         0.0587932086
 end_one_electron_integrals

 begin_two_electron_integrals
    1    1    1    1        0.3293299602
    1    1    2    1       -0.0000009387
    1    1    3    1       -0.0618813458
    1    1    4    1        0.0466950686
    1    1    5    1       -0.0000067119
    1    1    2    2        0.3505213555
    1    1    3    2       -0.0000019038
    1    1    4    2        0.0000115562
    1    1    5    2        0.0689516700
    1    1    3    3        0.3147668312
    1    1    4    3        0.0051347638
    1    1    5    3        0.0000026617
    1    1    4    4        0.2951643431
    1    1    5    4       -0.0000044091
    1    1    5    5        0.3075258575
    2    1    2    1        0.1941666387
    2    1    3    1        0.0000004490
    2    1    4    1        0.0000076535
    2    1    5    1        0.0467782660
    2    1    2    2       -0.0000016779
    2    1    3    2       -0.1095060615
    2    1    4    2        0.0236055549
    2    1    5    2       -0.0000061826
    2    1    3    3        0.0000030391
    2    1    4    3       -0.0000286898
    2    1    5    3       -0.0943750460
    2    1    4    4        0.0000198657
    2    1    5    4        0.1373456689
    2    1    5    5       -0.0000460383
    3    1    3    1        0.0614693882
    3    1    4    1       -0.0025120221
    3    1    5    1        0.0000005314
    3    1    2    2       -0.0825880029
    3    1    3    2        0.0000004430
    3    1    4    2       -0.0000104307
    3    1    5    2       -0.0377038046
    3    1    3    3       -0.0504371391
    3    1    4    3        0.0155651260
    3    1    5    3       -0.0000017519
    3    1    4    4       -0.0385027809
    3    1    5    4       -0.0000010465
    3    1    5    5       -0.0665954405
    4    1    4    1        0.0485026436
    4    1    5    1       -0.0000004877
    4    1    2    2        0.0476240575
    4    1    3    2       -0.0000095595
    4    1    4    2        0.0000061727
    4    1    5    2        0.0442019424
    4    1    3    3        0.0502475127
    4    1    4    3        0.0004353695
    4    1    5    3       -0.0000037451
    4    1    4    4        0.0390659656
    4    1    5    4        0.0000019010
    4    1    5    5        0.0362703173
    5    1    5    1        0.0477512870
    5    1    2    2       -0.0000072922
    5    1    3    2       -0.0392282280
    5    1    4    2        0.0384439030
    5    1    5    2       -0.0000137122
    5    1    3    3       -0.0000063342
    5    1    4    3       -0.0000052580
    5    1    5    3       -0.0356346525
    5    1    4    4       -0.0000026038
    5    1    5    4        0.0244843507
    5    1    5    5       -0.0000152205
    2    2    2    2        0.3787943513
    2    2    3    2       -0.0000017745
    2    2    4    2        0.0000145976
    2    2    5    2        0.0815249041
    2    2    3    3        0.3308564227
    2    2    4    3       -0.0005728787
    2    2    5    3        0.0000036562
    2    2    4    4        0.3086109557
    2    2    5    4       -0.0000045139
    2    2    5    5        0.3304556961
    3    2    3    2        0.0817218094
    3    2    4    2       -0.0128868084
    3    2    5    2        0.0000024646
    3    2    3    3       -0.0000041204
    3    2    4    3        0.0000162280
    3    2    5    3        0.0598007651
    3    2    4    4       -0.0000125365
    3    2    5    4       -0.0714896430
    3    2    5    5        0.0000224273
    4    2    4    2        0.0415777595
    4    2    5    2        0.0000016161
    4    2    3    3        0.0000111491
    4    2    4    3       -0.0000039762
    4    2    5    3       -0.0213627059
    4    2    4    4        0.0000078521
    4    2    5    4        0.0113090774
    4    2    5    5        0.0000063586
    5    2    5    2        0.0624739112
    5    2    3    3        0.0688083159
    5    2    4    3       -0.0116070318
    5    2    5    3        0.0000073529
    5    2    4    4        0.0478795401
    5    2    5    4       -0.0000028840
    5    2    5    5        0.0651458785
    3    3    3    3        0.3187864842
    3    3    4    3        0.0112871278
    3    3    5    3        0.0000003707
    3    3    4    4        0.2800378316
    3    3    5    4        0.0000001940
    3    3    5    5        0.2895010698
    4    3    4    3        0.0175868272
    4    3    5    3        0.0000131447
    4    3    4    4        0.0108147565
    4    3    5    4       -0.0000239172
    4    3    5    5       -0.0070537928
    5    3    5    3        0.0572046570
    5    3    4    4       -0.0000108437
    5    3    5    4       -0.0661176260
    5    3    5    5        0.0000256002
    4    4    4    4        0.2869704232
    4    4    5    4        0.0000121705
    4    4    5    5        0.2842522089
    5    4    5    4        0.1140086839
    5    4    5    5       -0.0000397080
    5    5    5    5        0.3067387930
 end_two_electron_integrals


 output epsi filename:./pspw_hf_H2.emovecs

 Total PSPW energy     :  -0.8091026795E+00


=== Spin Contamination ===

 <Sexact^2> =    0.0000000000000000     
 <S^2>      =    0.0000000000000000     



== Center of Charge ==

spin up     (    0.0000,    0.0000,    0.0000 )
spin down   (    0.0000,    0.0000,    0.0000 )
     total  (    0.0000,    0.0000,    0.0000 )
ionic       (    0.0000,    0.0000,    0.0000 )


== Molecular Dipole wrt Center of Mass ==

mu   =  (   -0.0000,   -0.0000,   -0.0000 ) au
|mu| =     0.0000 au,       0.0001 Debye

 output psi filename:./pspw_hf_H2.movecs

 Writing Crystallographic Information File:./H2.cif
   - cell not shifted (nwpw:cif_shift_cell .false.)


== Timing ==

cputime in seconds
  prologue    :   0.709669E+01
  main loop   :   0.540761E+03
  epilogue    :   0.297186E-01
  total       :   0.547888E+03
  cputime/step:   0.362927E+01       (     149 evalulations,      62 linesearches)


Time spent doing                        total          step       percent
  total time                 :   0.547898E+03  0.367717E+01       100.0 %
  i/o time                   :   0.256618E+00  0.172227E-02         0.0 %
  FFTs                       :   0.413814E+03  0.277728E+01        75.5 %
  dot products               :   0.551285E+01  0.369990E-01         1.0 %
  geodesic                   :   0.695725E-01  0.466930E-03         0.0 %
  ffm_dgemm                  :   0.110039E-01  0.738519E-04         0.0 %
  fmf_dgemm                  :   0.185152E-01  0.124263E-03         0.0 %
  mmm_dgemm                  :   0.293655E-02  0.197084E-04         0.0 %
  m_diagonalize              :   0.125800E-02  0.844295E-05         0.0 %
  local pseudopotentials     :   0.693333E+01  0.465324E-01         1.3 %
  non-local pseudopotentials :   0.479697E+01  0.321944E-01         0.9 %
  structure factors          :   0.107463E+01  0.721231E-02         0.2 %
  phase factors              :   0.159650E-04  0.107148E-06         0.0 %
  masking and packing        :   0.476083E+01  0.319519E-01         0.9 %
  queue fft                  :   0.695504E+01  0.466781E-01         1.3 %
  queue fft (serial)         :   0.239979E+01  0.161060E-01         0.4 %
  queue fft (message passing):   0.450857E+01  0.302589E-01         0.8 %
  HFX potential              :   0.113351E+02  0.760746E-01         2.1 %
  non-local psp FFM          :   0.447993E+01  0.300666E-01         0.8 %
  non-local psp FMF          :   0.867349E-01  0.582113E-03         0.0 %
  non-local psp FFM A        :   0.663849E-01  0.445536E-03         0.0 %
  non-local psp FFM B        :   0.131734E+00  0.884122E-03         0.0 %

== HFX Counters ==
  HFX Evalulations         =   149
  Lin ACE HFX Evalulations =     0


     >>>  JOB COMPLETED     AT Tue Apr 22 21:14:38 2025  <<<

 Task  times  cpu:      510.0s     wall:      547.9s


                                NWChem Input Module
                                -------------------


 Summary of allocated global arrays
-----------------------------------
  No active global arrays


MA_summarize_allocated_blocks: starting scan ...
MA_summarize_allocated_blocks: scan completed: 0 heap blocks, 0 stack blocks
MA usage statistics:

	allocation statistics:
					      heap	     stack
					      ----	     -----
	current number of blocks	         0	         0
	maximum number of blocks	       313	        36
	current total bytes		         0	         0
	maximum total bytes		  40292144	  13584680
	maximum total K-bytes		     40293	     13585
	maximum total M-bytes		        41	        14


                                     CITATION
                                     --------
                Please cite the following reference when publishing
                           results obtained with NWChem:

          E. Apra, E. J. Bylaska, W. A. de Jong, N. Govind, K. Kowalski,
       T. P. Straatsma, M. Valiev, H. J. J. van Dam, Y. Alexeev, J. Anchell,
       V. Anisimov, F. W. Aquino, R. Atta-Fynn, J. Autschbach, N. P. Bauman,
     J. C. Becca, D. E. Bernholdt, K. Bhaskaran-Nair, S. Bogatko, P. Borowski,
         J. Boschen, J. Brabec, A. Bruner, E. Cauet, Y. Chen, G. N. Chuev,
      C. J. Cramer, J. Daily, M. J. O. Deegan, T. H. Dunning Jr., M. Dupuis,
   K. G. Dyall, G. I. Fann, S. A. Fischer, A. Fonari, H. Fruchtl, L. Gagliardi,
      J. Garza, N. Gawande, S. Ghosh, K. Glaesemann, A. W. Gotz, J. Hammond,
       V. Helms, E. D. Hermes, K. Hirao, S. Hirata, M. Jacquelin, L. Jensen,
   B. G. Johnson, H. Jonsson, R. A. Kendall, M. Klemm, R. Kobayashi, V. Konkov,
      S. Krishnamoorthy, M. Krishnan, Z. Lin, R. D. Lins, R. J. Littlefield,
      A. J. Logsdail, K. Lopata, W. Ma, A. V. Marenich, J. Martin del Campo,
   D. Mejia-Rodriguez, J. E. Moore, J. M. Mullin, T. Nakajima, D. R. Nascimento,
    J. A. Nichols, P. J. Nichols, J. Nieplocha, A. Otero-de-la-Roza, B. Palmer,
    A. Panyala, T. Pirojsirikul, B. Peng, R. Peverati, J. Pittner, L. Pollack,
   R. M. Richard, P. Sadayappan, G. C. Schatz, W. A. Shelton, D. W. Silverstein,
   D. M. A. Smith, T. A. Soares, D. Song, M. Swart, H. L. Taylor, G. S. Thomas,
            V. Tipparaju, D. G. Truhlar, K. Tsemekhman, T. Van Voorhis,
      A. Vazquez-Mayagoitia, P. Verma, O. Villa, A. Vishnu, K. D. Vogiatzis,
        D. Wang, J. H. Weare, M. J. Williamson, T. L. Windus, K. Wolinski,
        A. T. Wong, Q. Wu, C. Yang, Q. Yu, M. Zacharias, Z. Zhang, Y. Zhao,
                                and R. J. Harrison
                        "NWChem: Past, present, and future
                         J. Chem. Phys. 152, 184102 (2020)
                               doi:10.1063/5.0004997

                                      AUTHORS
                                      -------
  E. Apra, E. J. Bylaska, N. Govind, K. Kowalski, M. Valiev, D. Mejia-Rodriguez,
       A. Kunitsa, N. P. Bauman, A. Panyala, W. A. de Jong, T. P. Straatsma,
   H. J. J. van Dam, D. Wang, T. L. Windus, J. Hammond, J. Autschbach, A. Woods,
    K. Bhaskaran-Nair, J. Brabec, K. Lopata, S. A. Fischer, S. Krishnamoorthy,
     M. Jacquelin, W. Ma, M. Klemm, O. Villa, Y. Chen, V. Anisimov, F. Aquino,
     S. Hirata, M. T. Hackler, E. Hermes, L. Jensen, J. E. Moore, J. C. Becca,
      V. Konjkov, T. Risthaus, M. Malagoli, A. Marenich, A. Otero-de-la-Roza,
        J. Mullin, P. Nichols, R. Peverati, J. Pittner, Y. Zhao, P.-D. Fan,
        A. Fonari, M. J. Williamson, R. J. Harrison, J. R. Rehr, M. Dupuis,
     D. Silverstein, D. M. A. Smith, J. Nieplocha, V. Tipparaju, M. Krishnan,
     B. E. Van Kuiken, A. Vazquez-Mayagoitia, M. Swart, Q. Wu, T. Van Voorhis,
     A. A. Auer, M. Nooijen, L. D. Crosby, E. Brown, G. Cisneros, G. I. Fann,
   H. Fruchtl, J. Garza, K. Hirao, R. A. Kendall, J. A. Nichols, K. Tsemekhman,
    K. Wolinski, J. Anchell, D. E. Bernholdt, P. Borowski, T. Clark, D. Clerc,
   H. Dachsel, M. J. O. Deegan, K. Dyall, D. Elwood, E. Glendening, M. Gutowski,
   A. C. Hess, J. Jaffe, B. G. Johnson, J. Ju, R. Kobayashi, R. Kutteh, Z. Lin,
   R. Littlefield, X. Long, B. Meng, T. Nakajima, S. Niu, L. Pollack, M. Rosing,
   K. Glaesemann, G. Sandrone, M. Stave, H. Taylor, G. Thomas, J. H. van Lenthe,
                               A. T. Wong, Z. Zhang.

 Total times  cpu:      510.1s     wall:      548.0s
