 argument  1 = H2-4.5.nw



============================== echo of input deck ==============================
title "swnc: e theory=pspw4 xc=hf formula=H2 charge=0 mult=1"
#machinejob:expert

echo

start pspw_hf_H2

memory heap 1200 mb stack 1200 mb global 10 mb

charge 0

geometry
H    0.00000    0.00000   -2.25000
H    0.00000    0.00000    2.25000
end

nwpw
  ### pseudopotential block begin ###
  ### pseudopotential block end   ###
  simulation_cell
     SC 20.0000
     boundary_conditions aperiodic
  end

  cutoff 50.0
  mult 1
  xc hf
  lmbfgs
  tolerances 1.0e-9 1.0e-9

  virtual 4
end
set nwpw:cif_filename H2

#set nwpw:CI_maxit_orb 15
#set nwpw:CI_maxit_linesearch 15
set pspw:HFX_screening_radius 14.0


set nwpw:2qintegrals .true.
set nwpw:3x3_virtual .true.

task pspw energy
================================================================================


                                         
                                         


             Northwest Computational Chemistry Package (NWChem) 7.2.3
             --------------------------------------------------------


                    Environmental Molecular Sciences Laboratory
                       Pacific Northwest National Laboratory
                                Richland, WA 99352

                              Copyright (c) 1994-2022
                       Pacific Northwest National Laboratory
                            Battelle Memorial Institute

             NWChem is an open-source computational chemistry package
                        distributed under the terms of the
                      Educational Community License (ECL) 2.0
             A copy of the license is included with this distribution
                              in the LICENSE.TXT file

                                  ACKNOWLEDGMENT
                                  --------------

            This software and its documentation were developed at the
            EMSL at Pacific Northwest National Laboratory, a multiprogram
            national laboratory, operated for the U.S. Department of Energy
            by Battelle under Contract Number DE-AC05-76RL01830. Support
            for this work was provided by the Department of Energy Office
            of Biological and Environmental Research, Office of Basic
            Energy Sciences, and the Office of Advanced Scientific Computing.


           Job information
           ---------------

    hostname        = mqs-al
    program         = nwchem
    date            = Tue Apr 22 20:43:51 2025

    compiled        = Thu_Oct_31_08:55:15_2024
    source          = /home/conda/feedstock_root/build_artifacts/nwchem_1730356057992/work
    nwchem branch   = 7.2.3
    nwchem revision = c400b04
    ga revision     = 5.8.0
    use scalapack   = T
    input           = H2-4.5.nw
    prefix          = pspw_hf_H2.
    data base       = ./pspw_hf_H2.db
    status          = startup
    nproc           =       24
    time left       =     -1s



           Memory information
           ------------------

    heap     =  157286398 doubles =   1200.0 Mbytes
    stack    =  157286395 doubles =   1200.0 Mbytes
    global   =    1310720 doubles =     10.0 Mbytes (distinct from heap & stack)
    total    =  315883513 doubles =   2410.0 Mbytes
    verify   = yes
    hardfail = no 


           Directory information
           ---------------------

  0 permanent = .
  0 scratch   = .




                                NWChem Input Module
                                -------------------


               swnc: e theory=pspw4 xc=hf formula=H2 charge=0 mult=1
               -----------------------------------------------------

 Scaling coordinates for geometry "geometry" by  1.889725989
 (inverse scale =  0.529177249)

  zeroes
  zeroes
  zeroes
  zeroes
  zeroes
  zeroes
  zeroes
  zeroes
  zeroes
  zeroes
  zeroes
  zeroes
  zeroes
  zeroes
  zeroes
  zeroes
  zeroes
  zeroes
  zeroes
  zeroes
  zeroes
  zeroes
  zeroes
  zeroes
  zeroes
  zeroes
  zeroes
  zeroes
  zeroes
  zeroes
  zeroes
  zeroes
  zeroes
  zeroes
  zeroes
  zeroes
  zeroes
  zeroes
  zeroes
  zeroes
  zeroes
  zeroes
  zeroes
  zeroes
  zeroes
  zeroes
  zeroes
  zeroes
 ORDER OF PRIMARY AXIS IS BEING SET TO 4
 D4H symmetry detected

          ------
          auto-z
          ------
     1 autoz failed with cvr_scaling = 1.2 changing to 1.3
     2 autoz failed with cvr_scaling = 1.3 changing to 1.4
     3 autoz failed with cvr_scaling = 1.4 changing to 1.5
     4 autoz failed with cvr_scaling = 1.5 changing to 1.6
     5 autoz failed with cvr_scaling = 1.6 changing to 1.7

 AUTOZ failed to generate good internal coordinates.
 Cartesian coordinates will be used in optimizations.



                             Geometry "geometry" -> ""
                             -------------------------

 Output coordinates in angstroms (scale by  1.889725989 to convert to a.u.)

  No.       Tag          Charge          X              Y              Z
 ---- ---------------- ---------- -------------- -------------- --------------
    1 H                    1.0000     0.00000000     0.00000000    -2.25000000
    2 H                    1.0000     0.00000000     0.00000000     2.25000000

      Atomic Mass 
      ----------- 

      H                  1.007825


 Effective nuclear repulsion energy (a.u.)       0.1175949442

            Nuclear Dipole moment (a.u.) 
            ----------------------------
        X                 Y               Z
 ---------------- ---------------- ----------------
     0.0000000000     0.0000000000     0.0000000000

      Symmetry information
      --------------------

 Group name             D4h       
 Group number             28
 Group order              16
 No. of unique centers     1

      Symmetry unique atoms

     1


            XYZ format geometry
            -------------------
     2
 geometry
 H                     0.00000000     0.00000000    -2.25000000
 H                     0.00000000     0.00000000     2.25000000

          ****************************************************
          *                                                  *
          *               NWPW PSPW Calculation              *
          *                                                  *
          * [ (Grassmann/Stiefel manifold implementation)  ] *
          *                                                  *
          *      [ NorthWest Chemistry implementation ]      *
          *                                                  *
          *            version #5.10   06/12/02              *
          *                                                  *
          *    This code was developed by Eric J. Bylaska,   *
          *    and was based upon algorithms and code        *
          *    developed by the group of Prof. John H. Weare *
          *                                                  *
          ****************************************************
     >>>  JOB STARTED       AT Tue Apr 22 20:43:51 2025  <<<
          ================ input data ========================

 input psi filename:./pspw_hf_H2.movecs

 number of processors used:        24
 processor grid           :  24 x   1
 parallel mapping         :2d-hilbert
 parallel mapping         :  balanced
 number of threads        :         1
 parallel io              :       off

 options:
      boundary conditions  = aperiodic   (version4)
      electron spin        = restricted
      exchange-correlation = Hartree-Fock
      - HFX relaxed
      - HFX restricted orbitals :    1
      - HFX free-space coulomb solver


 elements involved in the cluster:
      1: H   valence charge:  1.0000  lmax=  1
             comment    : Parameterized (Chem.Phys.Lett., vol 322, page 447) Hamman psp
             pseudpotential type            :   0
             highest angular component      :   1
             local potential used           :   1
             number of non-local projections:   1
             aperiodic cutoff radius        :  1.000
             cutoff =   0.800   0.800


 total charge:   0.000

 atomic composition:
     H   :    2

 number of electrons: spin up=     1 (   1 per task)  down=     1 (   1 per task) (Fourier space)
 number of orbitals : spin up=     1 (   1 per task)  down=     1 (   1 per task) (Fourier space)

 supercell:
      cell_name:  cell_default                                      
      lattice:    a1=<  20.000   0.000   0.000 >
                  a2=<   0.000  20.000   0.000 >
                  a3=<   0.000   0.000  20.000 >
      reciprocal: b1=<   0.314   0.000   0.000 >
                  b2=<   0.000   0.314   0.000 >
                  b3=<   0.000   0.000   0.314 >
      lattice:    a=      20.000 b=     20.000 c=      20.000
                  alpha=  90.000 beta=  90.000 gamma=  90.000
                  omega=      8000.0

      density cutoff=100.000  fft= 96x 96x 96(   191162 waves     7965 per task)
      wavefnc cutoff= 50.000  fft= 96x 96x 96(    67522 waves     2813 per task)

 technical parameters:
      time step=      5.80     fictitious mass=  400000.0
      tolerance=0.100E-08 (energy)   0.100E-08 (density)
      maximum iterations =      1000 (   10 inner    100 outer )





== Energy Calculation ==


          ============ Grassmann lmbfgs iteration ============
     >>>  ITERATION STARTED AT Tue Apr 22 20:43:58 2025  <<<
    iter.           Energy         DeltaE       DeltaRho 
    ------------------------------------------------------
      10   -0.7757546467E+00   -0.14535E-02    0.74168E-02
     -  10 steepest descent iterations performed
      20   -0.7801578804E+00   -0.13204E-03    0.40748E-04
      30   -0.7804474252E+00   -0.74242E-05    0.31479E-05
      40   -0.7804676288E+00   -0.40713E-06    0.15610E-06
      50   -0.7804691215E+00   -0.21682E-07    0.52307E-08
      60   -0.7804692005E+00   -0.21052E-08    0.75425E-10
      70   -0.7804692045E+00   -0.80924E-09    0.45917E-11
  *** tolerance ok. iteration terminated
     >>>  ITERATION ENDED   AT Tue Apr 22 20:44:20 2025  <<<


==  Summary Of Results  ==

 number of electrons: spin up=    1.00000  down=    1.00000 (real space)

 total     energy    :  -0.7804692045E+00 (   -0.39023E+00/ion)
 total orbital energy:  -0.5876416227E+00 (   -0.58764E+00/electron)
 hartree   energy    :   0.6208450519E+00 (    0.62085E+00/electron)
 exc-corr  energy    :   0.0000000000E+00 (    0.00000E+00/electron)
 HF exchange energy  :  -0.3104225259E+00 (   -0.31042E+00/electron)
 ion-ion   energy    :   0.1175949442E+00 (    0.58797E-01/ion)

 kinetic (planewave) :   0.6544743419E+00 (    0.65447E+00/electron)
 V_local (planewave) :  -0.1711112045E+01 (   -0.17111E+01/electron)
 V_nl    (planewave) :  -0.1518489719E+00 (   -0.15185E+00/electron)
 V_Coul  (planewave) :   0.1241690104E+01 (    0.12417E+01/electron)
 V_xc.   (planewave) :   0.0000000000E+00 (    0.00000E+00/electron)
 K.S. HFX energy     :  -0.6208450519E+00 (   -0.62085E+00/electron)
 Virial Coefficient  :  -0.9492670270E+00

 orbital energies:
    -0.2938208E+00 (  -7.995eV)


== Virtual Orbital Calculation ==


 input epsi filename:./pspw_hf_H2.emovecs

 COVOs Mimimization
 ------------------
CI gradient algorithm =         3
maxit_sweeps          =         3
maxit_orb             =       120
maxit_linesearch      =        15
maxerror              = 0.100E-08

     orb,it,eci,eold,eci-eold=                    1                    1 -0.93410626365770733      -0.91341097417502171       -2.0695289482685619E-002 F
     orb,it,eci,eold,eci-eold=                    1                    2 -0.94694378058551243      -0.93410626365770733       -1.2837516927805104E-002 F
     orb,it,eci,eold,eci-eold=                    1                    3 -0.94925260995368399      -0.94694378058551243       -2.3088293681715610E-003 F
     orb,it,eci,eold,eci-eold=                    1                    4 -0.95395623024342002      -0.94925260995368399       -4.7036202897360324E-003 F
     orb,it,eci,eold,eci-eold=                    1                    5 -0.95881273037033155      -0.95395623024342002       -4.8565001269115227E-003 F
     orb,it,eci,eold,eci-eold=                    1                    6 -0.95925539410692018      -0.95881273037033155       -4.4266373658863323E-004 F
     orb,it,eci,eold,eci-eold=                    1                    7 -0.95935197765766467      -0.95925539410692018       -9.6583550744488988E-005 F
     orb,it,eci,eold,eci-eold=                    1                    8 -0.96415358289931419      -0.95935197765766467       -4.8016052416495203E-003 F
     orb,it,eci,eold,eci-eold=                    1                    9 -0.96628408498903884      -0.96415358289931419       -2.1305020897246507E-003 F
     orb,it,eci,eold,eci-eold=                    1                   10 -0.96721064312249427      -0.96628408498903884       -9.2655813345543514E-004 F
     orb,it,eci,eold,eci-eold=                    1                   11 -0.96721480701679718      -0.96721064312249427       -4.1638943029109754E-006 F
     orb,it,eci,eold,eci-eold=                    1                   12 -0.96816416663141325      -0.96721480701679718       -9.4935961461606322E-004 F
     orb,it,eci,eold,eci-eold=                    1                   13 -0.96956413877725245      -0.96816416663141325       -1.3999721458392012E-003 F
     orb,it,eci,eold,eci-eold=                    1                   14 -0.97017191232973077      -0.96956413877725245       -6.0777355247831899E-004 F
     orb,it,eci,eold,eci-eold=                    1                   15 -0.97100844232482841      -0.97017191232973077       -8.3652999509764570E-004 F
     orb,it,eci,eold,eci-eold=                    1                   16 -0.97119538993192545      -0.97100844232482841       -1.8694760709703218E-004 F
     orb,it,eci,eold,eci-eold=                    1                   17 -0.97123494879063332      -0.97119538993192545       -3.9558858707877675E-005 F
     orb,it,eci,eold,eci-eold=                    1                   18 -0.97174219908587844      -0.97123494879063332       -5.0725029524512077E-004 F
     orb,it,eci,eold,eci-eold=                    1                   19 -0.97246415990918167      -0.97174219908587844       -7.2196082330322486E-004 F
     orb,it,eci,eold,eci-eold=                    1                   20 -0.97274921380709589      -0.97246415990918167       -2.8505389791422253E-004 F
     orb,it,eci,eold,eci-eold=                    1                   21 -0.97339058076386786      -0.97274921380709589       -6.4136695677197153E-004 F
     orb,it,eci,eold,eci-eold=                    1                   22 -0.97390674468870531      -0.97339058076386786       -5.1616392483744278E-004 F
     orb,it,eci,eold,eci-eold=                    1                   23 -0.97424738402557343      -0.97390674468870531       -3.4063933686812042E-004 F
     orb,it,eci,eold,eci-eold=                    1                   24 -0.97457151106721329      -0.97424738402557343       -3.2412704163986561E-004 F
     orb,it,eci,eold,eci-eold=                    1                   25 -0.97472175028542318      -0.97457151106721329       -1.5023921820989106E-004 F
     orb,it,eci,eold,eci-eold=                    1                   26 -0.97512370985313179      -0.97472175028542318       -4.0195956770860963E-004 F
     orb,it,eci,eold,eci-eold=                    1                   27 -0.97528130910784605      -0.97512370985313179       -1.5759925471425795E-004 F
     orb,it,eci,eold,eci-eold=                    1                   28 -0.97539874796865056      -0.97528130910784605       -1.1743886080450849E-004 F
     orb,it,eci,eold,eci-eold=                    1                   29 -0.97574262581205451      -0.97539874796865056       -3.4387784340395022E-004 F
     orb,it,eci,eold,eci-eold=                    1                   30 -0.97574444168825281      -0.97574262581205451       -1.8158761982967064E-006 F
     orb,it,eci,eold,eci-eold=                    1                   31 -0.97577201669205271      -0.97574444168825281       -2.7575003799906739E-005 F
     orb,it,eci,eold,eci-eold=                    1                   32 -0.97607422136108513      -0.97577201669205271       -3.0220466903241316E-004 F
     orb,it,eci,eold,eci-eold=                    1                   33 -0.97612032435974627      -0.97607422136108513       -4.6102998661146088E-005 F
     orb,it,eci,eold,eci-eold=                    1                   34 -0.97615917133215324      -0.97612032435974627       -3.8846972406969549E-005 F
     orb,it,eci,eold,eci-eold=                    1                   35 -0.97641974766386730      -0.97615917133215324       -2.6057633171405747E-004 F
     orb,it,eci,eold,eci-eold=                    1                   36 -0.97644998878518019      -0.97641974766386730       -3.0241121312890584E-005 F
     orb,it,eci,eold,eci-eold=                    1                   37 -0.97645437937802071      -0.97644998878518019       -4.3905928405196804E-006 F
     orb,it,eci,eold,eci-eold=                    1                   38 -0.97665337125280705      -0.97645437937802071       -1.9899187478633618E-004 F
     orb,it,eci,eold,eci-eold=                    1                   39 -0.97669020094394976      -0.97665337125280705       -3.6829691142714616E-005 F
     orb,it,eci,eold,eci-eold=                    1                   40 -0.97670226914641545      -0.97669020094394976       -1.2068202465687072E-005 F
     orb,it,eci,eold,eci-eold=                    1                   41 -0.97691361045039027      -0.97670226914641545       -2.1134130397482132E-004 F
     orb,it,eci,eold,eci-eold=                    1                   42 -0.97691910155639217      -0.97691361045039027       -5.4911060018980606E-006 F
     orb,it,eci,eold,eci-eold=                    1                   43 -0.97691945625337095      -0.97691910155639217       -3.5469697878820483E-007 F
     orb,it,eci,eold,eci-eold=                    1                   44 -0.97706122487850966      -0.97691945625337095       -1.4176862513870514E-004 F
     orb,it,eci,eold,eci-eold=                    1                   45 -0.97711917914471846      -0.97706122487850966       -5.7954266208803951E-005 F
     orb,it,eci,eold,eci-eold=                    1                   46 -0.97718861395554457      -0.97711917914471846       -6.9434810826107807E-005 F
     orb,it,eci,eold,eci-eold=                    1                   47 -0.97723717501639473      -0.97718861395554457       -4.8561060850160764E-005 F
     orb,it,eci,eold,eci-eold=                    1                   48 -0.97731839325930081      -0.97723717501639473       -8.1218242906078153E-005 F
     orb,it,eci,eold,eci-eold=                    1                   49 -0.97732289793602312      -0.97731839325930081       -4.5046767223055895E-006 F
     orb,it,eci,eold,eci-eold=                    1                   50 -0.97733711794900546      -0.97732289793602312       -1.4220012982346653E-005 F
     orb,it,eci,eold,eci-eold=                    1                   51 -0.97740422866996224      -0.97733711794900546       -6.7110720956775616E-005 F
     orb,it,eci,eold,eci-eold=                    1                   52 -0.97741323025322135      -0.97740422866996224       -9.0015832591161526E-006 F
     orb,it,eci,eold,eci-eold=                    1                   53 -0.97741333618530846      -0.97741323025322135       -1.0593208710218960E-007 F
     orb,it,eci,eold,eci-eold=                    1                   54 -0.97746247907148220      -0.97741333618530846       -4.9142886173747513E-005 F
     orb,it,eci,eold,eci-eold=                    1                   55 -0.97748693566573963      -0.97746247907148220       -2.4456594257427078E-005 F
     orb,it,eci,eold,eci-eold=                    1                   56 -0.97749252348849547      -0.97748693566573963       -5.5878227558370241E-006 F
     orb,it,eci,eold,eci-eold=                    1                   57 -0.97753987011096133      -0.97749252348849547       -4.7346622465860300E-005 F
     orb,it,eci,eold,eci-eold=                    1                   58 -0.97756631591723697      -0.97753987011096133       -2.6445806275643413E-005 F
     orb,it,eci,eold,eci-eold=                    1                   59 -0.97757323791631157      -0.97756631591723697       -6.9219990745938986E-006 F
     orb,it,eci,eold,eci-eold=                    1                   60 -0.97761110696687592      -0.97757323791631157       -3.7869050564354190E-005 F
     orb,it,eci,eold,eci-eold=                    1                   61 -0.97762166082296087      -0.97761110696687592       -1.0553856084949409E-005 F
     orb,it,eci,eold,eci-eold=                    1                   62 -0.97762267988919160      -0.97762166082296087       -1.0190662307341114E-006 F
     orb,it,eci,eold,eci-eold=                    1                   63 -0.97765410600647118      -0.97762267988919160       -3.1426117279576005E-005 F
     orb,it,eci,eold,eci-eold=                    1                   64 -0.97768246968304218      -0.97765410600647118       -2.8363676570997143E-005 F
     orb,it,eci,eold,eci-eold=                    1                   65 -0.97769447048521974      -0.97768246968304218       -1.2000802177558612E-005 F
     orb,it,eci,eold,eci-eold=                    1                   66 -0.97771864433227051      -0.97769447048521974       -2.4173847050779074E-005 F
     orb,it,eci,eold,eci-eold=                    1                   67 -0.97773472348132828      -0.97771864433227051       -1.6079149057768305E-005 F
     orb,it,eci,eold,eci-eold=                    1                   68 -0.97775558836485721      -0.97773472348132828       -2.0864883528926015E-005 F
     orb,it,eci,eold,eci-eold=                    1                   69 -0.97776735383180102      -0.97775558836485721       -1.1765466943813863E-005 F
     orb,it,eci,eold,eci-eold=                    1                   70 -0.97778667452920132      -0.97776735383180102       -1.9320697400293518E-005 F
     orb,it,eci,eold,eci-eold=                    1                   71 -0.97778766868167200      -0.97778667452920132       -9.9415247067913270E-007 F
     orb,it,eci,eold,eci-eold=                    1                   72 -0.97778980908706992      -0.97778766868167200       -2.1404053979212634E-006 F
     orb,it,eci,eold,eci-eold=                    1                   73 -0.97780340644969299      -0.97778980908706992       -1.3597362623074538E-005 F
     orb,it,eci,eold,eci-eold=                    1                   74 -0.97780522440139672      -0.97780340644969299       -1.8179517037308912E-006 F
     orb,it,eci,eold,eci-eold=                    1                   75 -0.97780630540645463      -0.97780522440139672       -1.0810050579124209E-006 F
     orb,it,eci,eold,eci-eold=                    1                   76 -0.97782099672032685      -0.97780630540645463       -1.4691313872217115E-005 F
     orb,it,eci,eold,eci-eold=                    1                   77 -0.97782221312590045      -0.97782099672032685       -1.2164055736008095E-006 F
     orb,it,eci,eold,eci-eold=                    1                   78 -0.97782276702296844      -0.97782221312590045       -5.5389706798969485E-007 F
     orb,it,eci,eold,eci-eold=                    1                   79 -0.97783601497902151      -0.97782276702296844       -1.3247956053064058E-005 F
     orb,it,eci,eold,eci-eold=                    1                   80 -0.97783696226486605      -0.97783601497902151       -9.4728584454362164E-007 F
     orb,it,eci,eold,eci-eold=                    1                   81 -0.97783703973267966      -0.97783696226486605       -7.7467813608400604E-008 F
     orb,it,eci,eold,eci-eold=                    1                   82 -0.97784733102208543      -0.97783703973267966       -1.0291289405772730E-005 F
     orb,it,eci,eold,eci-eold=                    1                   83 -0.97784984558360988      -0.97784733102208543       -2.5145615244470676E-006 F
     orb,it,eci,eold,eci-eold=                    1                   84 -0.97785041863664102      -0.97784984558360988       -5.7305303113874828E-007 F
     orb,it,eci,eold,eci-eold=                    1                   85 -0.97785862823802416      -0.97785041863664102       -8.2096013831467474E-006 F
     orb,it,eci,eold,eci-eold=                    1                   86 -0.97785907888228829      -0.97785862823802416       -4.5064426412722014E-007 F
     orb,it,eci,eold,eci-eold=                    1                   87 -0.97785928273154410      -0.97785907888228829       -2.0384925580874125E-007 F
     orb,it,eci,eold,eci-eold=                    1                   88 -0.97786548738264489      -0.97785928273154410       -6.2046511007940452E-006 F
     orb,it,eci,eold,eci-eold=                    1                   89 -0.97786641896140436      -0.97786548738264489       -9.3157875946658919E-007 F
     orb,it,eci,eold,eci-eold=                    1                   90 -0.97786663815122987      -0.97786641896140436       -2.1918982551216715E-007 F
     orb,it,eci,eold,eci-eold=                    1                   91 -0.97787208680491178      -0.97786663815122987       -5.4486536819053910E-006 F
     orb,it,eci,eold,eci-eold=                    1                   92 -0.97787351601523698      -0.97787208680491178       -1.4292103251989374E-006 F
     orb,it,eci,eold,eci-eold=                    1                   93 -0.97787387933958003      -0.97787351601523698       -3.6332434305563766E-007 F
     orb,it,eci,eold,eci-eold=                    1                   94 -0.97787897599876961      -0.97787387933958003       -5.0966591895740265E-006 F
     orb,it,eci,eold,eci-eold=                    1                   95 -0.97788205151232044      -0.97787897599876961       -3.0755135508320208E-006 F
     orb,it,eci,eold,eci-eold=                    1                   96 -0.97788378312270252      -0.97788205151232044       -1.7316103820830264E-006 F
     orb,it,eci,eold,eci-eold=                    1                   97 -0.97788429253788367      -0.97788378312270252       -5.0941518114910878E-007 F
     orb,it,eci,eold,eci-eold=                    1                   98 -0.97788651272825367      -0.97788429253788367       -2.2201903699947678E-006 F
     orb,it,eci,eold,eci-eold=                    1                   99 -0.97788704367068890      -0.97788651272825367       -5.3094243523954532E-007 F
     orb,it,eci,eold,eci-eold=                    1                  100 -0.97788711544355944      -0.97788704367068890       -7.1772870535724564E-008 F
     orb,it,eci,eold,eci-eold=                    1                  101 -0.97788885017851379      -0.97788711544355944       -1.7347349543506141E-006 F
     orb,it,eci,eold,eci-eold=                    1                  102 -0.97788990661281328      -0.97788885017851379       -1.0564342994845433E-006 F
     orb,it,eci,eold,eci-eold=                    1                  103 -0.97789022537682169      -0.97788990661281328       -3.1876400841124308E-007 F
     orb,it,eci,eold,eci-eold=                    1                  104 -0.97789172204516372      -0.97789022537682169       -1.4966683420380988E-006 F
     orb,it,eci,eold,eci-eold=                    1                  105 -0.97789228537805373      -0.97789172204516372       -5.6333289000232156E-007 F
     orb,it,eci,eold,eci-eold=                    1                  106 -0.97789245421402760      -0.97789228537805373       -1.6883597386829763E-007 F
     orb,it,eci,eold,eci-eold=                    1                  107 -0.97789368488723105      -0.97789245421402760       -1.2306732034561563E-006 F
     orb,it,eci,eold,eci-eold=                    1                  108 -0.97789441780967079      -0.97789368488723105       -7.3292243973899218E-007 F
     orb,it,eci,eold,eci-eold=                    1                  109 -0.97789472972777103      -0.97789441780967079       -3.1191810023756261E-007 F
     orb,it,eci,eold,eci-eold=                    1                  110 -0.97789582769196903      -0.97789472972777103       -1.0979641980046750E-006 F
     orb,it,eci,eold,eci-eold=                    1                  111 -0.97789608128269645      -0.97789582769196903       -2.5359072741704125E-007 F
     orb,it,eci,eold,eci-eold=                    1                  112 -0.97789615448390266      -0.97789608128269645       -7.3201206207684777E-008 F
     orb,it,eci,eold,eci-eold=                    1                  113 -0.97789699743561420      -0.97789615448390266       -8.4295171154380455E-007 F
     orb,it,eci,eold,eci-eold=                    1                  114 -0.97789738267538862      -0.97789699743561420       -3.8523977441418111E-007 F
     orb,it,eci,eold,eci-eold=                    1                  115 -0.97789749122802538      -0.97789738267538862       -1.0855263676834426E-007 F
     orb,it,eci,eold,eci-eold=                    1                  116 -0.97789824268699499      -0.97789749122802538       -7.5145896960560066E-007 F
     orb,it,eci,eold,eci-eold=                    1                  117 -0.97789864258059966      -0.97789824268699499       -3.9989360467451718E-007 F
     orb,it,eci,eold,eci-eold=                    1                  118 -0.97789876458672176      -0.97789864258059966       -1.2200612209412043E-007 F
     orb,it,eci,eold,eci-eold=                    1                  119 -0.97789931353962356      -0.97789876458672176       -5.4895290180212442E-007 F
     orb,it,eci,eold,eci-eold=                    1                  120 -0.97789945659305910      -0.97789931353962356       -1.4305343554177341E-007 F
     orb,it,eci,eold,eci-eold=                    1                  121 -0.97789951030601452      -0.97789945659305910       -5.3712955416784780E-008 F
     orbital   1 current e= -0.161841E+00 error=0.614E-01 (eci= -0.977899510E+00 error=0.537E-07) iterations 121(   0 preconditioned, Ep,Sp= 20.0  200.0)
     orb,it,eci,eold,eci-eold=                    1                    1 -0.97790103950163387      -0.97789951030601452       -1.5291956193541623E-006 F
     orb,it,eci,eold,eci-eold=                    1                    2 -0.97790169925169801      -0.97790103950163387       -6.5975006413587778E-007 F
     orb,it,eci,eold,eci-eold=                    1                    3 -0.97790183111988205      -0.97790169925169801       -1.3186818403898570E-007 F
     orb,it,eci,eold,eci-eold=                    1                    4 -0.97790238076848013      -0.97790183111988205       -5.4964859808048772E-007 F
     orb,it,eci,eold,eci-eold=                    1                    5 -0.97790262806779527      -0.97790238076848013       -2.4729931513700620E-007 F
     orb,it,eci,eold,eci-eold=                    1                    6 -0.97790270538366242      -0.97790262806779527       -7.7315867152982776E-008 F
     orb,it,eci,eold,eci-eold=                    1                    7 -0.97790313102753879      -0.97790270538366242       -4.2564387636723211E-007 F
     orb,it,eci,eold,eci-eold=                    1                    8 -0.97790334152473901      -0.97790313102753879       -2.1049720022592311E-007 F
     orb,it,eci,eold,eci-eold=                    1                    9 -0.97790344198864709      -0.97790334152473901       -1.0046390808149397E-007 F
     orb,it,eci,eold,eci-eold=                    1                   10 -0.97790350107238821      -0.97790344198864709       -5.9083741121845890E-008 F
     orb,it,eci,eold,eci-eold=                    1                   11 -0.97790359527418858      -0.97790350107238821       -9.4201800360238508E-008 F
     orb,it,eci,eold,eci-eold=                    1                   12 -0.97790364124243545      -0.97790359527418858       -4.5968246875638386E-008 F
     orb,it,eci,eold,eci-eold=                    1                   13 -0.97790369128904142      -0.97790364124243545       -5.0046605970521796E-008 F
     orb,it,eci,eold,eci-eold=                    1                   14 -0.97790369874792094      -0.97790369128904142       -7.4588795140329012E-009 F
     orb,it,eci,eold,eci-eold=                    1                   15 -0.97790372202219511      -0.97790369874792094       -2.3274274174589493E-008 F
     orb,it,eci,eold,eci-eold=                    1                   16 -0.97790373928732843      -0.97790372202219511       -1.7265133323007831E-008 F
     orb,it,eci,eold,eci-eold=                    1                   17 -0.97790375027740750      -0.97790373928732843       -1.0990079069017611E-008 F
     orb,it,eci,eold,eci-eold=                    1                   18 -0.97790378370924413      -0.97790375027740750       -3.3431836632402678E-008 F
     orb,it,eci,eold,eci-eold=                    1                   19 -0.97790378414124435      -0.97790378370924413       -4.3200021337952421E-010 F
     orbital   1 current e= -0.161838E+00 error=0.311E-05 (eci= -0.977903784E+00 error=0.432E-09) iterations  19(   0 preconditioned, Ep,Sp= 20.0  200.0)
     orb,it,eci,eold,eci-eold=                    1                    1 -0.97790382580076551      -0.97790378414124435       -4.1659521166081959E-008 F
     orb,it,eci,eold,eci-eold=                    1                    2 -0.97790382671502396      -0.97790382580076551       -9.1425844672698986E-010 F
     orbital   1 current e= -0.161838E+00 error=0.174E-06 (eci= -0.977903827E+00 error=0.914E-09) iterations   2(   0 preconditioned, Ep,Sp= 20.0  200.0)
     orb,it,eci,eold,eci-eold=                    2                    1 -0.78394132505918090      -0.78346867380081919       -4.7265125836171151E-004 F
     orb,it,eci,eold,eci-eold=                    2                    2 -0.78394892239705682      -0.78394132505918090       -7.5973378759197630E-006 F
     orb,it,eci,eold,eci-eold=                    2                    3 -0.78396263965868995      -0.78394892239705682       -1.3717261633128253E-005 F
     orb,it,eci,eold,eci-eold=                    2                    4 -0.78407508018770611      -0.78396263965868995       -1.1244052901615564E-004 F
     orb,it,eci,eold,eci-eold=                    2                    5 -0.78416961131656293      -0.78407508018770611       -9.4531128856822910E-005 F
     orb,it,eci,eold,eci-eold=                    2                    6 -0.78417731246032085      -0.78416961131656293       -7.7011437579210806E-006 F
     orb,it,eci,eold,eci-eold=                    2                    7 -0.78418017656134720      -0.78417731246032085       -2.8641010263452671E-006 F
     orb,it,eci,eold,eci-eold=                    2                    8 -0.78422669464258554      -0.78418017656134720       -4.6518081238344777E-005 F
     orb,it,eci,eold,eci-eold=                    2                    9 -0.78428622316315266      -0.78422669464258554       -5.9528520567120324E-005 F
     orb,it,eci,eold,eci-eold=                    2                   10 -0.78433731291154718      -0.78428622316315266       -5.1089748394517187E-005 F
     orb,it,eci,eold,eci-eold=                    2                   11 -0.78435525307855292      -0.78433731291154718       -1.7940167005736640E-005 F
     orb,it,eci,eold,eci-eold=                    2                   12 -0.78436526834660536      -0.78435525307855292       -1.0015268052443460E-005 F
     orb,it,eci,eold,eci-eold=                    2                   13 -0.78443236036127628      -0.78436526834660536       -6.7092014670921962E-005 F
     orb,it,eci,eold,eci-eold=                    2                   14 -0.78447205278413890      -0.78443236036127628       -3.9692422862613874E-005 F
     orb,it,eci,eold,eci-eold=                    2                   15 -0.78449392566842180      -0.78447205278413890       -2.1872884282903016E-005 F
     orb,it,eci,eold,eci-eold=                    2                   16 -0.78450569732715136      -0.78449392566842180       -1.1771658729564649E-005 F
     orb,it,eci,eold,eci-eold=                    2                   17 -0.78454155746115506      -0.78450569732715136       -3.5860134003695698E-005 F
     orb,it,eci,eold,eci-eold=                    2                   18 -0.78456179083670685      -0.78454155746115506       -2.0233375551792498E-005 F
     orb,it,eci,eold,eci-eold=                    2                   19 -0.78457314278456081      -0.78456179083670685       -1.1351947853954769E-005 F
     orb,it,eci,eold,eci-eold=                    2                   20 -0.78457845209481203      -0.78457314278456081       -5.3093102512224988E-006 F
     orb,it,eci,eold,eci-eold=                    2                   21 -0.78460035847015619      -0.78457845209481203       -2.1906375344160622E-005 F
     orb,it,eci,eold,eci-eold=                    2                   22 -0.78460157262366526      -0.78460035847015619       -1.2141535090659517E-006 F
     orb,it,eci,eold,eci-eold=                    2                   23 -0.78460167222423616      -0.78460157262366526       -9.9600570901969832E-008 F
     orb,it,eci,eold,eci-eold=                    2                   24 -0.78461544616057632      -0.78460167222423616       -1.3773936340166770E-005 F
     orb,it,eci,eold,eci-eold=                    2                   25 -0.78461982637329319      -0.78461544616057632       -4.3802127168701688E-006 F
     orb,it,eci,eold,eci-eold=                    2                   26 -0.78462122833034853      -0.78461982637329319       -1.4019570553358562E-006 F
     orb,it,eci,eold,eci-eold=                    2                   27 -0.78463084026977614      -0.78462122833034853       -9.6119394276117376E-006 F
     orb,it,eci,eold,eci-eold=                    2                   28 -0.78463167996489513      -0.78463084026977614       -8.3969511899262272E-007 F
     orb,it,eci,eold,eci-eold=                    2                   29 -0.78463226274723230      -0.78463167996489513       -5.8278233716624328E-007 F
     orb,it,eci,eold,eci-eold=                    2                   30 -0.78464241161229897      -0.78463226274723230       -1.0148865066672563E-005 F
     orb,it,eci,eold,eci-eold=                    2                   31 -0.78464853525932088      -0.78464241161229897       -6.1236470219050432E-006 F
     orb,it,eci,eold,eci-eold=                    2                   32 -0.78465294552537068      -0.78464853525932088       -4.4102660498035462E-006 F
     orb,it,eci,eold,eci-eold=                    2                   33 -0.78465487730979566      -0.78465294552537068       -1.9317844249799876E-006 F
     orb,it,eci,eold,eci-eold=                    2                   34 -0.78465938344436603      -0.78465487730979566       -4.5061345703700795E-006 F
     orb,it,eci,eold,eci-eold=                    2                   35 -0.78466195206324219      -0.78465938344436603       -2.5686188761531170E-006 F
     orb,it,eci,eold,eci-eold=                    2                   36 -0.78466421063711145      -0.78466195206324219       -2.2585738692626478E-006 F
     orb,it,eci,eold,eci-eold=                    2                   37 -0.78466545787030584      -0.78466421063711145       -1.2472331943902404E-006 F
     orb,it,eci,eold,eci-eold=                    2                   38 -0.78466850237083396      -0.78466545787030584       -3.0445005281265480E-006 F
     orb,it,eci,eold,eci-eold=                    2                   39 -0.78466925583863456      -0.78466850237083396       -7.5346780059604157E-007 F
     orb,it,eci,eold,eci-eold=                    2                   40 -0.78466956229421614      -0.78466925583863456       -3.0645558157793573E-007 F
     orb,it,eci,eold,eci-eold=                    2                   41 -0.78467137494748951      -0.78466956229421614       -1.8126532733697687E-006 F
     orb,it,eci,eold,eci-eold=                    2                   42 -0.78467149328108166      -0.78467137494748951       -1.1833359214730166E-007 F
     orb,it,eci,eold,eci-eold=                    2                   43 -0.78467165738230293      -0.78467149328108166       -1.6410122127830107E-007 F
     orb,it,eci,eold,eci-eold=                    2                   44 -0.78467422969141187      -0.78467165738230293       -2.5723091089391303E-006 F
     orb,it,eci,eold,eci-eold=                    2                   45 -0.78467498439707195      -0.78467422969141187       -7.5470566007762585E-007 F
     orb,it,eci,eold,eci-eold=                    2                   46 -0.78467517955486454      -0.78467498439707195       -1.9515779259293708E-007 F
     orb,it,eci,eold,eci-eold=                    2                   47 -0.78467691184205113      -0.78467517955486454       -1.7322871865843581E-006 F
     orb,it,eci,eold,eci-eold=                    2                   48 -0.78467775028336595      -0.78467691184205113       -8.3844131482102568E-007 F
     orb,it,eci,eold,eci-eold=                    2                   49 -0.78467862682317802      -0.78467775028336595       -8.7653981206692322E-007 F
     orb,it,eci,eold,eci-eold=                    2                   50 -0.78467873537292365      -0.78467862682317802       -1.0854974563656583E-007 F
     orb,it,eci,eold,eci-eold=                    2                   51 -0.78467909846417827      -0.78467873537292365       -3.6309125461819747E-007 F
     orb,it,eci,eold,eci-eold=                    2                   52 -0.78468008493890595      -0.78467909846417827       -9.8647472768220723E-007 F
     orb,it,eci,eold,eci-eold=                    2                   53 -0.78468066962979877      -0.78468008493890595       -5.8469089281310005E-007 F
     orb,it,eci,eold,eci-eold=                    2                   54 -0.78468128921072067      -0.78468066962979877       -6.1958092190117497E-007 F
     orb,it,eci,eold,eci-eold=                    2                   55 -0.78468161691065541      -0.78468128921072067       -3.2769993474346393E-007 F
     orb,it,eci,eold,eci-eold=                    2                   56 -0.78468226279330056      -0.78468161691065541       -6.4588264514497951E-007 F
     orb,it,eci,eold,eci-eold=                    2                   57 -0.78468236601057129      -0.78468226279330056       -1.0321727073048237E-007 F
     orb,it,eci,eold,eci-eold=                    2                   58 -0.78468242294137769      -0.78468236601057129       -5.6930806402455403E-008 F
     orb,it,eci,eold,eci-eold=                    2                   59 -0.78468282287591984      -0.78468242294137769       -3.9993454215014879E-007 F
     orb,it,eci,eold,eci-eold=                    2                   60 -0.78468290052023648      -0.78468282287591984       -7.7644316642810907E-008 F
     orb,it,eci,eold,eci-eold=                    2                   61 -0.78468291294179415      -0.78468290052023648       -1.2421557671338235E-008 F
     orb,it,eci,eold,eci-eold=                    2                   62 -0.78468329173732565      -0.78468291294179415       -3.7879553149711143E-007 F
     orb,it,eci,eold,eci-eold=                    2                   63 -0.78468361775832340      -0.78468329173732565       -3.2602099775402849E-007 F
     orb,it,eci,eold,eci-eold=                    2                   64 -0.78468371759897759      -0.78468361775832340       -9.9840654188554367E-008 F
     orb,it,eci,eold,eci-eold=                    2                   65 -0.78468396731469459      -0.78468371759897759       -2.4971571699339279E-007 F
     orb,it,eci,eold,eci-eold=                    2                   66 -0.78468403808997522      -0.78468396731469459       -7.0775280636148352E-008 F
     orb,it,eci,eold,eci-eold=                    2                   67 -0.78468409212336154      -0.78468403808997522       -5.4033386320817556E-008 F
     orb,it,eci,eold,eci-eold=                    2                   68 -0.78468432297168866      -0.78468409212336154       -2.3084832712072512E-007 F
     orb,it,eci,eold,eci-eold=                    2                   69 -0.78468441108577580      -0.78468432297168866       -8.8114087137824981E-008 F
     orb,it,eci,eold,eci-eold=                    2                   70 -0.78468445353273442      -0.78468441108577580       -4.2446958614661412E-008 F
     orb,it,eci,eold,eci-eold=                    2                   71 -0.78468466796652514      -0.78468445353273442       -2.1443379072394464E-007 F
     orb,it,eci,eold,eci-eold=                    2                   72 -0.78468475399700655      -0.78468466796652514       -8.6030481405430237E-008 F
     orb,it,eci,eold,eci-eold=                    2                   73 -0.78468477307733897      -0.78468475399700655       -1.9080332425147617E-008 F
     orb,it,eci,eold,eci-eold=                    2                   74 -0.78468492460079520      -0.78468477307733897       -1.5152345622659880E-007 F
     orb,it,eci,eold,eci-eold=                    2                   75 -0.78468501705615212      -0.78468492460079520       -9.2455356925924548E-008 F
     orb,it,eci,eold,eci-eold=                    2                   76 -0.78468505743402772      -0.78468501705615212       -4.0377875598629487E-008 F
     orb,it,eci,eold,eci-eold=                    2                   77 -0.78468519979242668      -0.78468505743402772       -1.4235839895793134E-007 F
     orb,it,eci,eold,eci-eold=                    2                   78 -0.78468525616063256      -0.78468519979242668       -5.6368205880730216E-008 F
     orb,it,eci,eold,eci-eold=                    2                   79 -0.78468527854115400      -0.78468525616063256       -2.2380521436105028E-008 F
     orb,it,eci,eold,eci-eold=                    2                   80 -0.78468538699537782      -0.78468527854115400       -1.0845422382388392E-007 F
     orb,it,eci,eold,eci-eold=                    2                   81 -0.78468542946070030      -0.78468538699537782       -4.2465322480644829E-008 F
     orb,it,eci,eold,eci-eold=                    2                   82 -0.78468544622426117      -0.78468542946070030       -1.6763560872767869E-008 F
     orb,it,eci,eold,eci-eold=                    2                   83 -0.78468554011397496      -0.78468544622426117       -9.3889713781436512E-008 F
     orb,it,eci,eold,eci-eold=                    2                   84 -0.78468558578388103      -0.78468554011397496       -4.5669906079126577E-008 F
     orb,it,eci,eold,eci-eold=                    2                   85 -0.78468560120638364      -0.78468558578388103       -1.5422502608331001E-008 F
     orb,it,eci,eold,eci-eold=                    2                   86 -0.78468567372787723      -0.78468560120638364       -7.2521493588162400E-008 F
     orb,it,eci,eold,eci-eold=                    2                   87 -0.78468570471845500      -0.78468567372787723       -3.0990577770673156E-008 F
     orb,it,eci,eold,eci-eold=                    2                   88 -0.78468571712445900      -0.78468570471845500       -1.2406004001874749E-008 F
     orb,it,eci,eold,eci-eold=                    2                   89 -0.78468577696869946      -0.78468571712445900       -5.9844240452022746E-008 F
     orb,it,eci,eold,eci-eold=                    2                   90 -0.78468580197337268      -0.78468577696869946       -2.5004673220863083E-008 F
     orb,it,eci,eold,eci-eold=                    2                   91 -0.78468581228136214      -0.78468580197337268       -1.0307989461999512E-008 F
     orb,it,eci,eold,eci-eold=                    2                   92 -0.78468586776205473      -0.78468581228136214       -5.5480692595644143E-008 F
     orb,it,eci,eold,eci-eold=                    2                   93 -0.78468589532342947      -0.78468586776205473       -2.7561374738027666E-008 F
     orb,it,eci,eold,eci-eold=                    2                   94 -0.78468590169968921      -0.78468589532342947       -6.3762597424243950E-009 F
     orb,it,eci,eold,eci-eold=                    2                   95 -0.78468593295499600      -0.78468590169968921       -3.1255306787159043E-008 F
     orb,it,eci,eold,eci-eold=                    2                   96 -0.78468594659117830      -0.78468593295499600       -1.3636182294440857E-008 F
     orb,it,eci,eold,eci-eold=                    2                   97 -0.78468595649109274      -0.78468594659117830       -9.8999144437783571E-009 F
     orb,it,eci,eold,eci-eold=                    2                   98 -0.78468599431923436      -0.78468595649109274       -3.7828141619122846E-008 F
     orb,it,eci,eold,eci-eold=                    2                   99 -0.78468600627277130      -0.78468599431923436       -1.1953536938058562E-008 F
     orb,it,eci,eold,eci-eold=                    2                  100 -0.78468600867735738      -0.78468600627277130       -2.4045860858024071E-009 F
     orb,it,eci,eold,eci-eold=                    2                  101 -0.78468603443060225      -0.78468600867735738       -2.5753244869974878E-008 F
     orb,it,eci,eold,eci-eold=                    2                  102 -0.78468605027764848      -0.78468603443060225       -1.5847046230810236E-008 F
     orb,it,eci,eold,eci-eold=                    2                  103 -0.78468605678265035      -0.78468605027764848       -6.5050018704937429E-009 F
     orb,it,eci,eold,eci-eold=                    2                  104 -0.78468608214888458      -0.78468605678265035       -2.5366234224222239E-008 F
     orb,it,eci,eold,eci-eold=                    2                  105 -0.78468609503935105      -0.78468608214888458       -1.2890466472015305E-008 F
     orb,it,eci,eold,eci-eold=                    2                  106 -0.78468609998584804      -0.78468609503935105       -4.9464969897883293E-009 F
     orb,it,eci,eold,eci-eold=                    2                  107 -0.78468611821097389      -0.78468609998584804       -1.8225125852922019E-008 F
     orb,it,eci,eold,eci-eold=                    2                  108 -0.78468612441235686      -0.78468611821097389       -6.2013829627005634E-009 F
     orb,it,eci,eold,eci-eold=                    2                  109 -0.78468612782489988      -0.78468612441235686       -3.4125430259379641E-009 F
     orb,it,eci,eold,eci-eold=                    2                  110 -0.78468614506395018      -0.78468612782489988       -1.7239050298378800E-008 F
     orb,it,eci,eold,eci-eold=                    2                  111 -0.78468615123611574      -0.78468614506395018       -6.1721655564284106E-009 F
     orb,it,eci,eold,eci-eold=                    2                  112 -0.78468615250615592      -0.78468615123611574       -1.2700401841314601E-009 F
     orb,it,eci,eold,eci-eold=                    2                  113 -0.78468616474187514      -0.78468615250615592       -1.2235719215603069E-008 F
     orb,it,eci,eold,eci-eold=                    2                  114 -0.78468617163863641      -0.78468616474187514       -6.8967612731896111E-009 F
     orb,it,eci,eold,eci-eold=                    2                  115 -0.78468617404455721      -0.78468617163863641       -2.4059207959226114E-009 F
     orb,it,eci,eold,eci-eold=                    2                  116 -0.78468618387214006      -0.78468617404455721       -9.8275828586125158E-009 F
     orb,it,eci,eold,eci-eold=                    2                  117 -0.78468618826443481      -0.78468618387214006       -4.3922947501329190E-009 F
     orb,it,eci,eold,eci-eold=                    2                  118 -0.78468619048116695      -0.78468618826443481       -2.2167321311883370E-009 F
     orb,it,eci,eold,eci-eold=                    2                  119 -0.78468619942302253      -0.78468619048116695       -8.9418555893061580E-009 F
     orb,it,eci,eold,eci-eold=                    2                  120 -0.78468620232746933      -0.78468619942302253       -2.9044467941830021E-009 F
     orb,it,eci,eold,eci-eold=                    2                  121 -0.78468620318315463      -0.78468620232746933       -8.5568530039381585E-010 F
     orbital   2 current e=  0.348193E+00 error=0.115E+00 (eci= -0.784686203E+00 error=0.856E-09) iterations 121(   0 preconditioned, Ep,Sp= 20.0  200.0)
     orb,it,eci,eold,eci-eold=                    2                    1 -0.78468620574857662      -0.78468620318315463       -2.5654219859561067E-009 F
     orb,it,eci,eold,eci-eold=                    2                    2 -0.78468620574857662      -0.78468620574857662        0.0000000000000000      F
     orbital   2 current e=  0.348205E+00 error=0.118E-04 (eci= -0.784686206E+00 error=0.000E+00) iterations   2(   0 preconditioned, Ep,Sp= 20.0  200.0)
     orb,it,eci,eold,eci-eold=                    2                    1 -0.78468620994451821      -0.78468620556619839       -4.3783198178104499E-009 F
     orb,it,eci,eold,eci-eold=                    2                    2 -0.78468621092712909      -0.78468620994451821       -9.8261088155027210E-010 F
     orbital   2 current e=  0.348207E+00 error=0.264E-05 (eci= -0.784686211E+00 error=0.983E-09) iterations   2(   0 preconditioned, Ep,Sp= 20.0  200.0)
     orb,it,eci,eold,eci-eold=                    3                    1 -0.78193973856829124      -0.78180215629674876       -1.3758227154248015E-004 F
     orb,it,eci,eold,eci-eold=                    3                    2 -0.78194970822022980      -0.78193973856829124       -9.9696519385572557E-006 F
     orb,it,eci,eold,eci-eold=                    3                    3 -0.78200375747831241      -0.78194970822022980       -5.4049258082611296E-005 F
     orb,it,eci,eold,eci-eold=                    3                    4 -0.78207531702213240      -0.78200375747831241       -7.1559543819987859E-005 F
     orb,it,eci,eold,eci-eold=                    3                    5 -0.78212764720515859      -0.78207531702213240       -5.2330183026194632E-005 F
     orb,it,eci,eold,eci-eold=                    3                    6 -0.78216652901340578      -0.78212764720515859       -3.8881808247182015E-005 F
     orb,it,eci,eold,eci-eold=                    3                    7 -0.78219009064711165      -0.78216652901340578       -2.3561633705870833E-005 F
     orb,it,eci,eold,eci-eold=                    3                    8 -0.78220115170561255      -0.78219009064711165       -1.1061058500905219E-005 F
     orb,it,eci,eold,eci-eold=                    3                    9 -0.78222125460862224      -0.78220115170561255       -2.0102903009688866E-005 F
     orb,it,eci,eold,eci-eold=                    3                   10 -0.78223013485471948      -0.78222125460862224       -8.8802460972425834E-006 F
     orb,it,eci,eold,eci-eold=                    3                   11 -0.78224131913982031      -0.78223013485471948       -1.1184285100829250E-005 F
     orb,it,eci,eold,eci-eold=                    3                   12 -0.78224428814422953      -0.78224131913982031       -2.9690044092145484E-006 F
     orb,it,eci,eold,eci-eold=                    3                   13 -0.78224903159869807      -0.78224428814422953       -4.7434544685476254E-006 F
     orb,it,eci,eold,eci-eold=                    3                   14 -0.78225809827984050      -0.78224903159869807       -9.0666811424222615E-006 F
     orb,it,eci,eold,eci-eold=                    3                   15 -0.78225835354571149      -0.78225809827984050       -2.5526587099644615E-007 F
     orb,it,eci,eold,eci-eold=                    3                   16 -0.78226082971727917      -0.78225835354571149       -2.4761715676779872E-006 F
     orb,it,eci,eold,eci-eold=                    3                   17 -0.78227133863014919      -0.78226082971727917       -1.0508912870021980E-005 F
     orb,it,eci,eold,eci-eold=                    3                   18 -0.78227297070364621      -0.78227133863014919       -1.6320734970154405E-006 F
     orb,it,eci,eold,eci-eold=                    3                   19 -0.78227373323059546      -0.78227297070364621       -7.6252694924949793E-007 F
     orb,it,eci,eold,eci-eold=                    3                   20 -0.78228255729258933      -0.78227373323059546       -8.8240619938728670E-006 F
     orb,it,eci,eold,eci-eold=                    3                   21 -0.78228427444911186      -0.78228255729258933       -1.7171565225293506E-006 F
     orb,it,eci,eold,eci-eold=                    3                   22 -0.78228479112860982      -0.78228427444911186       -5.1667949796385670E-007 F
     orb,it,eci,eold,eci-eold=                    3                   23 -0.78228913933077759      -0.78228479112860982       -4.3482021677698768E-006 F
     orb,it,eci,eold,eci-eold=                    3                   24 -0.78229057601154661      -0.78228913933077759       -1.4366807690180394E-006 F
     orb,it,eci,eold,eci-eold=                    3                   25 -0.78229164095596504      -0.78229057601154661       -1.0649444184274159E-006 F
     orb,it,eci,eold,eci-eold=                    3                   26 -0.78229642574112002      -0.78229164095596504       -4.7847851549764897E-006 F
     orb,it,eci,eold,eci-eold=                    3                   27 -0.78229764385767808      -0.78229642574112002       -1.2181165580660291E-006 F
     orb,it,eci,eold,eci-eold=                    3                   28 -0.78229784796264001      -0.78229764385767808       -2.0410496193168370E-007 F
     orb,it,eci,eold,eci-eold=                    3                   29 -0.78230084584802750      -0.78229784796264001       -2.9978853874901290E-006 F
     orb,it,eci,eold,eci-eold=                    3                   30 -0.78230246750692434      -0.78230084584802750       -1.6216588968331891E-006 F
     orb,it,eci,eold,eci-eold=                    3                   31 -0.78230340403868193      -0.78230246750692434       -9.3653175758934282E-007 F
     orb,it,eci,eold,eci-eold=                    3                   32 -0.78230675314843889      -0.78230340403868193       -3.3491097569671169E-006 F
     orb,it,eci,eold,eci-eold=                    3                   33 -0.78230722044072110      -0.78230675314843889       -4.6729228220243613E-007 F
     orb,it,eci,eold,eci-eold=                    3                   34 -0.78230725814883095      -0.78230722044072110       -3.7708109856815497E-008 F
     orb,it,eci,eold,eci-eold=                    3                   35 -0.78230986906642930      -0.78230725814883095       -2.6109175983446420E-006 F
     orb,it,eci,eold,eci-eold=                    3                   36 -0.78231116631391984      -0.78230986906642930       -1.2972474905392772E-006 F
     orb,it,eci,eold,eci-eold=                    3                   37 -0.78231142349456484      -0.78231116631391984       -2.5718064500246385E-007 F
     orb,it,eci,eold,eci-eold=                    3                   38 -0.78231354058428315      -0.78231142349456484       -2.1170897183120374E-006 F
     orb,it,eci,eold,eci-eold=                    3                   39 -0.78231411002877427      -0.78231354058428315       -5.6944449111639983E-007 F
     orb,it,eci,eold,eci-eold=                    3                   40 -0.78231417936984304      -0.78231411002877427       -6.9341068775763404E-008 F
     orb,it,eci,eold,eci-eold=                    3                   41 -0.78231604489465534      -0.78231417936984304       -1.8655248122945167E-006 F
     orb,it,eci,eold,eci-eold=                    3                   42 -0.78231690959267897      -0.78231604489465534       -8.6469802362820758E-007 F
     orb,it,eci,eold,eci-eold=                    3                   43 -0.78231702875902109      -0.78231690959267897       -1.1916634212738586E-007 F
     orb,it,eci,eold,eci-eold=                    3                   44 -0.78231830431426874      -0.78231702875902109       -1.2755552476484411E-006 F
     orb,it,eci,eold,eci-eold=                    3                   45 -0.78231876237324260      -0.78231830431426874       -4.5805897386230754E-007 F
     orb,it,eci,eold,eci-eold=                    3                   46 -0.78231892980955031      -0.78231876237324260       -1.6743630770754692E-007 F
     orb,it,eci,eold,eci-eold=                    3                   47 -0.78232004679658662      -0.78231892980955031       -1.1169870363092471E-006 F
     orb,it,eci,eold,eci-eold=                    3                   48 -0.78232039186469049      -0.78232004679658662       -3.4506810386858433E-007 F
     orb,it,eci,eold,eci-eold=                    3                   49 -0.78232048551017264      -0.78232039186469049       -9.3645482146520465E-008 F
     orb,it,eci,eold,eci-eold=                    3                   50 -0.78232134481308380      -0.78232048551017264       -8.5930291116032009E-007 F
     orb,it,eci,eold,eci-eold=                    3                   51 -0.78232165182927860      -0.78232134481308380       -3.0701619480044684E-007 F
     orb,it,eci,eold,eci-eold=                    3                   52 -0.78232174521738995      -0.78232165182927860       -9.3388111355174885E-008 F
     orb,it,eci,eold,eci-eold=                    3                   53 -0.78232246358784874      -0.78232174521738995       -7.1837045878542227E-007 F
     orb,it,eci,eold,eci-eold=                    3                   54 -0.78232264582555611      -0.78232246358784874       -1.8223770736902623E-007 F
     orb,it,eci,eold,eci-eold=                    3                   55 -0.78232265924404931      -0.78232264582555611       -1.3418493205463733E-008 F
     orb,it,eci,eold,eci-eold=                    3                   56 -0.78232322495444495      -0.78232265924404931       -5.6571039563912962E-007 F
     orb,it,eci,eold,eci-eold=                    3                   57 -0.78232350550116614      -0.78232322495444495       -2.8054672118749124E-007 F
     orb,it,eci,eold,eci-eold=                    3                   58 -0.78232356614249354      -0.78232350550116614       -6.0641327404020728E-008 F
     orb,it,eci,eold,eci-eold=                    3                   59 -0.78232401586122102      -0.78232356614249354       -4.4971872747989750E-007 F
     orb,it,eci,eold,eci-eold=                    3                   60 -0.78232416560021933      -0.78232401586122102       -1.4973899831183246E-007 F
     orb,it,eci,eold,eci-eold=                    3                   61 -0.78232419744379733      -0.78232416560021933       -3.1843577996681915E-008 F
     orb,it,eci,eold,eci-eold=                    3                   62 -0.78232454607217816      -0.78232419744379733       -3.4862838083071779E-007 F
     orb,it,eci,eold,eci-eold=                    3                   63 -0.78232469620007272      -0.78232454607217816       -1.5012789456037012E-007 F
     orb,it,eci,eold,eci-eold=                    3                   64 -0.78232473893258136      -0.78232469620007272       -4.2732508642728817E-008 F
     orb,it,eci,eold,eci-eold=                    3                   65 -0.78232499839778646      -0.78232473893258136       -2.5946520509911863E-007 F
     orb,it,eci,eold,eci-eold=                    3                   66 -0.78232507467697454      -0.78232499839778646       -7.6279188077066351E-008 F
     orb,it,eci,eold,eci-eold=                    3                   67 -0.78232510307219472      -0.78232507467697454       -2.8395220175170266E-008 F
     orb,it,eci,eold,eci-eold=                    3                   68 -0.78232532054417026      -0.78232510307219472       -2.1747197553878550E-007 F
     orb,it,eci,eold,eci-eold=                    3                   69 -0.78232537725614193      -0.78232532054417026       -5.6711971674339168E-008 F
     orb,it,eci,eold,eci-eold=                    3                   70 -0.78232538366069337      -0.78232537725614193       -6.4045514447386154E-009 F
     orb,it,eci,eold,eci-eold=                    3                   71 -0.78232555367046785      -0.78232538366069337       -1.7000977448056176E-007 F
     orb,it,eci,eold,eci-eold=                    3                   72 -0.78232562197591715      -0.78232555367046785       -6.8305449296701681E-008 F
     orb,it,eci,eold,eci-eold=                    3                   73 -0.78232563063256877      -0.78232562197591715       -8.6566516177555286E-009 F
     orb,it,eci,eold,eci-eold=                    3                   74 -0.78232576765873674      -0.78232563063256877       -1.3702616796784639E-007 F
     orb,it,eci,eold,eci-eold=                    3                   75 -0.78232583087420671      -0.78232576765873674       -6.3215469969790661E-008 F
     orb,it,eci,eold,eci-eold=                    3                   76 -0.78232584326681365      -0.78232583087420671       -1.2392606940636597E-008 F
     orb,it,eci,eold,eci-eold=                    3                   77 -0.78232594827809543      -0.78232584326681365       -1.0501128178130870E-007 F
     orb,it,eci,eold,eci-eold=                    3                   78 -0.78232599242084588      -0.78232594827809543       -4.4142750454945201E-008 F
     orb,it,eci,eold,eci-eold=                    3                   79 -0.78232600605511093      -0.78232599242084588       -1.3634265050299632E-008 F
     orb,it,eci,eold,eci-eold=                    3                   80 -0.78232608999989584      -0.78232600605511093       -8.3944784901035518E-008 F
     orb,it,eci,eold,eci-eold=                    3                   81 -0.78232611460349988      -0.78232608999989584       -2.4603604042994220E-008 F
     orb,it,eci,eold,eci-eold=                    3                   82 -0.78232612105666477      -0.78232611460349988       -6.4531648913401796E-009 F
     orb,it,eci,eold,eci-eold=                    3                   83 -0.78232618846321844      -0.78232612105666477       -6.7406553672100245E-008 F
     orb,it,eci,eold,eci-eold=                    3                   84 -0.78232621236329036      -0.78232618846321844       -2.3900071921545418E-008 F
     orb,it,eci,eold,eci-eold=                    3                   85 -0.78232621623897280      -0.78232621236329036       -3.8756824416452673E-009 F
     orb,it,eci,eold,eci-eold=                    3                   86 -0.78232626549118744      -0.78232621623897280       -4.9252214640027603E-008 F
     orb,it,eci,eold,eci-eold=                    3                   87 -0.78232628352567768      -0.78232626549118744       -1.8034490234519751E-008 F
     orb,it,eci,eold,eci-eold=                    3                   88 -0.78232628667977089      -0.78232628352567768       -3.1540932088347517E-009 F
     orb,it,eci,eold,eci-eold=                    3                   89 -0.78232632197644081      -0.78232628667977089       -3.5296669920192869E-008 F
     orb,it,eci,eold,eci-eold=                    3                   90 -0.78232633758260883      -0.78232632197644081       -1.5606168024540068E-008 F
     orb,it,eci,eold,eci-eold=                    3                   91 -0.78232634331295503      -0.78232633758260883       -5.7303461975521941E-009 F
     orb,it,eci,eold,eci-eold=                    3                   92 -0.78232637294889185      -0.78232634331295503       -2.9635936815708419E-008 F
     orb,it,eci,eold,eci-eold=                    3                   93 -0.78232638432639168      -0.78232637294889185       -1.1377499831155546E-008 F
     orb,it,eci,eold,eci-eold=                    3                   94 -0.78232638876249061      -0.78232638432639168       -4.4360989326364120E-009 F
     orb,it,eci,eold,eci-eold=                    3                   95 -0.78232641113097734      -0.78232638876249061       -2.2368486729540393E-008 F
     orb,it,eci,eold,eci-eold=                    3                   96 -0.78232641666603853      -0.78232641113097734       -5.5350611871674005E-009 F
     orb,it,eci,eold,eci-eold=                    3                   97 -0.78232641841748451      -0.78232641666603853       -1.7514459882406186E-009 F
     orb,it,eci,eold,eci-eold=                    3                   98 -0.78232643570629645      -0.78232641841748451       -1.7288811937632431E-008 F
     orb,it,eci,eold,eci-eold=                    3                   99 -0.78232644021406506      -0.78232643570629645       -4.5077686028349717E-009 F
     orb,it,eci,eold,eci-eold=                    3                  100 -0.78232644033962329      -0.78232644021406506       -1.2555823047932790E-010 F
     orbital   3 current e=  0.622997E+00 error=0.865E-01 (eci= -0.782326440E+00 error=0.126E-09) iterations 100(   0 preconditioned, Ep,Sp= 20.0  200.0)
     orb,it,eci,eold,eci-eold=                    3                    1 -0.78232645539213896      -0.78232644033962329       -1.5052515678348755E-008 F
     orb,it,eci,eold,eci-eold=                    3                    2 -0.78232646130103434      -0.78232645539213896       -5.9088953729968807E-009 F
     orb,it,eci,eold,eci-eold=                    3                    3 -0.78232649590730907      -0.78232646130103434       -3.4606274734727549E-008 F
     orb,it,eci,eold,eci-eold=                    3                    4 -0.78232649768351181      -0.78232649590730907       -1.7762027404444325E-009 F
     orb,it,eci,eold,eci-eold=                    3                    5 -0.78232650123061243      -0.78232649768351181       -3.5471006132326011E-009 F
     orb,it,eci,eold,eci-eold=                    3                    6 -0.78232651327581837      -0.78232650123061243       -1.2045205943778114E-008 F
     orb,it,eci,eold,eci-eold=                    3                    7 -0.78232652027988303      -0.78232651327581837       -7.0040646615865398E-009 F
     orb,it,eci,eold,eci-eold=                    3                    8 -0.78232652333160113      -0.78232652027988303       -3.0517181004441341E-009 F
     orb,it,eci,eold,eci-eold=                    3                    9 -0.78232652428546634      -0.78232652333160113       -9.5386520904128247E-010 F
     orbital   3 current e=  0.622440E+00 error=0.558E-03 (eci= -0.782326524E+00 error=0.954E-09) iterations   9(   0 preconditioned, Ep,Sp= 20.0  200.0)
     orb,it,eci,eold,eci-eold=                    3                    1 -0.78232653079153192      -0.78232652428546634       -6.5060655751736363E-009 F
     orb,it,eci,eold,eci-eold=                    3                    2 -0.78232653200072733      -0.78232653079153192       -1.2091954104676006E-009 F
     orb,it,eci,eold,eci-eold=                    3                    3 -0.78232653263400098      -0.78232653200072733       -6.3327365573684347E-010 F
     orbital   3 current e=  0.622379E+00 error=0.610E-04 (eci= -0.782326533E+00 error=0.633E-09) iterations   3(   0 preconditioned, Ep,Sp= 20.0  200.0)
     orb,it,eci,eold,eci-eold=                    4                    1 -0.78208544237124100      -0.78197398213299030       -1.1146023825070461E-004 F
     orb,it,eci,eold,eci-eold=                    4                    2 -0.78212482461117638      -0.78208544237124100       -3.9382239935381591E-005 F
     orb,it,eci,eold,eci-eold=                    4                    3 -0.78213666184108688      -0.78212482461117638       -1.1837229910494074E-005 F
     orb,it,eci,eold,eci-eold=                    4                    4 -0.78214081605133534      -0.78213666184108688       -4.1542102484637411E-006 F
     orb,it,eci,eold,eci-eold=                    4                    5 -0.78220862436392791      -0.78214081605133534       -6.7808312592565478E-005 F
     orb,it,eci,eold,eci-eold=                    4                    6 -0.78224435493306554      -0.78220862436392791       -3.5730569137637502E-005 F
     orb,it,eci,eold,eci-eold=                    4                    7 -0.78225925908937932      -0.78224435493306554       -1.4904156313777506E-005 F
     orb,it,eci,eold,eci-eold=                    4                    8 -0.78226966509070883      -0.78225925908937932       -1.0406001329510417E-005 F
     orb,it,eci,eold,eci-eold=                    4                    9 -0.78229997628716963      -0.78226966509070883       -3.0311196460797163E-005 F
     orb,it,eci,eold,eci-eold=                    4                   10 -0.78231655377609055      -0.78229997628716963       -1.6577488920921368E-005 F
     orb,it,eci,eold,eci-eold=                    4                   11 -0.78232864158203497      -0.78231655377609055       -1.2087805944416274E-005 F
     orb,it,eci,eold,eci-eold=                    4                   12 -0.78233479913441739      -0.78232864158203497       -6.1575523824242140E-006 F
     orb,it,eci,eold,eci-eold=                    4                   13 -0.78235076960853100      -0.78233479913441739       -1.5970474113613520E-005 F
     orb,it,eci,eold,eci-eold=                    4                   14 -0.78235202471878207      -0.78235076960853100       -1.2551102510638401E-006 F
     orb,it,eci,eold,eci-eold=                    4                   15 -0.78235237311498174      -0.78235202471878207       -3.4839619966753332E-007 F
     orb,it,eci,eold,eci-eold=                    4                   16 -0.78236250841949651      -0.78235237311498174       -1.0135304514768961E-005 F
     orb,it,eci,eold,eci-eold=                    4                   17 -0.78236679390619246      -0.78236250841949651       -4.2854866959540772E-006 F
     orb,it,eci,eold,eci-eold=                    4                   18 -0.78236802841126463      -0.78236679390619246       -1.2345050721673800E-006 F
     orb,it,eci,eold,eci-eold=                    4                   19 -0.78237540618372026      -0.78236802841126463       -7.3777724556300939E-006 F
     orb,it,eci,eold,eci-eold=                    4                   20 -0.78237834218310320      -0.78237540618372026       -2.9359993829469744E-006 F
     orb,it,eci,eold,eci-eold=                    4                   21 -0.78237993139914008      -0.78237834218310320       -1.5892160368791153E-006 F
     orb,it,eci,eold,eci-eold=                    4                   22 -0.78238656905430481      -0.78237993139914008       -6.6376551647318038E-006 F
     orb,it,eci,eold,eci-eold=                    4                   23 -0.78238799395697689      -0.78238656905430481       -1.4249026720758451E-006 F
     orb,it,eci,eold,eci-eold=                    4                   24 -0.78238836994837002      -0.78238799395697689       -3.7599139313115870E-007 F
     orb,it,eci,eold,eci-eold=                    4                   25 -0.78239308486929904      -0.78238836994837002       -4.7149209290164862E-006 F
     orb,it,eci,eold,eci-eold=                    4                   26 -0.78239515065228515      -0.78239308486929904       -2.0657829861159271E-006 F
     orb,it,eci,eold,eci-eold=                    4                   27 -0.78239584925467898      -0.78239515065228515       -6.9860239382268929E-007 F
     orb,it,eci,eold,eci-eold=                    4                   28 -0.78239962488199422      -0.78239584925467898       -3.7756273152389497E-006 F
     orb,it,eci,eold,eci-eold=                    4                   29 -0.78240104854224302      -0.78239962488199422       -1.4236602488004735E-006 F
     orb,it,eci,eold,eci-eold=                    4                   30 -0.78240163529014917      -0.78240104854224302       -5.8674790615054206E-007 F
     orb,it,eci,eold,eci-eold=                    4                   31 -0.78240454847241336      -0.78240163529014917       -2.9131822641970118E-006 F
     orb,it,eci,eold,eci-eold=                    4                   32 -0.78240544808502333      -0.78240454847241336       -8.9961260996140879E-007 F
     orb,it,eci,eold,eci-eold=                    4                   33 -0.78240585876044100      -0.78240544808502333       -4.1067541767247917E-007 F
     orb,it,eci,eold,eci-eold=                    4                   34 -0.78240826588256884      -0.78240585876044100       -2.4071221278454402E-006 F
     orb,it,eci,eold,eci-eold=                    4                   35 -0.78240919526641206      -0.78240826588256884       -9.2938384321783474E-007 F
     orb,it,eci,eold,eci-eold=                    4                   36 -0.78240963123518215      -0.78240919526641206       -4.3596877008500456E-007 F
     orb,it,eci,eold,eci-eold=                    4                   37 -0.78241190171661712      -0.78240963123518215       -2.2704814349738811E-006 F
     orb,it,eci,eold,eci-eold=                    4                   38 -0.78241245791361369      -0.78241190171661712       -5.5619699657061261E-007 F
     orb,it,eci,eold,eci-eold=                    4                   39 -0.78241250917891414      -0.78241245791361369       -5.1265300449188089E-008 F
     orb,it,eci,eold,eci-eold=                    4                   40 -0.78241416404592612      -0.78241250917891414       -1.6548670119798103E-006 F
     orb,it,eci,eold,eci-eold=                    4                   41 -0.78241476586738634      -0.78241416404592612       -6.0182146022214056E-007 F
     orb,it,eci,eold,eci-eold=                    4                   42 -0.78241481011978342      -0.78241476586738634       -4.4252397080057904E-008 F
     orb,it,eci,eold,eci-eold=                    4                   43 -0.78241609275366653      -0.78241481011978342       -1.2826338831040118E-006 F
     orb,it,eci,eold,eci-eold=                    4                   44 -0.78241670108013817      -0.78241609275366653       -6.0832647164055231E-007 F
     orb,it,eci,eold,eci-eold=                    4                   45 -0.78241685090220614      -0.78241670108013817       -1.4982206797409248E-007 F
     orb,it,eci,eold,eci-eold=                    4                   46 -0.78241795490277088      -0.78241685090220614       -1.1040005647444673E-006 F
     orb,it,eci,eold,eci-eold=                    4                   47 -0.78241833472780042      -0.78241795490277088       -3.7982502953948227E-007 F
     orb,it,eci,eold,eci-eold=                    4                   48 -0.78241841202846774      -0.78241833472780042       -7.7300667311597238E-008 F
     orb,it,eci,eold,eci-eold=                    4                   49 -0.78241930021358419      -0.78241841202846774       -8.8818511645438747E-007 F
     orb,it,eci,eold,eci-eold=                    4                   50 -0.78241968988969124      -0.78241930021358419       -3.8967610704876421E-007 F
     orb,it,eci,eold,eci-eold=                    4                   51 -0.78241980660055022      -0.78241968988969124       -1.1671085897724254E-007 F
     orb,it,eci,eold,eci-eold=                    4                   52 -0.78242059481372306      -0.78241980660055022       -7.8821317284205605E-007 F
     orb,it,eci,eold,eci-eold=                    4                   53 -0.78242089034649920      -0.78242059481372306       -2.9553277614002837E-007 F
     orb,it,eci,eold,eci-eold=                    4                   54 -0.78242096875723322      -0.78242089034649920       -7.8410734016820527E-008 F
     orb,it,eci,eold,eci-eold=                    4                   55 -0.78242160405946115      -0.78242096875723322       -6.3530222793595215E-007 F
     orb,it,eci,eold,eci-eold=                    4                   56 -0.78242180950354800      -0.78242160405946115       -2.0544408685374549E-007 F
     orb,it,eci,eold,eci-eold=                    4                   57 -0.78242184141361071      -0.78242180950354800       -3.1910062703310871E-008 F
     orb,it,eci,eold,eci-eold=                    4                   58 -0.78242228783989975      -0.78242184141361071       -4.4642628904689730E-007 F
     orb,it,eci,eold,eci-eold=                    4                   59 -0.78242241731281437      -0.78242228783989975       -1.2947291461173904E-007 F
     orb,it,eci,eold,eci-eold=                    4                   60 -0.78242243688170743      -0.78242241731281437       -1.9568893061538972E-008 F
[...]
     orb,it,eci,eold,eci-eold=                    4                   72 -0.78242392816463724      -0.78242391224615004       -1.5918487195065723E-008 F
     orb,it,eci,eold,eci-eold=                    4                   73 -0.78242408630545179      -0.78242392816463724       -1.5814081455456375E-007 F
     orb,it,eci,eold,eci-eold=                    4                   74 -0.78242414556880779      -0.78242408630545179       -5.9263356000371914E-008 F
     orb,it,eci,eold,eci-eold=                    4                   75 -0.78242415646556351      -0.78242414556880779       -1.0896755719969065E-008 F
     orb,it,eci,eold,eci-eold=                    4                   76 -0.78242428138585807      -0.78242415646556351       -1.2492029455302145E-007 F
     orb,it,eci,eold,eci-eold=                    4                   77 -0.78242432850829591      -0.78242428138585807       -4.7122437840663167E-008 F
     orb,it,eci,eold,eci-eold=                    4                   78 -0.78242433818220425      -0.78242432850829591       -9.6739083410568583E-009 F
     orb,it,eci,eold,eci-eold=                    4                   79 -0.78242443703475251      -0.78242433818220425       -9.8852548258143713E-008 F
     orb,it,eci,eold,eci-eold=                    4                   80 -0.78242447086449396      -0.78242443703475251       -3.3829741452606754E-008 F
     orb,it,eci,eold,eci-eold=                    4                   81 -0.78242447727596065      -0.78242447086449396       -6.4114666908920981E-009 F
     orb,it,eci,eold,eci-eold=                    4                   82 -0.78242455421963619      -0.78242447727596065       -7.6943675542118228E-008 F
     orb,it,eci,eold,eci-eold=                    4                   83 -0.78242457835175871      -0.78242455421963619       -2.4132122522502186E-008 F
     orb,it,eci,eold,eci-eold=                    4                   84 -0.78242458140382687      -0.78242457835175871       -3.0520681537637984E-009 F
     orb,it,eci,eold,eci-eold=                    4                   85 -0.78242464162571246      -0.78242458140382687       -6.0221885589406554E-008 F
     orb,it,eci,eold,eci-eold=                    4                   86 -0.78242466371366615      -0.78242464162571246       -2.2087953688298967E-008 F
     orb,it,eci,eold,eci-eold=                    4                   87 -0.78242466671981692      -0.78242466371366615       -3.0061507727552339E-009 F
     orb,it,eci,eold,eci-eold=                    4                   88 -0.78242471490384302      -0.78242466671981692       -4.8184026102404687E-008 F
     orb,it,eci,eold,eci-eold=                    4                   89 -0.78242473278867175      -0.78242471490384302       -1.7884828729108904E-008 F
     orb,it,eci,eold,eci-eold=                    4                   90 -0.78242473532932366      -0.78242473278867175       -2.5406519110759973E-009 F
     orb,it,eci,eold,eci-eold=                    4                   91 -0.78242477442721736      -0.78242473532932366       -3.9097893700379416E-008 F
     orb,it,eci,eold,eci-eold=                    4                   92 -0.78242478892818346      -0.78242477442721736       -1.4500966094566081E-008 F
     orb,it,eci,eold,eci-eold=                    4                   93 -0.78242479063394499      -0.78242478892818346       -1.7057615320226205E-009 F
     orb,it,eci,eold,eci-eold=                    4                   94 -0.78242482080864884      -0.78242479063394499       -3.0174703846697071E-008 F
     orb,it,eci,eold,eci-eold=                    4                   95 -0.78242483121769646      -0.78242482080864884       -1.0409047623838319E-008 F
     orb,it,eci,eold,eci-eold=                    4                   96 -0.78242483224138448      -0.78242483121769646       -1.0236880232383783E-009 F
     orb,it,eci,eold,eci-eold=                    4                   97 -0.78242485612523693      -0.78242483224138448       -2.3883852451334064E-008 F
     orb,it,eci,eold,eci-eold=                    4                   98 -0.78242486809773504      -0.78242485612523693       -1.1972498104029228E-008 F
     orb,it,eci,eold,eci-eold=                    4                   99 -0.78242487187412812      -0.78242486809773504       -3.7763930871292928E-009 F
     orb,it,eci,eold,eci-eold=                    4                  100 -0.78242489447889652      -0.78242487187412812       -2.2604768390444008E-008 F
     orb,it,eci,eold,eci-eold=                    4                  101 -0.78242490171474044      -0.78242489447889652       -7.2358439240360894E-009 F
     orb,it,eci,eold,eci-eold=                    4                  102 -0.78242490282223187      -0.78242490171474044       -1.1074914318953688E-009 F
     orb,it,eci,eold,eci-eold=                    4                  103 -0.78242491931771530      -0.78242490282223187       -1.6495483423639712E-008 F
     orb,it,eci,eold,eci-eold=                    4                  104 -0.78242492430673583      -0.78242491931771530       -4.9890205300329171E-009 F
     orb,it,eci,eold,eci-eold=                    4                  105 -0.78242492446300704      -0.78242492430673583       -1.5627121818795331E-010 F
     orbital   4 current e=  0.478286E+00 error=0.450E-01 (eci= -0.782424924E+00 error=0.156E-09) iterations 105(   0 preconditioned, Ep,Sp= 20.0  200.0)
     orb,it,eci,eold,eci-eold=                    4                    1 -0.78242496206469725      -0.78242492446300704       -3.7601690205946170E-008 F
     orb,it,eci,eold,eci-eold=                    4                    2 -0.78242497243978149      -0.78242496206469725       -1.0375084236180498E-008 F
     orb,it,eci,eold,eci-eold=                    4                    3 -0.78242498006365646      -0.78242497243978149       -7.6238749757706614E-009 F
     orb,it,eci,eold,eci-eold=                    4                    4 -0.78242499200573712      -0.78242498006365646       -1.1942080657689758E-008 F
     orb,it,eci,eold,eci-eold=                    4                    5 -0.78242499364506291      -0.78242499200573712       -1.6393257862290511E-009 F
     orb,it,eci,eold,eci-eold=                    4                    6 -0.78242499364506291      -0.78242499364506291        0.0000000000000000      F
     orbital   4 current e=  0.478563E+00 error=0.277E-03 (eci= -0.782424994E+00 error=0.000E+00) iterations   6(   0 preconditioned, Ep,Sp= 20.0  200.0)
     orb,it,eci,eold,eci-eold=                    4                    1 -0.78242499601772686      -0.78242499338458449       -2.6331423708114698E-009 F
     orb,it,eci,eold,eci-eold=                    4                    2 -0.78242499642150665      -0.78242499601772686       -4.0377978738348475E-010 F
     orbital   4 current e=  0.478581E+00 error=0.182E-04 (eci= -0.782424996E+00 error=0.404E-09) iterations   2(   0 preconditioned, Ep,Sp= 20.0  200.0)

 virtual orbital energies:
     0.6223786E+00 (  16.936eV)
     0.4785812E+00 (  13.023eV)
     0.3482075E+00 (   9.475eV)
    -0.1618379E+00 (  -4.404eV)


 == Generating One-Electron and Two-Electron Integrals ==

 begin_one_electron_integrals
    1    1        -0.6042433373
    2    1         0.0000049610
    3    1         0.0740521117
    4    1        -0.0256336785
    5    1        -0.0005699794
    2    2        -0.6142781694
    3    2         0.0000183559
    4    2         0.0005763891
    5    2        -0.0267760700
    3    3        -0.1606732210
    4    3        -0.0361050453
    5    3        -0.0003991374
    4    4        -0.0398750152
    5    4        -0.0023732941
    5    5         0.0810017673
 end_one_electron_integrals

 begin_two_electron_integrals
    1    1    1    1        0.3104225259
    1    1    2    1       -0.0000049690
    1    1    3    1       -0.0740532859
    1    1    4    1        0.0256345633
    1    1    5    1        0.0005700107
    1    1    2    2        0.3312425938
    1    1    3    2       -0.0000098216
    1    1    4    2       -0.0016805872
    1    1    5    2        0.0721549983
    1    1    3    3        0.2844879294
    1    1    4    3        0.0021270725
    1    1    5    3        0.0001594284
    1    1    4    4        0.2824431885
    1    1    5    4       -0.0002563820
    1    1    5    5        0.2957975820
    2    1    2    1        0.2100449170
    2    1    3    1        0.0000059317
    2    1    4    1       -0.0013954261
    2    1    5    1        0.0569724258
    2    1    2    2       -0.0000080329
    2    1    3    2       -0.1088599596
    2    1    4    2        0.0107292623
    2    1    5    2        0.0002100353
    2    1    3    3        0.0000319982
    2    1    4    3        0.0039774107
    2    1    5    3       -0.1598637189
    2    1    4    4       -0.0010890957
    2    1    5    4        0.0698179239
    2    1    5    5        0.0028705118
    3    1    3    1        0.0600951798
    3    1    4    1       -0.0021488793
    3    1    5    1       -0.0000144826
    3    1    2    2       -0.0903097067
    3    1    3    2        0.0000039151
    3    1    4    2        0.0014347540
    3    1    5    2       -0.0576184722
    3    1    3    3       -0.0643373539
    3    1    4    3        0.0090645905
    3    1    5    3        0.0001231750
    3    1    4    4       -0.0490842221
    3    1    5    4        0.0006085375
    3    1    5    5       -0.0768874251
    4    1    4    1        0.0464301217
    4    1    5    1       -0.0000644657
    4    1    2    2        0.0262185538
    4    1    3    2        0.0013696279
    4    1    4    2       -0.0003051787
    4    1    5    2        0.0193412586
    4    1    3    3        0.0281219531
    4    1    4    3       -0.0010411503
    4    1    5    3        0.0012108229
    4    1    4    4        0.0213506646
    4    1    5    4       -0.0004018064
    4    1    5    5        0.0217303853
    5    1    5    1        0.0502182936
    5    1    2    2        0.0005746339
    5    1    3    2       -0.0553619728
    5    1    4    2        0.0182264115
    5    1    5    2        0.0007812756
    5    1    3    3        0.0006137163
    5    1    4    3        0.0012240075
    5    1    5    3       -0.0518234831
    5    1    4    4        0.0001760583
    5    1    5    4        0.0146932473
    5    1    5    5        0.0010316321
    2    2    2    2        0.3565182084
    2    2    3    2       -0.0000103572
    2    2    4    2       -0.0020610496
    2    2    5    2        0.0873798709
    2    2    3    3        0.3017719850
    2    2    4    3       -0.0005785617
    2    2    5    3        0.0001220754
    2    2    4    4        0.2966450537
    2    2    5    4       -0.0004049677
    2    2    5    5        0.3169417658
    3    2    3    2        0.0788035996
    3    2    4    2       -0.0063497962
    3    2    5    2       -0.0000962343
    3    2    3    3       -0.0000247984
    3    2    4    3       -0.0021911557
    3    2    5    3        0.0887433150
    3    2    4    4        0.0006337511
    3    2    5    4       -0.0341089391
    3    2    5    5       -0.0013755018
    4    2    4    2        0.0431716852
    4    2    5    2       -0.0004686580
    4    2    3    3       -0.0016184538
    4    2    4    3        0.0004207882
    4    2    5    3       -0.0119514436
    4    2    4    4       -0.0009527343
    4    2    5    4       -0.0011440815
    4    2    5    5       -0.0018609525
    5    2    5    2        0.0642258534
    5    2    3    3        0.0700574239
    5    2    4    3       -0.0087322267
    5    2    5    3       -0.0003632084
    5    2    4    4        0.0455050619
    5    2    5    4       -0.0007522854
    5    2    5    5        0.0775755699
    3    3    3    3        0.2758550336
    3    3    4    3        0.0059203814
    3    3    5    3        0.0002000133
    3    3    4    4        0.2558275852
    3    3    5    4       -0.0005217036
    3    3    5    5        0.2788368939
    4    3    4    3        0.0143037717
    4    3    5    3       -0.0029498535
    4    3    4    4        0.0054393625
    4    3    5    4        0.0014782295
    4    3    5    5       -0.0054544454
    5    3    5    3        0.1322312189
    5    3    4    4        0.0011697289
    5    3    5    4       -0.0541595216
    5    3    5    5       -0.0022236188
    4    4    4    4        0.2820355222
    4    4    5    4       -0.0004279622
    4    4    5    5        0.2654161046
    5    4    5    4        0.0366613860
    5    4    5    5        0.0009182500
    5    5    5    5        0.2958738609
 end_two_electron_integrals


 output epsi filename:./pspw_hf_H2.emovecs

 Total PSPW energy     :  -0.7804692045E+00


=== Spin Contamination ===

 <Sexact^2> =    0.0000000000000000     
 <S^2>      =    0.0000000000000000     



== Center of Charge ==

spin up     (    0.0000,    0.0000,    0.0002 )
spin down   (    0.0000,    0.0000,    0.0002 )
     total  (    0.0000,    0.0000,    0.0002 )
ionic       (    0.0000,    0.0000,    0.0000 )


== Molecular Dipole wrt Center of Mass ==

mu   =  (   -0.0000,   -0.0000,   -0.0004 ) au
|mu| =     0.0004 au,       0.0009 Debye

 output psi filename:./pspw_hf_H2.movecs

 Writing Crystallographic Information File:./H2.cif
   - cell not shifted (nwpw:cif_shift_cell .false.)


== Timing ==

cputime in seconds
  prologue    :   0.712298E+01
  main loop   :   0.576620E+03
  epilogue    :   0.311490E-01
  total       :   0.583774E+03
  cputime/step:   0.381867E+01       (     151 evalulations,      63 linesearches)


Time spent doing                        total          step       percent
  total time                 :   0.583784E+03  0.386612E+01       100.0 %
  i/o time                   :   0.265495E+00  0.175825E-02         0.0 %
  FFTs                       :   0.440127E+03  0.291475E+01        75.4 %
  dot products               :   0.598718E+01  0.396502E-01         1.0 %
  geodesic                   :   0.717913E-01  0.475439E-03         0.0 %
  ffm_dgemm                  :   0.109897E-01  0.727798E-04         0.0 %
  fmf_dgemm                  :   0.192368E-01  0.127396E-03         0.0 %
  mmm_dgemm                  :   0.314906E-02  0.208547E-04         0.0 %
  m_diagonalize              :   0.128791E-02  0.852922E-05         0.0 %
  local pseudopotentials     :   0.747603E+01  0.495101E-01         1.3 %
  non-local pseudopotentials :   0.508522E+01  0.336770E-01         0.9 %
  structure factors          :   0.111638E+01  0.739322E-02         0.2 %
  phase factors              :   0.903800E-05  0.598543E-07         0.0 %
  masking and packing        :   0.507240E+01  0.335921E-01         0.9 %
  queue fft                  :   0.739215E+01  0.489546E-01         1.3 %
  queue fft (serial)         :   0.257145E+01  0.170295E-01         0.4 %
  queue fft (message passing):   0.476871E+01  0.315809E-01         0.8 %
  HFX potential              :   0.112112E+02  0.742463E-01         1.9 %
  non-local psp FFM          :   0.474207E+01  0.314045E-01         0.8 %
  non-local psp FMF          :   0.919983E-01  0.609260E-03         0.0 %
  non-local psp FFM A        :   0.762095E-01  0.504699E-03         0.0 %
  non-local psp FFM B        :   0.140173E+00  0.928300E-03         0.0 %

== HFX Counters ==
  HFX Evalulations         =   151
  Lin ACE HFX Evalulations =     0


     >>>  JOB COMPLETED     AT Tue Apr 22 20:53:35 2025  <<<

 Task  times  cpu:      544.1s     wall:      583.8s


                                NWChem Input Module
                                -------------------


 Summary of allocated global arrays
-----------------------------------
  No active global arrays


MA_summarize_allocated_blocks: starting scan ...
MA_summarize_allocated_blocks: scan completed: 0 heap blocks, 0 stack blocks
MA usage statistics:

	allocation statistics:
					      heap	     stack
					      ----	     -----
	current number of blocks	         0	         0
	maximum number of blocks	       313	        36
	current total bytes		         0	         0
	maximum total bytes		  40292128	  13584632
	maximum total K-bytes		     40293	     13585
	maximum total M-bytes		        41	        14


                                     CITATION
                                     --------
                Please cite the following reference when publishing
                           results obtained with NWChem:

          E. Apra, E. J. Bylaska, W. A. de Jong, N. Govind, K. Kowalski,
       T. P. Straatsma, M. Valiev, H. J. J. van Dam, Y. Alexeev, J. Anchell,
       V. Anisimov, F. W. Aquino, R. Atta-Fynn, J. Autschbach, N. P. Bauman,
     J. C. Becca, D. E. Bernholdt, K. Bhaskaran-Nair, S. Bogatko, P. Borowski,
         J. Boschen, J. Brabec, A. Bruner, E. Cauet, Y. Chen, G. N. Chuev,
      C. J. Cramer, J. Daily, M. J. O. Deegan, T. H. Dunning Jr., M. Dupuis,
   K. G. Dyall, G. I. Fann, S. A. Fischer, A. Fonari, H. Fruchtl, L. Gagliardi,
      J. Garza, N. Gawande, S. Ghosh, K. Glaesemann, A. W. Gotz, J. Hammond,
       V. Helms, E. D. Hermes, K. Hirao, S. Hirata, M. Jacquelin, L. Jensen,
   B. G. Johnson, H. Jonsson, R. A. Kendall, M. Klemm, R. Kobayashi, V. Konkov,
      S. Krishnamoorthy, M. Krishnan, Z. Lin, R. D. Lins, R. J. Littlefield,
      A. J. Logsdail, K. Lopata, W. Ma, A. V. Marenich, J. Martin del Campo,
   D. Mejia-Rodriguez, J. E. Moore, J. M. Mullin, T. Nakajima, D. R. Nascimento,
    J. A. Nichols, P. J. Nichols, J. Nieplocha, A. Otero-de-la-Roza, B. Palmer,
    A. Panyala, T. Pirojsirikul, B. Peng, R. Peverati, J. Pittner, L. Pollack,
   R. M. Richard, P. Sadayappan, G. C. Schatz, W. A. Shelton, D. W. Silverstein,
   D. M. A. Smith, T. A. Soares, D. Song, M. Swart, H. L. Taylor, G. S. Thomas,
            V. Tipparaju, D. G. Truhlar, K. Tsemekhman, T. Van Voorhis,
      A. Vazquez-Mayagoitia, P. Verma, O. Villa, A. Vishnu, K. D. Vogiatzis,
        D. Wang, J. H. Weare, M. J. Williamson, T. L. Windus, K. Wolinski,
        A. T. Wong, Q. Wu, C. Yang, Q. Yu, M. Zacharias, Z. Zhang, Y. Zhao,
                                and R. J. Harrison
                        "NWChem: Past, present, and future
                         J. Chem. Phys. 152, 184102 (2020)
                               doi:10.1063/5.0004997

                                      AUTHORS
                                      -------
  E. Apra, E. J. Bylaska, N. Govind, K. Kowalski, M. Valiev, D. Mejia-Rodriguez,
       A. Kunitsa, N. P. Bauman, A. Panyala, W. A. de Jong, T. P. Straatsma,
   H. J. J. van Dam, D. Wang, T. L. Windus, J. Hammond, J. Autschbach, A. Woods,
    K. Bhaskaran-Nair, J. Brabec, K. Lopata, S. A. Fischer, S. Krishnamoorthy,
     M. Jacquelin, W. Ma, M. Klemm, O. Villa, Y. Chen, V. Anisimov, F. Aquino,
     S. Hirata, M. T. Hackler, E. Hermes, L. Jensen, J. E. Moore, J. C. Becca,
      V. Konjkov, T. Risthaus, M. Malagoli, A. Marenich, A. Otero-de-la-Roza,
        J. Mullin, P. Nichols, R. Peverati, J. Pittner, Y. Zhao, P.-D. Fan,
        A. Fonari, M. J. Williamson, R. J. Harrison, J. R. Rehr, M. Dupuis,
     D. Silverstein, D. M. A. Smith, J. Nieplocha, V. Tipparaju, M. Krishnan,
     B. E. Van Kuiken, A. Vazquez-Mayagoitia, M. Swart, Q. Wu, T. Van Voorhis,
     A. A. Auer, M. Nooijen, L. D. Crosby, E. Brown, G. Cisneros, G. I. Fann,
   H. Fruchtl, J. Garza, K. Hirao, R. A. Kendall, J. A. Nichols, K. Tsemekhman,
    K. Wolinski, J. Anchell, D. E. Bernholdt, P. Borowski, T. Clark, D. Clerc,
   H. Dachsel, M. J. O. Deegan, K. Dyall, D. Elwood, E. Glendening, M. Gutowski,
   A. C. Hess, J. Jaffe, B. G. Johnson, J. Ju, R. Kobayashi, R. Kutteh, Z. Lin,
   R. Littlefield, X. Long, B. Meng, T. Nakajima, S. Niu, L. Pollack, M. Rosing,
   K. Glaesemann, G. Sandrone, M. Stave, H. Taylor, G. Thomas, J. H. van Lenthe,
                               A. T. Wong, Z. Zhang.

 Total times  cpu:      544.1s     wall:      583.8s
