 argument  1 = H2-4.0.nw



============================== echo of input deck ==============================
title "swnc: e theory=pspw4 xc=hf formula=H2 charge=0 mult=1"
#machinejob:expert

echo

start pspw_hf_H2

memory heap 1200 mb stack 1200 mb global 10 mb

charge 0

geometry
H    0.00000    0.00000   -2.00000
H    0.00000    0.00000    2.00000
end

nwpw
  ### pseudopotential block begin ###
  ### pseudopotential block end   ###
  simulation_cell
     SC 15.0000
     boundary_conditions aperiodic
  end

  cutoff 50.0
  mult 1
  xc hf
  lmbfgs
  tolerances 1.0e-9 1.0e-9

  virtual 4
end
set nwpw:cif_filename H2

#set nwpw:CI_maxit_orb 15
#set nwpw:CI_maxit_linesearch 15
set pspw:HFX_screening_radius 14.0


set nwpw:2qintegrals .true.
set nwpw:3x3_virtual .true.

task pspw energy
================================================================================


                                         
                                         


             Northwest Computational Chemistry Package (NWChem) 7.2.3
             --------------------------------------------------------


                    Environmental Molecular Sciences Laboratory
                       Pacific Northwest National Laboratory
                                Richland, WA 99352

                              Copyright (c) 1994-2022
                       Pacific Northwest National Laboratory
                            Battelle Memorial Institute

             NWChem is an open-source computational chemistry package
                        distributed under the terms of the
                      Educational Community License (ECL) 2.0
             A copy of the license is included with this distribution
                              in the LICENSE.TXT file

                                  ACKNOWLEDGMENT
                                  --------------

            This software and its documentation were developed at the
            EMSL at Pacific Northwest National Laboratory, a multiprogram
            national laboratory, operated for the U.S. Department of Energy
            by Battelle under Contract Number DE-AC05-76RL01830. Support
            for this work was provided by the Department of Energy Office
            of Biological and Environmental Research, Office of Basic
            Energy Sciences, and the Office of Advanced Scientific Computing.


           Job information
           ---------------

    hostname        = mqs-al
    program         = nwchem
    date            = Sat Apr  5 14:27:05 2025

    compiled        = Thu_Oct_31_08:55:15_2024
    source          = /home/conda/feedstock_root/build_artifacts/nwchem_1730356057992/work
    nwchem branch   = 7.2.3
    nwchem revision = c400b04
    ga revision     = 5.8.0
    use scalapack   = T
    input           = H2-4.0.nw
    prefix          = pspw_hf_H2.
    data base       = ./pspw_hf_H2.db
    status          = startup
    nproc           =       16
    time left       =     -1s



           Memory information
           ------------------

    heap     =  157286398 doubles =   1200.0 Mbytes
    stack    =  157286395 doubles =   1200.0 Mbytes
    global   =    1310720 doubles =     10.0 Mbytes (distinct from heap & stack)
    total    =  315883513 doubles =   2410.0 Mbytes
    verify   = yes
    hardfail = no 


           Directory information
           ---------------------

  0 permanent = .
  0 scratch   = .




                                NWChem Input Module
                                -------------------


               swnc: e theory=pspw4 xc=hf formula=H2 charge=0 mult=1
               -----------------------------------------------------

 Scaling coordinates for geometry "geometry" by  1.889725989
 (inverse scale =  0.529177249)

  zeroes
  zeroes
  zeroes
  zeroes
  zeroes
  zeroes
  zeroes
  zeroes
  zeroes
  zeroes
  zeroes
  zeroes
  zeroes
  zeroes
  zeroes
  zeroes
  zeroes
  zeroes
  zeroes
  zeroes
  zeroes
  zeroes
  zeroes
  zeroes
  zeroes
  zeroes
  zeroes
  zeroes
  zeroes
  zeroes
  zeroes
  zeroes
  zeroes
  zeroes
  zeroes
  zeroes
  zeroes
  zeroes
  zeroes
  zeroes
  zeroes
  zeroes
  zeroes
  zeroes
  zeroes
  zeroes
  zeroes
  zeroes
 ORDER OF PRIMARY AXIS IS BEING SET TO 4
 D4H symmetry detected

          ------
          auto-z
          ------
     1 autoz failed with cvr_scaling = 1.2 changing to 1.3
     2 autoz failed with cvr_scaling = 1.3 changing to 1.4
     3 autoz failed with cvr_scaling = 1.4 changing to 1.5
     4 autoz failed with cvr_scaling = 1.5 changing to 1.6
     5 autoz failed with cvr_scaling = 1.6 changing to 1.7

 AUTOZ failed to generate good internal coordinates.
 Cartesian coordinates will be used in optimizations.



                             Geometry "geometry" -> ""
                             -------------------------

 Output coordinates in angstroms (scale by  1.889725989 to convert to a.u.)

  No.       Tag          Charge          X              Y              Z
 ---- ---------------- ---------- -------------- -------------- --------------
    1 H                    1.0000     0.00000000     0.00000000    -2.00000000
    2 H                    1.0000     0.00000000     0.00000000     2.00000000

      Atomic Mass 
      ----------- 

      H                  1.007825


 Effective nuclear repulsion energy (a.u.)       0.1322943122

            Nuclear Dipole moment (a.u.) 
            ----------------------------
        X                 Y               Z
 ---------------- ---------------- ----------------
     0.0000000000     0.0000000000     0.0000000000

      Symmetry information
      --------------------

 Group name             D4h       
 Group number             28
 Group order              16
 No. of unique centers     1

      Symmetry unique atoms

     1


            XYZ format geometry
            -------------------
     2
 geometry
 H                     0.00000000     0.00000000    -2.00000000
 H                     0.00000000     0.00000000     2.00000000

          ****************************************************
          *                                                  *
          *               NWPW PSPW Calculation              *
          *                                                  *
          * [ (Grassmann/Stiefel manifold implementation)  ] *
          *                                                  *
          *      [ NorthWest Chemistry implementation ]      *
          *                                                  *
          *            version #5.10   06/12/02              *
          *                                                  *
          *    This code was developed by Eric J. Bylaska,   *
          *    and was based upon algorithms and code        *
          *    developed by the group of Prof. John H. Weare *
          *                                                  *
          ****************************************************
     >>>  JOB STARTED       AT Sat Apr  5 14:27:05 2025  <<<
          ================ input data ========================

 input psi filename:./pspw_hf_H2.movecs

 number of processors used:        16
 processor grid           :  16 x   1
 parallel mapping         :2d-hilbert
 parallel mapping         :  balanced
 number of threads        :         1
 parallel io              :       off

 options:
      boundary conditions  = aperiodic   (version4)
      electron spin        = restricted
      exchange-correlation = Hartree-Fock
      - HFX relaxed
      - HFX restricted orbitals :    1
      - HFX free-space coulomb solver


 elements involved in the cluster:
      1: H   valence charge:  1.0000  lmax=  1
             comment    : Parameterized (Chem.Phys.Lett., vol 322, page 447) Hamman psp
             pseudpotential type            :   0
             highest angular component      :   1
             local potential used           :   1
             number of non-local projections:   1
             aperiodic cutoff radius        :  1.000
             cutoff =   0.800   0.800


 total charge:   0.000

 atomic composition:
     H   :    2

 number of electrons: spin up=     1 (   1 per task)  down=     1 (   1 per task) (Fourier space)
 number of orbitals : spin up=     1 (   1 per task)  down=     1 (   1 per task) (Fourier space)

 supercell:
      cell_name:  cell_default                                      
      lattice:    a1=<  15.000   0.000   0.000 >
                  a2=<   0.000  15.000   0.000 >
                  a3=<   0.000   0.000  15.000 >
      reciprocal: b1=<   0.419   0.000   0.000 >
                  b2=<   0.000   0.419   0.000 >
                  b3=<   0.000   0.000   0.419 >
      lattice:    a=      15.000 b=     15.000 c=      15.000
                  alpha=  90.000 beta=  90.000 gamma=  90.000
                  omega=      3375.0

      density cutoff=100.000  fft= 70x 70x 70(    80618 waves     5038 per task)
      wavefnc cutoff= 50.000  fft= 70x 70x 70(    28526 waves     1782 per task)

 technical parameters:
      time step=      5.80     fictitious mass=  400000.0
      tolerance=0.100E-08 (energy)   0.100E-08 (density)
      maximum iterations =      1000 (   10 inner    100 outer )





== Energy Calculation ==


          ============ Grassmann lmbfgs iteration ============
     >>>  ITERATION STARTED AT Sat Apr  5 14:27:11 2025  <<<
    iter.           Energy         DeltaE       DeltaRho 
    ------------------------------------------------------
      10   -0.7944503355E+00   -0.15229E-02    0.69751E-02
     -  10 steepest descent iterations performed
      20   -0.7996269730E+00   -0.13615E-03    0.67568E-04
      30   -0.7998689136E+00   -0.49437E-05    0.56056E-05
      40   -0.7998850450E+00   -0.27967E-06    0.74498E-07
      50   -0.7998858326E+00   -0.11673E-07    0.88047E-09
      60   -0.7998858663E+00   -0.97781E-09    0.16538E-09
  *** tolerance ok. iteration terminated
     >>>  ITERATION ENDED   AT Sat Apr  5 14:27:20 2025  <<<


==  Summary Of Results  ==

 number of electrons: spin up=    1.00000  down=    1.00000 (real space)

 total     energy    :  -0.7998858663E+00 (   -0.39994E+00/ion)
 total orbital energy:  -0.6195618360E+00 (   -0.61956E+00/electron)
 hartree   energy    :   0.6252366852E+00 (    0.62524E+00/electron)
 exc-corr  energy    :   0.0000000000E+00 (    0.00000E+00/electron)
 HF exchange energy  :  -0.3126183426E+00 (   -0.31262E+00/electron)
 ion-ion   energy    :   0.1322943122E+00 (    0.66147E-01/ion)

 kinetic (planewave) :   0.6191377300E+00 (    0.61914E+00/electron)
 V_local (planewave) :  -0.1716936480E+01 (   -0.17169E+01/electron)
 V_nl    (planewave) :  -0.1469997707E+00 (   -0.14700E+00/electron)
 V_Coul  (planewave) :   0.1250473370E+01 (    0.12505E+01/electron)
 V_xc.   (planewave) :   0.0000000000E+00 (    0.00000E+00/electron)
 K.S. HFX energy     :  -0.6252366852E+00 (   -0.62524E+00/electron)
 Virial Coefficient  :  -0.9908342701E+00

 orbital energies:
    -0.3097809E+00 (  -8.430eV)


== Virtual Orbital Calculation ==


 input epsi filename:./pspw_hf_H2.emovecs

 COVOs Mimimization
 ------------------
CI gradient algorithm =         3
maxit_sweeps          =         3
maxit_orb             =       120
maxit_linesearch      =        15
maxerror              = 0.100E-08

     orb,it,eci,eold,eci-eold=                    1                    1 -0.91647100057973896      -0.91563834386092324       -8.3265671881571635E-004 F
     orb,it,eci,eold,eci-eold=                    1                    2 -0.91668643605033040      -0.91647100057973896       -2.1543547059144075E-004 F
     orb,it,eci,eold,eci-eold=                    1                    3 -0.93314760308237610      -0.91668643605033040       -1.6461167032045698E-002 F
     orb,it,eci,eold,eci-eold=                    1                    4 -0.93472777267748675      -0.93314760308237610       -1.5801695951106476E-003 F
     orb,it,eci,eold,eci-eold=                    1                    5 -0.93549970420359507      -0.93472777267748675       -7.7193152610832705E-004 F
     orb,it,eci,eold,eci-eold=                    1                    6 -0.93993108020273730      -0.93549970420359507       -4.4313759991422286E-003 F
     orb,it,eci,eold,eci-eold=                    1                    7 -0.94527649542740766      -0.93993108020273730       -5.3454152246703579E-003 F
     orb,it,eci,eold,eci-eold=                    1                    8 -0.94712075453358713      -0.94527649542740766       -1.8442591061794689E-003 F
     orb,it,eci,eold,eci-eold=                    1                    9 -0.94720457448902640      -0.94712075453358713       -8.3819955439268234E-005 F
     orb,it,eci,eold,eci-eold=                    1                   10 -0.95262218587288550      -0.94720457448902640       -5.4176113838591000E-003 F
     orb,it,eci,eold,eci-eold=                    1                   11 -0.95537565648944156      -0.95262218587288550       -2.7534706165560641E-003 F
     orb,it,eci,eold,eci-eold=                    1                   12 -0.95557767824341844      -0.95537565648944156       -2.0202175397687760E-004 F
     orb,it,eci,eold,eci-eold=                    1                   13 -0.95770959849969983      -0.95557767824341844       -2.1319202562813944E-003 F
     orb,it,eci,eold,eci-eold=                    1                   14 -0.95846032334567133      -0.95770959849969983       -7.5072484597149547E-004 F
     orb,it,eci,eold,eci-eold=                    1                   15 -0.95953294452469629      -0.95846032334567133       -1.0726211790249573E-003 F
     orb,it,eci,eold,eci-eold=                    1                   16 -0.96258747248847154      -0.95953294452469629       -3.0545279637752554E-003 F
     orb,it,eci,eold,eci-eold=                    1                   17 -0.96437636244836122      -0.96258747248847154       -1.7888899598896835E-003 F
     orb,it,eci,eold,eci-eold=                    1                   18 -0.96588339014352620      -0.96437636244836122       -1.5070276951649753E-003 F
     orb,it,eci,eold,eci-eold=                    1                   19 -0.96658151689285499      -0.96588339014352620       -6.9812674932878682E-004 F
     orb,it,eci,eold,eci-eold=                    1                   20 -0.96830690359201932      -0.96658151689285499       -1.7253866991643330E-003 F
     orb,it,eci,eold,eci-eold=                    1                   21 -0.96866322501753843      -0.96830690359201932       -3.5632142551911272E-004 F
     orb,it,eci,eold,eci-eold=                    1                   22 -0.96875144680587622      -0.96866322501753843       -8.8221788337783380E-005 F
     orb,it,eci,eold,eci-eold=                    1                   23 -0.96965517584382199      -0.96875144680587622       -9.0372903794577741E-004 F
     orb,it,eci,eold,eci-eold=                    1                   24 -0.97009141252712938      -0.96965517584382199       -4.3623668330738941E-004 F
     orb,it,eci,eold,eci-eold=                    1                   25 -0.97041056791285774      -0.97009141252712938       -3.1915538572835356E-004 F
     orb,it,eci,eold,eci-eold=                    1                   26 -0.97148682155495525      -0.97041056791285774       -1.0762536420975133E-003 F
     orb,it,eci,eold,eci-eold=                    1                   27 -0.97171626334806971      -0.97148682155495525       -2.2944179311445989E-004 F
     orb,it,eci,eold,eci-eold=                    1                   28 -0.97177244979428878      -0.97171626334806971       -5.6186446219075314E-005 F
     orb,it,eci,eold,eci-eold=                    1                   29 -0.97247534787427869      -0.97177244979428878       -7.0289807998991094E-004 F
     orb,it,eci,eold,eci-eold=                    1                   30 -0.97278864575826507      -0.97247534787427869       -3.1329788398637426E-004 F
     orb,it,eci,eold,eci-eold=                    1                   31 -0.97292114493442161      -0.97278864575826507       -1.3249917615654194E-004 F
     orb,it,eci,eold,eci-eold=                    1                   32 -0.97360605383271936      -0.97292114493442161       -6.8490889829775359E-004 F
     orb,it,eci,eold,eci-eold=                    1                   33 -0.97370795550820943      -0.97360605383271936       -1.0190167549006812E-004 F
     orb,it,eci,eold,eci-eold=                    1                   34 -0.97374457180417107      -0.97370795550820943       -3.6616295961633405E-005 F
     orb,it,eci,eold,eci-eold=                    1                   35 -0.97432638561191365      -0.97374457180417107       -5.8181380774258162E-004 F
     orb,it,eci,eold,eci-eold=                    1                   36 -0.97467666419044596      -0.97432638561191365       -3.5027857853231481E-004 F
     orb,it,eci,eold,eci-eold=                    1                   37 -0.97493717134105240      -0.97467666419044596       -2.6050715060643714E-004 F
     orb,it,eci,eold,eci-eold=                    1                   38 -0.97504792677198882      -0.97493717134105240       -1.1075543093641560E-004 F
     orb,it,eci,eold,eci-eold=                    1                   39 -0.97533540563204435      -0.97504792677198882       -2.8747886005553447E-004 F
     orb,it,eci,eold,eci-eold=                    1                   40 -0.97535423694829393      -0.97533540563204435       -1.8831316249579011E-005 F
     orb,it,eci,eold,eci-eold=                    1                   41 -0.97537818662431441      -0.97535423694829393       -2.3949676020484922E-005 F
     orb,it,eci,eold,eci-eold=                    1                   42 -0.97564952537797744      -0.97537818662431441       -2.7133875366303073E-004 F
     orb,it,eci,eold,eci-eold=                    1                   43 -0.97580463199929357      -0.97564952537797744       -1.5510662131612563E-004 F
     orb,it,eci,eold,eci-eold=                    1                   44 -0.97593760221344195      -0.97580463199929357       -1.3297021414837573E-004 F
     orb,it,eci,eold,eci-eold=                    1                   45 -0.97599769677902137      -0.97593760221344195       -6.0094565579427162E-005 F
     orb,it,eci,eold,eci-eold=                    1                   46 -0.97613003439065626      -0.97599769677902137       -1.3233761163489177E-004 F
     orb,it,eci,eold,eci-eold=                    1                   47 -0.97614123904863992      -0.97613003439065626       -1.1204657983654442E-005 F
     orb,it,eci,eold,eci-eold=                    1                   48 -0.97614732992927622      -0.97614123904863992       -6.0908806363002554E-006 F
     orb,it,eci,eold,eci-eold=                    1                   49 -0.97624635486855615      -0.97614732992927622       -9.9024939279934721E-005 F
     orb,it,eci,eold,eci-eold=                    1                   50 -0.97630283382612759      -0.97624635486855615       -5.6478957571437505E-005 F
     orb,it,eci,eold,eci-eold=                    1                   51 -0.97632128416112740      -0.97630283382612759       -1.8450334999808859E-005 F
     orb,it,eci,eold,eci-eold=                    1                   52 -0.97640140539723985      -0.97632128416112740       -8.0121236112451477E-005 F
     orb,it,eci,eold,eci-eold=                    1                   53 -0.97642930138835315      -0.97640140539723985       -2.7895991113302543E-005 F
     orb,it,eci,eold,eci-eold=                    1                   54 -0.97643909107124272      -0.97642930138835315       -9.7896828895605026E-006 F
     orb,it,eci,eold,eci-eold=                    1                   55 -0.97650118067519698      -0.97643909107124272       -6.2089603954262884E-005 F
     orb,it,eci,eold,eci-eold=                    1                   56 -0.97652618301788729      -0.97650118067519698       -2.5002342690316759E-005 F
     orb,it,eci,eold,eci-eold=                    1                   57 -0.97653498145005924      -0.97652618301788729       -8.7984321719414282E-006 F
     orb,it,eci,eold,eci-eold=                    1                   58 -0.97658638324470792      -0.97653498145005924       -5.1401794648686661E-005 F
     orb,it,eci,eold,eci-eold=                    1                   59 -0.97660758860048602      -0.97658638324470792       -2.1205355778097790E-005 F
     orb,it,eci,eold,eci-eold=                    1                   60 -0.97661430778470226      -0.97660758860048602       -6.7191842162417359E-006 F
     orb,it,eci,eold,eci-eold=                    1                   61 -0.97665326713072442      -0.97661430778470226       -3.8959346022160446E-005 F
     orb,it,eci,eold,eci-eold=                    1                   62 -0.97666801664683156      -0.97665326713072442       -1.4749516107137595E-005 F
     orb,it,eci,eold,eci-eold=                    1                   63 -0.97667344639310560      -0.97666801664683156       -5.4297462740438007E-006 F
     orb,it,eci,eold,eci-eold=                    1                   64 -0.97670669335172933      -0.97667344639310560       -3.3246958623722733E-005 F
     orb,it,eci,eold,eci-eold=                    1                   65 -0.97671998164090457      -0.97670669335172933       -1.3288289175239498E-005 F
     orb,it,eci,eold,eci-eold=                    1                   66 -0.97672404755905862      -0.97671998164090457       -4.0659181540503297E-006 F
     orb,it,eci,eold,eci-eold=                    1                   67 -0.97675252483113073      -0.97672404755905862       -2.8477272072113813E-005 F
     orb,it,eci,eold,eci-eold=                    1                   68 -0.97676740711266707      -0.97675252483113073       -1.4882281536343633E-005 F
     orb,it,eci,eold,eci-eold=                    1                   69 -0.97677220853579283      -0.97676740711266707       -4.8014231257553774E-006 F
     orb,it,eci,eold,eci-eold=                    1                   70 -0.97679458302838640      -0.97677220853579283       -2.2374492593568718E-005 F
     orb,it,eci,eold,eci-eold=                    1                   71 -0.97680136806106765      -0.97679458302838640       -6.7850326812557427E-006 F
     orb,it,eci,eold,eci-eold=                    1                   72 -0.97680283933846890      -0.97680136806106765       -1.4712774012437535E-006 F
     orb,it,eci,eold,eci-eold=                    1                   73 -0.97681863302150784      -0.97680283933846890       -1.5793683038944906E-005 F
     orb,it,eci,eold,eci-eold=                    1                   74 -0.97682697108928218      -0.97681863302150784       -8.3380677743383202E-006 F
     orb,it,eci,eold,eci-eold=                    1                   75 -0.97683044617822712      -0.97682697108928218       -3.4750889449375322E-006 F
     orb,it,eci,eold,eci-eold=                    1                   76 -0.97684471912858406      -0.97683044617822712       -1.4272950356941649E-005 F
     orb,it,eci,eold,eci-eold=                    1                   77 -0.97684962469169978      -0.97684471912858406       -4.9055631157202129E-006 F
     orb,it,eci,eold,eci-eold=                    1                   78 -0.97685119522272301      -0.97684962469169978       -1.5705310232316805E-006 F
     orb,it,eci,eold,eci-eold=                    1                   79 -0.97686140294446233      -0.97685119522272301       -1.0207721739319275E-005 F
     orb,it,eci,eold,eci-eold=                    1                   80 -0.97686570513288573      -0.97686140294446233       -4.3021884233995777E-006 F
     orb,it,eci,eold,eci-eold=                    1                   81 -0.97686749743729562      -0.97686570513288573       -1.7923044098866470E-006 F
     orb,it,eci,eold,eci-eold=                    1                   82 -0.97687658892557960      -0.97686749743729562       -9.0914882839854272E-006 F
     orb,it,eci,eold,eci-eold=                    1                   83 -0.97688044180992162      -0.97687658892557960       -3.8528843420149173E-006 F
     orb,it,eci,eold,eci-eold=                    1                   84 -0.97688181089976700      -0.97688044180992162       -1.3690898453821987E-006 F
     orb,it,eci,eold,eci-eold=                    1                   85 -0.97688890494882008      -0.97688181089976700       -7.0940490530801981E-006 F
     orb,it,eci,eold,eci-eold=                    1                   86 -0.97689140802050223      -0.97688890494882008       -2.5030716821472510E-006 F
     orb,it,eci,eold,eci-eold=                    1                   87 -0.97689227503793719      -0.97689140802050223       -8.6701743495787298E-007 F
     orb,it,eci,eold,eci-eold=                    1                   88 -0.97689841507753372      -0.97689227503793719       -6.1400395965360843E-006 F
     orb,it,eci,eold,eci-eold=                    1                   89 -0.97690181527151088      -0.97689841507753372       -3.4001939771544087E-006 F
     orb,it,eci,eold,eci-eold=                    1                   90 -0.97690312246000643      -0.97690181527151088       -1.3071884955584423E-006 F
     orb,it,eci,eold,eci-eold=                    1                   91 -0.97690834244941349      -0.97690312246000643       -5.2199894070570352E-006 F
     orb,it,eci,eold,eci-eold=                    1                   92 -0.97690944166113680      -0.97690834244941349       -1.0992117233099563E-006 F
     orb,it,eci,eold,eci-eold=                    1                   93 -0.97690953573705408      -0.97690944166113680       -9.4075917278502175E-008 F
     orb,it,eci,eold,eci-eold=                    1                   94 -0.97691319800093168      -0.97690953573705408       -3.6622638776018235E-006 F
     orb,it,eci,eold,eci-eold=                    1                   95 -0.97691547383257826      -0.97691319800093168       -2.2758316465809614E-006 F
     orb,it,eci,eold,eci-eold=                    1                   96 -0.97691628893358240      -0.97691547383257826       -8.1510100413684228E-007 F
     orb,it,eci,eold,eci-eold=                    1                   97 -0.97691946354516301      -0.97691628893358240       -3.1746115806141617E-006 F
     orb,it,eci,eold,eci-eold=                    1                   98 -0.97692054812129192      -0.97691946354516301       -1.0845761289068889E-006 F
     orb,it,eci,eold,eci-eold=                    1                   99 -0.97692097313017057      -0.97692054812129192       -4.2500887864616033E-007 F
     orb,it,eci,eold,eci-eold=                    1                  100 -0.97692346389715290      -0.97692097313017057       -2.4907669823326373E-006 F
     orb,it,eci,eold,eci-eold=                    1                  101 -0.97692417033001056      -0.97692346389715290       -7.0643285765559227E-007 F
     orb,it,eci,eold,eci-eold=                    1                  102 -0.97692427205972177      -0.97692417033001056       -1.0172971121047425E-007 F
     orb,it,eci,eold,eci-eold=                    1                  103 -0.97692597604425879      -0.97692427205972177       -1.7039845370270257E-006 F
     orb,it,eci,eold,eci-eold=                    1                  104 -0.97692687780578213      -0.97692597604425879       -9.0176152334198179E-007 F
     orb,it,eci,eold,eci-eold=                    1                  105 -0.97692724729268021      -0.97692687780578213       -3.6948689807747570E-007 F
     orb,it,eci,eold,eci-eold=                    1                  106 -0.97692889069984268      -0.97692724729268021       -1.6434071624660263E-006 F
     orb,it,eci,eold,eci-eold=                    1                  107 -0.97692947327932089      -0.97692889069984268       -5.8257947821438449E-007 F
     orb,it,eci,eold,eci-eold=                    1                  108 -0.97692964359445744      -0.97692947327932089       -1.7031513654952590E-007 F
     orb,it,eci,eold,eci-eold=                    1                  109 -0.97693098422267632      -0.97692964359445744       -1.3406282188821450E-006 F
     orb,it,eci,eold,eci-eold=                    1                  110 -0.97693169339574770      -0.97693098422267632       -7.0917307137818852E-007 F
     orb,it,eci,eold,eci-eold=                    1                  111 -0.97693192719685529      -0.97693169339574770       -2.3380110758530748E-007 F
     orb,it,eci,eold,eci-eold=                    1                  112 -0.97693307405024232      -0.97693192719685529       -1.1468533870351294E-006 F
     orb,it,eci,eold,eci-eold=                    1                  113 -0.97693358046785583      -0.97693307405024232       -5.0641761351055692E-007 F
     orb,it,eci,eold,eci-eold=                    1                  114 -0.97693375961579609      -0.97693358046785583       -1.7914794026019365E-007 F
     orb,it,eci,eold,eci-eold=                    1                  115 -0.97693470144207573      -0.97693375961579609       -9.4182627963235177E-007 F
     orb,it,eci,eold,eci-eold=                    1                  116 -0.97693503470089627      -0.97693470144207573       -3.3325882053958367E-007 F
     orb,it,eci,eold,eci-eold=                    1                  117 -0.97693512214803668      -0.97693503470089627       -8.7447140417751257E-008 F
     orb,it,eci,eold,eci-eold=                    1                  118 -0.97693586391355236      -0.97693512214803668       -7.4176551567717297E-007 F
     orb,it,eci,eold,eci-eold=                    1                  119 -0.97693625939655693      -0.97693586391355236       -3.9548300456715424E-007 F
     orb,it,eci,eold,eci-eold=                    1                  120 -0.97693639988839887      -0.97693625939655693       -1.4049184193787312E-007 F
     orb,it,eci,eold,eci-eold=                    1                  121 -0.97693701654658160      -0.97693639988839887       -6.1665818273937134E-007 F
     orbital   1 current e= -0.150596E+00 error=0.758E-01 (eci= -0.976937017E+00 error=0.617E-06) iterations 121(   0 preconditioned, Ep,Sp= 20.0  200.0)
     orb,it,eci,eold,eci-eold=                    1                    1 -0.97693874368404821      -0.97693701654658160       -1.7271374666005812E-006 F
     orb,it,eci,eold,eci-eold=                    1                    2 -0.97693921750753199      -0.97693874368404821       -4.7382348378199879E-007 F
     orb,it,eci,eold,eci-eold=                    1                    3 -0.97693922620114859      -0.97693921750753199       -8.6936166043827257E-009 F
     orb,it,eci,eold,eci-eold=                    1                    4 -0.97693965979984720      -0.97693922620114859       -4.3359869861259170E-007 F
     orb,it,eci,eold,eci-eold=                    1                    5 -0.97694005216766100      -0.97693965979984720       -3.9236781379514696E-007 F
     orb,it,eci,eold,eci-eold=                    1                    6 -0.97694027273872397      -0.97694005216766100       -2.2057106296990980E-007 F
     orb,it,eci,eold,eci-eold=                    1                    7 -0.97694047097166936      -0.97694027273872397       -1.9823294539200731E-007 F
     orb,it,eci,eold,eci-eold=                    1                    8 -0.97694061473262239      -0.97694047097166936       -1.4376095303081371E-007 F
     orb,it,eci,eold,eci-eold=                    1                    9 -0.97694068754929586      -0.97694061473262239       -7.2816673468700799E-008 F
     orb,it,eci,eold,eci-eold=                    1                   10 -0.97694074946882781      -0.97694068754929586       -6.1919531946230677E-008 F
     orb,it,eci,eold,eci-eold=                    1                   11 -0.97694077599846729      -0.97694074946882781       -2.6529639485239898E-008 F
     orb,it,eci,eold,eci-eold=                    1                   12 -0.97694081797998433      -0.97694077599846729       -4.1981517040490246E-008 F
     orb,it,eci,eold,eci-eold=                    1                   13 -0.97694081797998433      -0.97694081797998433        0.0000000000000000      F
     orbital   1 current e= -0.150596E+00 error=0.104E-06 (eci= -0.976940818E+00 error=0.000E+00) iterations  13(   0 preconditioned, Ep,Sp= 20.0  200.0)
     orb,it,eci,eold,eci-eold=                    1                    1 -0.97694090332176009      -0.97694081701761426       -8.6304145829885215E-008 F
     orb,it,eci,eold,eci-eold=                    1                    2 -0.97694091538753369      -0.97694090332176009       -1.2065773602465413E-008 F
     orb,it,eci,eold,eci-eold=                    1                    3 -0.97694094588442049      -0.97694091538753369       -3.0496886793685007E-008 F
     orb,it,eci,eold,eci-eold=                    1                    4 -0.97694095151681015      -0.97694094588442049       -5.6323896657772821E-009 F
     orb,it,eci,eold,eci-eold=                    1                    5 -0.97694095298132666      -0.97694095151681015       -1.4645165080651168E-009 F
     orb,it,eci,eold,eci-eold=                    1                    6 -0.97694096376964346      -0.97694095298132666       -1.0788316795462549E-008 F
     orb,it,eci,eold,eci-eold=                    1                    7 -0.97694096866673119      -0.97694096376964346       -4.8970877353227138E-009 F
     orb,it,eci,eold,eci-eold=                    1                    8 -0.97694097053793949      -0.97694096866673119       -1.8712082994198909E-009 F
     orb,it,eci,eold,eci-eold=                    1                    9 -0.97694097107601374      -0.97694097053793949       -5.3807425182128554E-010 F
     orbital   1 current e= -0.150596E+00 error=0.399E-06 (eci= -0.976940971E+00 error=0.538E-09) iterations   9(   0 preconditioned, Ep,Sp= 20.0  200.0)
     orb,it,eci,eold,eci-eold=                    2                    1 -0.80338282034367192      -0.80285641336097946       -5.2640698269246222E-004 F
     orb,it,eci,eold,eci-eold=                    2                    2 -0.80342438177731279      -0.80338282034367192       -4.1561433640868728E-005 F
     orb,it,eci,eold,eci-eold=                    2                    3 -0.80346723034990419      -0.80342438177731279       -4.2848572591402956E-005 F
     orb,it,eci,eold,eci-eold=                    2                    4 -0.80357775783739060      -0.80346723034990419       -1.1052748748641150E-004 F
     orb,it,eci,eold,eci-eold=                    2                    5 -0.80364273771469930      -0.80357775783739060       -6.4979877308690703E-005 F
     orb,it,eci,eold,eci-eold=                    2                    6 -0.80373575297702105      -0.80364273771469930       -9.3015262321749503E-005 F
     orb,it,eci,eold,eci-eold=                    2                    7 -0.80379790490517067      -0.80373575297702105       -6.2151928149623004E-005 F
     orb,it,eci,eold,eci-eold=                    2                    8 -0.80384853083021712      -0.80379790490517067       -5.0625925046454689E-005 F
     orb,it,eci,eold,eci-eold=                    2                    9 -0.80387344360879953      -0.80384853083021712       -2.4912778582408812E-005 F
     orb,it,eci,eold,eci-eold=                    2                   10 -0.80389875727545368      -0.80387344360879953       -2.5313666654147582E-005 F
     orb,it,eci,eold,eci-eold=                    2                   11 -0.80390821587423789      -0.80389875727545368       -9.4585987842066288E-006 F
     orb,it,eci,eold,eci-eold=                    2                   12 -0.80391207279262666      -0.80390821587423789       -3.8569183887782188E-006 F
     orb,it,eci,eold,eci-eold=                    2                   13 -0.80394852513323090      -0.80391207279262666       -3.6452340604231637E-005 F
     orb,it,eci,eold,eci-eold=                    2                   14 -0.80397073428503951      -0.80394852513323090       -2.2209151808616490E-005 F
     orb,it,eci,eold,eci-eold=                    2                   15 -0.80398829869965649      -0.80397073428503951       -1.7564414616977331E-005 F
     orb,it,eci,eold,eci-eold=                    2                   16 -0.80399733241718851      -0.80398829869965649       -9.0337175320254204E-006 F
     orb,it,eci,eold,eci-eold=                    2                   17 -0.80402861856990704      -0.80399733241718851       -3.1286152718523752E-005 F
     orb,it,eci,eold,eci-eold=                    2                   18 -0.80404046150921649      -0.80402861856990704       -1.1842939309447686E-005 F
     orb,it,eci,eold,eci-eold=                    2                   19 -0.80404466950206288      -0.80404046150921649       -4.2079928463945038E-006 F
     orb,it,eci,eold,eci-eold=                    2                   20 -0.80406448098015271      -0.80404466950206288       -1.9811478089826196E-005 F
     orb,it,eci,eold,eci-eold=                    2                   21 -0.80406813868016458      -0.80406448098015271       -3.6577000118720449E-006 F
     orb,it,eci,eold,eci-eold=                    2                   22 -0.80406999146866276      -0.80406813868016458       -1.8527884981800469E-006 F
     orb,it,eci,eold,eci-eold=                    2                   23 -0.80408709750963359      -0.80406999146866276       -1.7106040970826797E-005 F
     orb,it,eci,eold,eci-eold=                    2                   24 -0.80409383930312828      -0.80408709750963359       -6.7417934946911728E-006 F
     orb,it,eci,eold,eci-eold=                    2                   25 -0.80409540286876890      -0.80409383930312828       -1.5635656406276510E-006 F
     orb,it,eci,eold,eci-eold=                    2                   26 -0.80410605160641957      -0.80409540286876890       -1.0648737650664764E-005 F
     orb,it,eci,eold,eci-eold=                    2                   27 -0.80410831152125739      -0.80410605160641957       -2.2599148378210643E-006 F
     orb,it,eci,eold,eci-eold=                    2                   28 -0.80410947032599300      -0.80410831152125739       -1.1588047356125841E-006 F
     orb,it,eci,eold,eci-eold=                    2                   29 -0.80411968111728660      -0.80410947032599300       -1.0210791293596699E-005 F
     orb,it,eci,eold,eci-eold=                    2                   30 -0.80412279953920740      -0.80411968111728660       -3.1184219208002517E-006 F
     orb,it,eci,eold,eci-eold=                    2                   31 -0.80412384644938240      -0.80412279953920740       -1.0469101749954746E-006 F
     orb,it,eci,eold,eci-eold=                    2                   32 -0.80413222736246781      -0.80412384644938240       -8.3809130854151093E-006 F
     orb,it,eci,eold,eci-eold=                    2                   33 -0.80413686166171117      -0.80413222736246781       -4.6342992433556773E-006 F
     orb,it,eci,eold,eci-eold=                    2                   34 -0.80414352023731483      -0.80413686166171117       -6.6585756036685595E-006 F
     orb,it,eci,eold,eci-eold=                    2                   35 -0.80414415287026486      -0.80414352023731483       -6.3263295002613518E-007 F
     orb,it,eci,eold,eci-eold=                    2                   36 -0.80414490177604181      -0.80414415287026486       -7.4890577694830540E-007 F
     orb,it,eci,eold,eci-eold=                    2                   37 -0.80414883973593376      -0.80414490177604181       -3.9379598919531134E-006 F
     orb,it,eci,eold,eci-eold=                    2                   38 -0.80414999443550483      -0.80414883973593376       -1.1546995710709496E-006 F
     orb,it,eci,eold,eci-eold=                    2                   39 -0.80415085352798688      -0.80414999443550483       -8.5909248204174560E-007 F
     orb,it,eci,eold,eci-eold=                    2                   40 -0.80415520462902024      -0.80415085352798688       -4.3511010333618927E-006 F
     orb,it,eci,eold,eci-eold=                    2                   41 -0.80415628519510340      -0.80415520462902024       -1.0805660831669783E-006 F
     orb,it,eci,eold,eci-eold=                    2                   42 -0.80415667681053349      -0.80415628519510340       -3.9161543008425781E-007 F
     orb,it,eci,eold,eci-eold=                    2                   43 -0.80416054961058092      -0.80415667681053349       -3.8728000474330670E-006 F
     orb,it,eci,eold,eci-eold=                    2                   44 -0.80416277998156049      -0.80416054961058092       -2.2303709795723492E-006 F
     orb,it,eci,eold,eci-eold=                    2                   45 -0.80416532182217271      -0.80416277998156049       -2.5418406122135195E-006 F
     orb,it,eci,eold,eci-eold=                    2                   46 -0.80416669452853051      -0.80416532182217271       -1.3727063578050647E-006 F
     orb,it,eci,eold,eci-eold=                    2                   47 -0.80416863599005728      -0.80416669452853051       -1.9414615267665525E-006 F
     orb,it,eci,eold,eci-eold=                    2                   48 -0.80416961103530737      -0.80416863599005728       -9.7504525009561860E-007 F
     orb,it,eci,eold,eci-eold=                    2                   49 -0.80417100687491183      -0.80416961103530737       -1.3958396044566612E-006 F
     orb,it,eci,eold,eci-eold=                    2                   50 -0.80417182632127471      -0.80417100687491183       -8.1944636287634154E-007 F
     orb,it,eci,eold,eci-eold=                    2                   51 -0.80417296090432755      -0.80417182632127471       -1.1345830528419754E-006 F
     orb,it,eci,eold,eci-eold=                    2                   52 -0.80417360010237415      -0.80417296090432755       -6.3919804660361734E-007 F
     orb,it,eci,eold,eci-eold=                    2                   53 -0.80417455719477571      -0.80417360010237415       -9.5709240155450459E-007 F
     orb,it,eci,eold,eci-eold=                    2                   54 -0.80417507136586230      -0.80417455719477571       -5.1417108659634891E-007 F
     orb,it,eci,eold,eci-eold=                    2                   55 -0.80417568478194745      -0.80417507136586230       -6.1341608514897672E-007 F
     orb,it,eci,eold,eci-eold=                    2                   56 -0.80417601306082787      -0.80417568478194745       -3.2827888041264686E-007 F
     orb,it,eci,eold,eci-eold=                    2                   57 -0.80417662692059855      -0.80417601306082787       -6.1385977068173503E-007 F
     orb,it,eci,eold,eci-eold=                    2                   58 -0.80417664823288892      -0.80417662692059855       -2.1312290376940268E-008 F
     orb,it,eci,eold,eci-eold=                    2                   59 -0.80417665806308969      -0.80417664823288892       -9.8302007645045819E-009 F
     orb,it,eci,eold,eci-eold=                    2                   60 -0.80417702361627064      -0.80417665806308969       -3.6555318094766420E-007 F
     orb,it,eci,eold,eci-eold=                    2                   61 -0.80417718216039424      -0.80417702361627064       -1.5854412360738479E-007 F
     orb,it,eci,eold,eci-eold=                    2                   62 -0.80417723793472951      -0.80417718216039424       -5.5774335261382646E-008 F
     orb,it,eci,eold,eci-eold=                    2                   63 -0.80417761240873764      -0.80417723793472951       -3.7447400813572784E-007 F
     orb,it,eci,eold,eci-eold=                    2                   64 -0.80417786245278622      -0.80417761240873764       -2.5004404857753570E-007 F
     orb,it,eci,eold,eci-eold=                    2                   65 -0.80417794667373410      -0.80417786245278622       -8.4220947882407415E-008 F
     orb,it,eci,eold,eci-eold=                    2                   66 -0.80417817973161188      -0.80417794667373410       -2.3305787777427867E-007 F
     orb,it,eci,eold,eci-eold=                    2                   67 -0.80417823214177442      -0.80417817973161188       -5.2410162543203853E-008 F
     orb,it,eci,eold,eci-eold=                    2                   68 -0.80417828288639881      -0.80417823214177442       -5.0744624391363402E-008 F
     orb,it,eci,eold,eci-eold=                    2                   69 -0.80417851475103164      -0.80417828288639881       -2.3186463282698355E-007 F
     orb,it,eci,eold,eci-eold=                    2                   70 -0.80417854165527447      -0.80417851475103164       -2.6904242833580838E-008 F
     orb,it,eci,eold,eci-eold=                    2                   71 -0.80417855567792795      -0.80417854165527447       -1.4022653482825831E-008 F
     orb,it,eci,eold,eci-eold=                    2                   72 -0.80417874942605061      -0.80417855567792795       -1.9374812265660069E-007 F
     orb,it,eci,eold,eci-eold=                    2                   73 -0.80417876484084383      -0.80417874942605061       -1.5414793219648004E-008 F
     orb,it,eci,eold,eci-eold=                    2                   74 -0.80417877773777480      -0.80417876484084383       -1.2896930967620790E-008 F
     orb,it,eci,eold,eci-eold=                    2                   75 -0.80417896600334915      -0.80417877773777480       -1.8826557435236424E-007 F
     orb,it,eci,eold,eci-eold=                    2                   76 -0.80417899393552439      -0.80417896600334915       -2.7932175239442358E-008 F
     orb,it,eci,eold,eci-eold=                    2                   77 -0.80417900236668260      -0.80417899393552439       -8.4311582160268017E-009 F
     orb,it,eci,eold,eci-eold=                    2                   78 -0.80417915697785736      -0.80417900236668260       -1.5461117475190633E-007 F
     orb,it,eci,eold,eci-eold=                    2                   79 -0.80417917851841803      -0.80417915697785736       -2.1540560668498188E-008 F
     orb,it,eci,eold,eci-eold=                    2                   80 -0.80417918371867403      -0.80417917851841803       -5.2002560035901979E-009 F
     orb,it,eci,eold,eci-eold=                    2                   81 -0.80417930921056380      -0.80417918371867403       -1.2549188976862524E-007 F
     orb,it,eci,eold,eci-eold=                    2                   82 -0.80417933019172971      -0.80417930921056380       -2.0981165915756606E-008 F
     orb,it,eci,eold,eci-eold=                    2                   83 -0.80417933442393696      -0.80417933019172971       -4.2322072513201192E-009 F
     orb,it,eci,eold,eci-eold=                    2                   84 -0.80417943756189203      -0.80417933442393696       -1.0313795506533552E-007 F
     orb,it,eci,eold,eci-eold=                    2                   85 -0.80417945610192643      -0.80417943756189203       -1.8540034396608007E-008 F
     orb,it,eci,eold,eci-eold=                    2                   86 -0.80417945985161288      -0.80417945610192643       -3.7496864502273297E-009 F
     orb,it,eci,eold,eci-eold=                    2                   87 -0.80417954284390691      -0.80417945985161288       -8.2992294037076419E-008 F
     orb,it,eci,eold,eci-eold=                    2                   88 -0.80417956613000063      -0.80417954284390691       -2.3286093719931955E-008 F
     orb,it,eci,eold,eci-eold=                    2                   89 -0.80417956613000063      -0.80417956613000063        0.0000000000000000      F
     orbital   2 current e=  0.335691E+00 error=0.584E-01 (eci= -0.804179566E+00 error=0.000E+00) iterations  89(   0 preconditioned, Ep,Sp= 20.0  200.0)
     orb,it,eci,eold,eci-eold=                    2                    1 -0.80417964879338766      -0.80417956609113328       -8.2702254378119733E-008 F
     orb,it,eci,eold,eci-eold=                    2                    2 -0.80417969798671485      -0.80417964879338766       -4.9193327189556157E-008 F
     orb,it,eci,eold,eci-eold=                    2                    3 -0.80417981450850329      -0.80417969798671485       -1.1652178844023808E-007 F
     orb,it,eci,eold,eci-eold=                    2                    4 -0.80417986862264912      -0.80417981450850329       -5.4114145831007932E-008 F
     orb,it,eci,eold,eci-eold=                    2                    5 -0.80417987756820364      -0.80417986862264912       -8.9455545193573016E-009 F
     orb,it,eci,eold,eci-eold=                    2                    6 -0.80417987818754821      -0.80417987756820364       -6.1934457562529133E-010 F
     orbital   2 current e=  0.335645E+00 error=0.466E-04 (eci= -0.804179878E+00 error=0.619E-09) iterations   6(   0 preconditioned, Ep,Sp= 20.0  200.0)
     orb,it,eci,eold,eci-eold=                    2                    1 -0.80417990503165560      -0.80417987818754821       -2.6844107381407412E-008 F
     orb,it,eci,eold,eci-eold=                    2                    2 -0.80417992359191326      -0.80417990503165560       -1.8560257664113067E-008 F
     orb,it,eci,eold,eci-eold=                    2                    3 -0.80417993490408968      -0.80417992359191326       -1.1312176417810349E-008 F
     orb,it,eci,eold,eci-eold=                    2                    4 -0.80417994159738937      -0.80417993490408968       -6.6932996922730581E-009 F
     orb,it,eci,eold,eci-eold=                    2                    5 -0.80417995142171028      -0.80417994159738937       -9.8243209123438646E-009 F
     orb,it,eci,eold,eci-eold=                    2                    6 -0.80417995589473956      -0.80417995142171028       -4.4730292803052407E-009 F
     orb,it,eci,eold,eci-eold=                    2                    7 -0.80417995777150419      -0.80417995589473956       -1.8767646325912324E-009 F
     orb,it,eci,eold,eci-eold=                    2                    8 -0.80417995904859452      -0.80417995777150419       -1.2770903223824348E-009 F
     orb,it,eci,eold,eci-eold=                    2                    9 -0.80417996135994874      -0.80417995904859452       -2.3113542191310898E-009 F
     orb,it,eci,eold,eci-eold=                    2                   10 -0.80417996157142979      -0.80417996135994874       -2.1148105489032787E-010 F
     orbital   2 current e=  0.335647E+00 error=0.206E-05 (eci= -0.804179962E+00 error=0.211E-09) iterations  10(   0 preconditioned, Ep,Sp= 20.0  200.0)
     orb,it,eci,eold,eci-eold=                    3                    1 -0.80172886578378366      -0.80164714886604083       -8.1716917742835626E-005 F
     orb,it,eci,eold,eci-eold=                    3                    2 -0.80173983875004384      -0.80172886578378366       -1.0972966260180961E-005 F
     orb,it,eci,eold,eci-eold=                    3                    3 -0.80178053614441980      -0.80173983875004384       -4.0697394375954765E-005 F
     orb,it,eci,eold,eci-eold=                    3                    4 -0.80179033377056441      -0.80178053614441980       -9.7976261446142132E-006 F
     orb,it,eci,eold,eci-eold=                    3                    5 -0.80182322003826623      -0.80179033377056441       -3.2886267701814909E-005 F
     orb,it,eci,eold,eci-eold=                    3                    6 -0.80184822246183851      -0.80182322003826623       -2.5002423572284549E-005 F
     orb,it,eci,eold,eci-eold=                    3                    7 -0.80185763412253075      -0.80184822246183851       -9.4116606922378665E-006 F
     orb,it,eci,eold,eci-eold=                    3                    8 -0.80189436130477532      -0.80185763412253075       -3.6727182244566947E-005 F
     orb,it,eci,eold,eci-eold=                    3                    9 -0.80189879488316074      -0.80189436130477532       -4.4335783854210220E-006 F
     orb,it,eci,eold,eci-eold=                    3                   10 -0.80190142905372985      -0.80189879488316074       -2.6341705691157458E-006 F
     orb,it,eci,eold,eci-eold=                    3                   11 -0.80192749868989255      -0.80190142905372985       -2.6069636162695531E-005 F
     orb,it,eci,eold,eci-eold=                    3                   12 -0.80193426545968816      -0.80192749868989255       -6.7667697956075301E-006 F
     orb,it,eci,eold,eci-eold=                    3                   13 -0.80193761945085829      -0.80193426545968816       -3.3539911701296887E-006 F
     orb,it,eci,eold,eci-eold=                    3                   14 -0.80196088289572132      -0.80193761945085829       -2.3263444863030891E-005 F
     orb,it,eci,eold,eci-eold=                    3                   15 -0.80196596855468161      -0.80196088289572132       -5.0856589602910063E-006 F
     orb,it,eci,eold,eci-eold=                    3                   16 -0.80196688154446760      -0.80196596855468161       -9.1298978599496650E-007 F
     orb,it,eci,eold,eci-eold=                    3                   17 -0.80198580776786876      -0.80196688154446760       -1.8926223401161124E-005 F
     orb,it,eci,eold,eci-eold=                    3                   18 -0.80199295790758662      -0.80198580776786876       -7.1501397178597159E-006 F
     orb,it,eci,eold,eci-eold=                    3                   19 -0.80199421213472699      -0.80199295790758662       -1.2542271403681582E-006 F
     orb,it,eci,eold,eci-eold=                    3                   20 -0.80200962915176954      -0.80199421213472699       -1.5417017042551606E-005 F
     orb,it,eci,eold,eci-eold=                    3                   21 -0.80201576253968132      -0.80200962915176954       -6.1333879117775325E-006 F
     orb,it,eci,eold,eci-eold=                    3                   22 -0.80201743795146019      -0.80201576253968132       -1.6754117788675416E-006 F
     orb,it,eci,eold,eci-eold=                    3                   23 -0.80203055033230930      -0.80201743795146019       -1.3112380849111815E-005 F
     orb,it,eci,eold,eci-eold=                    3                   24 -0.80203520549390173      -0.80203055033230930       -4.6551615924261824E-006 F
     orb,it,eci,eold,eci-eold=                    3                   25 -0.80203674512007628      -0.80203520549390173       -1.5396261745515005E-006 F
     orb,it,eci,eold,eci-eold=                    3                   26 -0.80204851481748829      -0.80203674512007628       -1.1769697412011837E-005 F
     orb,it,eci,eold,eci-eold=                    3                   27 -0.80205161120504243      -0.80204851481748829       -3.0963875541356600E-006 F
     orb,it,eci,eold,eci-eold=                    3                   28 -0.80205175253902983      -0.80205161120504243       -1.4133398740234782E-007 F
     orb,it,eci,eold,eci-eold=                    3                   29 -0.80205985270432645      -0.80205175253902983       -8.1001652966206095E-006 F
     orb,it,eci,eold,eci-eold=                    3                   30 -0.80206211153796381      -0.80205985270432645       -2.2588336373585705E-006 F
     orb,it,eci,eold,eci-eold=                    3                   31 -0.80206213613218313      -0.80206211153796381       -2.4594219327767064E-008 F
     orb,it,eci,eold,eci-eold=                    3                   32 -0.80206783279077709      -0.80206213613218313       -5.6966585939566272E-006 F
     orb,it,eci,eold,eci-eold=                    3                   33 -0.80206953415983473      -0.80206783279077709       -1.7013690576384022E-006 F
     orb,it,eci,eold,eci-eold=                    3                   34 -0.80206967599356349      -0.80206953415983473       -1.4183372876175326E-007 F
     orb,it,eci,eold,eci-eold=                    3                   35 -0.80207384449075447      -0.80206967599356349       -4.1684971909816682E-006 F
     orb,it,eci,eold,eci-eold=                    3                   36 -0.80207576226280897      -0.80207384449075447       -1.9177720544938381E-006 F
     orb,it,eci,eold,eci-eold=                    3                   37 -0.80207653845248594      -0.80207576226280897       -7.7618967697645758E-007 F
     orb,it,eci,eold,eci-eold=                    3                   38 -0.80208048509140861      -0.80207653845248594       -3.9466389226694432E-006 F
     orb,it,eci,eold,eci-eold=                    3                   39 -0.80208196007103094      -0.80208048509140861       -1.4749796223290090E-006 F
     orb,it,eci,eold,eci-eold=                    3                   40 -0.80208252786542422      -0.80208196007103094       -5.6779439328025205E-007 F
     orb,it,eci,eold,eci-eold=                    3                   41 -0.80208574848804592      -0.80208252786542422       -3.2206226217024181E-006 F
     orb,it,eci,eold,eci-eold=                    3                   42 -0.80208688309141052      -0.80208574848804592       -1.1346033645942555E-006 F
     orb,it,eci,eold,eci-eold=                    3                   43 -0.80208730226202407      -0.80208688309141052       -4.1917061355256635E-007 F
     orb,it,eci,eold,eci-eold=                    3                   44 -0.80208991948150588      -0.80208730226202407       -2.6172194818041561E-006 F
     orb,it,eci,eold,eci-eold=                    3                   45 -0.80209070826907247      -0.80208991948150588       -7.8878756659683802E-007 F
     orb,it,eci,eold,eci-eold=                    3                   46 -0.80209091384750797      -0.80209070826907247       -2.0557843549706689E-007 F
     orb,it,eci,eold,eci-eold=                    3                   47 -0.80209285269078823      -0.80209091384750797       -1.9388432802580624E-006 F
     orb,it,eci,eold,eci-eold=                    3                   48 -0.80209347066593928      -0.80209285269078823       -6.1797515105155298E-007 F
     orb,it,eci,eold,eci-eold=                    3                   49 -0.80209362918704641      -0.80209347066593928       -1.5852110712977208E-007 F
     orb,it,eci,eold,eci-eold=                    3                   50 -0.80209511197279959      -0.80209362918704641       -1.4827857531818367E-006 F
     orb,it,eci,eold,eci-eold=                    3                   51 -0.80209549205513797      -0.80209511197279959       -3.8008233838038308E-007 F
     orb,it,eci,eold,eci-eold=                    3                   52 -0.80209554852279352      -0.80209549205513797       -5.6467655551450946E-008 F
     orb,it,eci,eold,eci-eold=                    3                   53 -0.80209669141118922      -0.80209554852279352       -1.1428883956998703E-006 F
     orb,it,eci,eold,eci-eold=                    3                   54 -0.80209705484564664      -0.80209669141118922       -3.6343445741771063E-007 F
     orb,it,eci,eold,eci-eold=                    3                   55 -0.80209709286251485      -0.80209705484564664       -3.8016868209034271E-008 F
     orb,it,eci,eold,eci-eold=                    3                   56 -0.80209799989172315      -0.80209709286251485       -9.0702920829688338E-007 F
     orb,it,eci,eold,eci-eold=                    3                   57 -0.80209833582901147      -0.80209799989172315       -3.3593728832048697E-007 F
     orb,it,eci,eold,eci-eold=                    3                   58 -0.80209837909636428      -0.80209833582901147       -4.3267352811682258E-008 F
     orb,it,eci,eold,eci-eold=                    3                   59 -0.80209912689972074      -0.80209837909636428       -7.4780335646007501E-007 F
     orb,it,eci,eold,eci-eold=                    3                   60 -0.80209942633807219      -0.80209912689972074       -2.9943835144763398E-007 F
     orb,it,eci,eold,eci-eold=                    3                   61 -0.80209947386810132      -0.80209942633807219       -4.7530029134712493E-008 F
     orb,it,eci,eold,eci-eold=                    3                   62 -0.80210009375580549      -0.80209947386810132       -6.1988770416743222E-007 F
     orb,it,eci,eold,eci-eold=                    3                   63 -0.80210036007437324      -0.80210009375580549       -2.6631856775427565E-007 F
     orb,it,eci,eold,eci-eold=                    3                   64 -0.80210042073780896      -0.80210036007437324       -6.0663435719199299E-008 F
     orb,it,eci,eold,eci-eold=                    3                   65 -0.80210093786285186      -0.80210042073780896       -5.1712504289813666E-007 F
     orb,it,eci,eold,eci-eold=                    3                   66 -0.80210111185312494      -0.80210093786285186       -1.7399027307796189E-007 F
     orb,it,eci,eold,eci-eold=                    3                   67 -0.80210113667782346      -0.80210111185312494       -2.4824698519054778E-008 F
     orb,it,eci,eold,eci-eold=                    3                   68 -0.80210149712255518      -0.80210113667782346       -3.6044473172847091E-007 F
     orb,it,eci,eold,eci-eold=                    3                   69 -0.80210158383145969      -0.80210149712255518       -8.6708904500909512E-008 F
     orb,it,eci,eold,eci-eold=                    3                   70 -0.80210158730412173      -0.80210158383145969       -3.4726620468106262E-009 F
     orb,it,eci,eold,eci-eold=                    3                   71 -0.80210187018326984      -0.80210158730412173       -2.8287914810576353E-007 F
     orb,it,eci,eold,eci-eold=                    3                   72 -0.80210202389621688      -0.80210187018326984       -1.5371294703747651E-007 F
     orb,it,eci,eold,eci-eold=                    3                   73 -0.80210207634736874      -0.80210202389621688       -5.2451151866250711E-008 F
     orb,it,eci,eold,eci-eold=                    3                   74 -0.80210233884452897      -0.80210207634736874       -2.6249716023052372E-007 F
     orb,it,eci,eold,eci-eold=                    3                   75 -0.80210241886379929      -0.80210233884452897       -8.0019270320974556E-008 F
     orb,it,eci,eold,eci-eold=                    3                   76 -0.80210243919480928      -0.80210241886379929       -2.0331009986662707E-008 F
     orb,it,eci,eold,eci-eold=                    3                   77 -0.80210263849792840      -0.80210243919480928       -1.9930311911942056E-007 F
     orb,it,eci,eold,eci-eold=                    3                   78 -0.80210268242795890      -0.80210263849792840       -4.3930030502181694E-008 F
     orb,it,eci,eold,eci-eold=                    3                   79 -0.80210269802805334      -0.80210268242795890       -1.5600094438461554E-008 F
     orb,it,eci,eold,eci-eold=                    3                   80 -0.80210288559397946      -0.80210269802805334       -1.8756592612412248E-007 F
     orb,it,eci,eold,eci-eold=                    3                   81 -0.80210298081411013      -0.80210288559397946       -9.5220130669204650E-008 F
     orb,it,eci,eold,eci-eold=                    3                   82 -0.80210304540977562      -0.80210298081411013       -6.4595665483224707E-008 F
     orb,it,eci,eold,eci-eold=                    3                   83 -0.80210307815958681      -0.80210304540977562       -3.2749811196275402E-008 F
     orb,it,eci,eold,eci-eold=                    3                   84 -0.80210315617735284      -0.80210307815958681       -7.8017766025340052E-008 F
     orb,it,eci,eold,eci-eold=                    3                   85 -0.80210316215901978      -0.80210315617735284       -5.9816669395473809E-009 F
     orb,it,eci,eold,eci-eold=                    3                   86 -0.80210316827516237      -0.80210316215901978       -6.1161425923828006E-009 F
     orb,it,eci,eold,eci-eold=                    3                   87 -0.80210323089070945      -0.80210316827516237       -6.2615547080646650E-008 F
     orb,it,eci,eold,eci-eold=                    3                   88 -0.80210324889864704      -0.80210323089070945       -1.8007937585551304E-008 F
     orb,it,eci,eold,eci-eold=                    3                   89 -0.80210325013871975      -0.80210324889864704       -1.2400727111838705E-009 F
     orb,it,eci,eold,eci-eold=                    3                   90 -0.80210329932080371      -0.80210325013871975       -4.9182083960985779E-008 F
     orb,it,eci,eold,eci-eold=                    3                   91 -0.80210332628466074      -0.80210329932080371       -2.6963857036044203E-008 F
     orb,it,eci,eold,eci-eold=                    3                   92 -0.80210333270625678      -0.80210332628466074       -6.4215960327018706E-009 F
     orb,it,eci,eold,eci-eold=                    3                   93 -0.80210337527779774      -0.80210333270625678       -4.2571540959102094E-008 F
     orb,it,eci,eold,eci-eold=                    3                   94 -0.80210339468273650      -0.80210337527779774       -1.9404938766953705E-008 F
     orb,it,eci,eold,eci-eold=                    3                   95 -0.80210340044155348      -0.80210339468273650       -5.7588169788402865E-009 F
     orb,it,eci,eold,eci-eold=                    3                   96 -0.80210343647733606      -0.80210340044155348       -3.6035782580157161E-008 F
     orb,it,eci,eold,eci-eold=                    3                   97 -0.80210344940543776      -0.80210343647733606       -1.2928101700282468E-008 F
     orb,it,eci,eold,eci-eold=                    3                   98 -0.80210345175056941      -0.80210344940543776       -2.3451316444322856E-009 F
     orb,it,eci,eold,eci-eold=                    3                   99 -0.80210347749733479      -0.80210345175056941       -2.5746765386358561E-008 F
     orb,it,eci,eold,eci-eold=                    3                  100 -0.80210348840080303      -0.80210347749733479       -1.0903468239398251E-008 F
     orb,it,eci,eold,eci-eold=                    3                  101 -0.80210349133448222      -0.80210348840080303       -2.9336791884659874E-009 F
     orb,it,eci,eold,eci-eold=                    3                  102 -0.80210351050214590      -0.80210349133448222       -1.9167663678487656E-008 F
     orb,it,eci,eold,eci-eold=                    3                  103 -0.80210351808848612      -0.80210351050214590       -7.5863402226872267E-009 F
     orb,it,eci,eold,eci-eold=                    3                  104 -0.80210352135974561      -0.80210351808848612       -3.2712594855155430E-009 F
     orb,it,eci,eold,eci-eold=                    3                  105 -0.80210353761423314      -0.80210352135974561       -1.6254487533728934E-008 F
     orb,it,eci,eold,eci-eold=                    3                  106 -0.80210354127043326      -0.80210353761423314       -3.6562001204387684E-009 F
     orb,it,eci,eold,eci-eold=                    3                  107 -0.80210354188520772      -0.80210354127043326       -6.1477445356672433E-010 F
     orbital   3 current e=  0.373129E+00 error=0.758E-01 (eci= -0.802103542E+00 error=0.615E-09) iterations 107(   0 preconditioned, Ep,Sp= 20.0  200.0)
     orb,it,eci,eold,eci-eold=                    3                    1 -0.80210357680613975      -0.80210354188520772       -3.4920932034943064E-008 F
     orb,it,eci,eold,eci-eold=                    3                    2 -0.80210359154288136      -0.80210357680613975       -1.4736741604792769E-008 F
     orb,it,eci,eold,eci-eold=                    3                    3 -0.80210359761378425      -0.80210359154288136       -6.0709028915084673E-009 F
     orb,it,eci,eold,eci-eold=                    3                    4 -0.80210359903618589      -0.80210359761378425       -1.4224016409158935E-009 F
     orb,it,eci,eold,eci-eold=                    3                    5 -0.80210361165885802      -0.80210359903618589       -1.2622672129758428E-008 F
     orb,it,eci,eold,eci-eold=                    3                    6 -0.80210361231289884      -0.80210361165885802       -6.5404082150166687E-010 F
     orbital   3 current e=  0.373247E+00 error=0.119E-03 (eci= -0.802103612E+00 error=0.654E-09) iterations   6(   0 preconditioned, Ep,Sp= 20.0  200.0)
     orb,it,eci,eold,eci-eold=                    3                    1 -0.80210362652582834      -0.80210361231289884       -1.4212929499990423E-008 F
     orb,it,eci,eold,eci-eold=                    3                    2 -0.80210362953977843      -0.80210362652582834       -3.0139500895032256E-009 F
     orb,it,eci,eold,eci-eold=                    3                    3 -0.80210363200192947      -0.80210362953977843       -2.4621510386069190E-009 F
     orb,it,eci,eold,eci-eold=                    3                    4 -0.80210363250355388      -0.80210363200192947       -5.0162440867751457E-010 F
     orbital   3 current e=  0.373261E+00 error=0.137E-04 (eci= -0.802103633E+00 error=0.502E-09) iterations   4(   0 preconditioned, Ep,Sp= 20.0  200.0)
     orb,it,eci,eold,eci-eold=                    4                    1 -0.80143826302532173      -0.80135398361992360       -8.4279405398124396E-005 F
     orb,it,eci,eold,eci-eold=                    4                    2 -0.80144818699568154      -0.80143826302532173       -9.9239703598152929E-006 F
     orb,it,eci,eold,eci-eold=                    4                    3 -0.80148743019621715      -0.80144818699568154       -3.9243200535610256E-005 F
     orb,it,eci,eold,eci-eold=                    4                    4 -0.80151912442160200      -0.80148743019621715       -3.1694225384848451E-005 F
     orb,it,eci,eold,eci-eold=                    4                    5 -0.80154330814497532      -0.80151912442160200       -2.4183723373316646E-005 F
     orb,it,eci,eold,eci-eold=                    4                    6 -0.80156683006085638      -0.80154330814497532       -2.3521915881064004E-005 F
     orb,it,eci,eold,eci-eold=                    4                    7 -0.80157900804512072      -0.80156683006085638       -1.2177984264338804E-005 F
     orb,it,eci,eold,eci-eold=                    4                    8 -0.80158186867621084      -0.80157900804512072       -2.8606310901180265E-006 F
     orb,it,eci,eold,eci-eold=                    4                    9 -0.80158275003242152      -0.80158186867621084       -8.8135621068019532E-007 F
     orb,it,eci,eold,eci-eold=                    4                   10 -0.80159568227964817      -0.80158275003242152       -1.2932247226649096E-005 F
     orb,it,eci,eold,eci-eold=                    4                   11 -0.80160209157636331      -0.80159568227964817       -6.4092967151374580E-006 F
     orb,it,eci,eold,eci-eold=                    4                   12 -0.80160661114787513      -0.80160209157636331       -4.5195715118184765E-006 F
     orb,it,eci,eold,eci-eold=                    4                   13 -0.80160671961220342      -0.80160661114787513       -1.0846432829669794E-007 F
     orb,it,eci,eold,eci-eold=                    4                   14 -0.80160919071611580      -0.80160671961220342       -2.4711039123825884E-006 F
     orb,it,eci,eold,eci-eold=                    4                   15 -0.80161256008669146      -0.80160919071611580       -3.3693705756565606E-006 F
     orb,it,eci,eold,eci-eold=                    4                   16 -0.80161433958162165      -0.80161256008669146       -1.7794949301874752E-006 F
     orb,it,eci,eold,eci-eold=                    4                   17 -0.80161867867562653      -0.80161433958162165       -4.3390940048793070E-006 F
     orb,it,eci,eold,eci-eold=                    4                   18 -0.80162042335067130      -0.80161867867562653       -1.7446750447680515E-006 F
     orb,it,eci,eold,eci-eold=                    4                   19 -0.80162134506551896      -0.80162042335067130       -9.2171484766812029E-007 F
     orb,it,eci,eold,eci-eold=                    4                   20 -0.80162377054474121      -0.80162134506551896       -2.4254792222455634E-006 F
     orb,it,eci,eold,eci-eold=                    4                   21 -0.80162452972090481      -0.80162377054474121       -7.5917616360055007E-007 F
     orb,it,eci,eold,eci-eold=                    4                   22 -0.80162540473864352      -0.80162452972090481       -8.7501773871068167E-007 F
     orb,it,eci,eold,eci-eold=                    4                   23 -0.80162759696938224      -0.80162540473864352       -2.1922307387178819E-006 F
     orb,it,eci,eold,eci-eold=                    4                   24 -0.80162785604831077      -0.80162759696938224       -2.5907892853282988E-007 F
     orb,it,eci,eold,eci-eold=                    4                   25 -0.80162820559686843      -0.80162785604831077       -3.4954855765434445E-007 F
     orb,it,eci,eold,eci-eold=                    4                   26 -0.80163006411864024      -0.80162820559686843       -1.8585217718136704E-006 F
     orb,it,eci,eold,eci-eold=                    4                   27 -0.80163091905786277      -0.80163006411864024       -8.5493922252766197E-007 F
     orb,it,eci,eold,eci-eold=                    4                   28 -0.80163130790196135      -0.80163091905786277       -3.8884409858663815E-007 F
     orb,it,eci,eold,eci-eold=                    4                   29 -0.80163253399685686      -0.80163130790196135       -1.2260948955011841E-006 F
     orb,it,eci,eold,eci-eold=                    4                   30 -0.80163260460077801      -0.80163253399685686       -7.0603921153988836E-008 F
     orb,it,eci,eold,eci-eold=                    4                   31 -0.80163272760619242      -0.80163260460077801       -1.2300541440968260E-007 F
     orb,it,eci,eold,eci-eold=                    4                   32 -0.80163388542897351      -0.80163272760619242       -1.1578227810948860E-006 F
     orb,it,eci,eold,eci-eold=                    4                   33 -0.80163421716930572      -0.80163388542897351       -3.3174033220451093E-007 F
     orb,it,eci,eold,eci-eold=                    4                   34 -0.80163424896845126      -0.80163421716930572       -3.1799145538968787E-008 F
     orb,it,eci,eold,eci-eold=                    4                   35 -0.80163523851573182      -0.80163424896845126       -9.8954728056099839E-007 F
     orb,it,eci,eold,eci-eold=                    4                   36 -0.80163578259761659      -0.80163523851573182       -5.4408188476795516E-007 F
     orb,it,eci,eold,eci-eold=                    4                   37 -0.80163586180967827      -0.80163578259761659       -7.9212061687705670E-008 F
     orb,it,eci,eold,eci-eold=                    4                   38 -0.80163654269141371      -0.80163586180967827       -6.8088173543756625E-007 F
     orb,it,eci,eold,eci-eold=                    4                   39 -0.80163685201497703      -0.80163654269141371       -3.0932356331891953E-007 F
     orb,it,eci,eold,eci-eold=                    4                   40 -0.80163699079113238      -0.80163685201497703       -1.3877615534507726E-007 F
     orb,it,eci,eold,eci-eold=                    4                   41 -0.80163774829282430      -0.80163699079113238       -7.5750169192811967E-007 F
     orb,it,eci,eold,eci-eold=                    4                   42 -0.80163810200565100      -0.80163774829282430       -3.5371282669505177E-007 F
     orb,it,eci,eold,eci-eold=                    4                   43 -0.80163819937649083      -0.80163810200565100       -9.7370839835519973E-008 F
     orb,it,eci,eold,eci-eold=                    4                   44 -0.80163873696679933      -0.80163819937649083       -5.3759030849143130E-007 F
     orb,it,eci,eold,eci-eold=                    4                   45 -0.80163894496346910      -0.80163873696679933       -2.0799666977655562E-007 F
     orb,it,eci,eold,eci-eold=                    4                   46 -0.80163904036737321      -0.80163894496346910       -9.5403904110114013E-008 F
     orb,it,eci,eold,eci-eold=                    4                   47 -0.80163953041421332      -0.80163904036737321       -4.9004684010700572E-007 F
     orb,it,eci,eold,eci-eold=                    4                   48 -0.80163968035891386      -0.80163953041421332       -1.4994470054485731E-007 F
     orb,it,eci,eold,eci-eold=                    4                   49 -0.80163972597481314      -0.80163968035891386       -4.5615899280093686E-008 F
     orb,it,eci,eold,eci-eold=                    4                   50 -0.80164012563243126      -0.80163972597481314       -3.9965761811089351E-007 F
     orb,it,eci,eold,eci-eold=                    4                   51 -0.80164027007392524      -0.80164012563243126       -1.4444149398773476E-007 F
     orb,it,eci,eold,eci-eold=                    4                   52 -0.80164030098892636      -0.80164027007392524       -3.0915001114628637E-008 F
     orb,it,eci,eold,eci-eold=                    4                   53 -0.80164062091903288      -0.80164030098892636       -3.1993010651820697E-007 F
     orb,it,eci,eold,eci-eold=                    4                   54 -0.80164071249886459      -0.80164062091903288       -9.1579831718036075E-008 F
     orb,it,eci,eold,eci-eold=                    4                   55 -0.80164071555778005      -0.80164071249886459       -3.0589154542681740E-009 F
     orb,it,eci,eold,eci-eold=                    4                   56 -0.80164096529017459      -0.80164071555778005       -2.4973239454162410E-007 F
     orb,it,eci,eold,eci-eold=                    4                   57 -0.80164109554438423      -0.80164096529017459       -1.3025420964041245E-007 F
     orb,it,eci,eold,eci-eold=                    4                   58 -0.80164112700261270      -0.80164109554438423       -3.1458228466618721E-008 F
     orb,it,eci,eold,eci-eold=                    4                   59 -0.80164134649755647      -0.80164112700261270       -2.1949494377615508E-007 F
     orb,it,eci,eold,eci-eold=                    4                   60 -0.80164142144394623      -0.80164134649755647       -7.4946389760910392E-008 F
     orb,it,eci,eold,eci-eold=                    4                   61 -0.80164143260129495      -0.80164142144394623       -1.1157348711599013E-008 F
     orb,it,eci,eold,eci-eold=                    4                   62 -0.80164159727516626      -0.80164143260129495       -1.6467387131680056E-007 F
     orb,it,eci,eold,eci-eold=                    4                   63 -0.80164167024973132      -0.80164159727516626       -7.2974565057393193E-008 F
     orb,it,eci,eold,eci-eold=                    4                   64 -0.80164169061732637      -0.80164167024973132       -2.0367595054970877E-008 F
     orb,it,eci,eold,eci-eold=                    4                   65 -0.80164183336479233      -0.80164169061732637       -1.4274746595877019E-007 F
     orb,it,eci,eold,eci-eold=                    4                   66 -0.80164190009514602      -0.80164183336479233       -6.6730353687205479E-008 F
     orb,it,eci,eold,eci-eold=                    4                   67 -0.80164192459092487      -0.80164190009514602       -2.4495778849775718E-008 F
     orb,it,eci,eold,eci-eold=                    4                   68 -0.80164204472300615      -0.80164192459092487       -1.2013208128269781E-007 F
     orb,it,eci,eold,eci-eold=                    4                   69 -0.80164207636790163      -0.80164204472300615       -3.1644895481797164E-008 F
     orb,it,eci,eold,eci-eold=                    4                   70 -0.80164208465861309      -0.80164207636790163       -8.2907114506980406E-009 F
     orb,it,eci,eold,eci-eold=                    4                   71 -0.80164218046798774      -0.80164208465861309       -9.5809374656141699E-008 F
     orb,it,eci,eold,eci-eold=                    4                   72 -0.80164221695918469      -0.80164218046798774       -3.6491196953036820E-008 F
     orb,it,eci,eold,eci-eold=                    4                   73 -0.80164222513930605      -0.80164221695918469       -8.1801213580590115E-009 F
     orb,it,eci,eold,eci-eold=                    4                   74 -0.80164230874967302      -0.80164222513930605       -8.3610366963249305E-008 F
     orb,it,eci,eold,eci-eold=                    4                   75 -0.80164233985187205      -0.80164230874967302       -3.1102199038457456E-008 F
     orb,it,eci,eold,eci-eold=                    4                   76 -0.80164234383476585      -0.80164233985187205       -3.9828937925534547E-009 F
     orb,it,eci,eold,eci-eold=                    4                   77 -0.80164241238245859      -0.80164234383476585       -6.8547692744225230E-008 F
     orb,it,eci,eold,eci-eold=                    4                   78 -0.80164244266795914      -0.80164241238245859       -3.0285500551840983E-008 F
     orb,it,eci,eold,eci-eold=                    4                   79 -0.80164244675948326      -0.80164244266795914       -4.0915241195094154E-009 F
     orb,it,eci,eold,eci-eold=                    4                   80 -0.80164249959545819      -0.80164244675948326       -5.2835974928555629E-008 F
     orb,it,eci,eold,eci-eold=                    4                   81 -0.80164252750738130      -0.80164249959545819       -2.7911923106138659E-008 F
     orb,it,eci,eold,eci-eold=                    4                   82 -0.80164253762097670      -0.80164252750738130       -1.0113595405591980E-008 F
     orb,it,eci,eold,eci-eold=                    4                   83 -0.80164258821354129      -0.80164253762097670       -5.0592564582174759E-008 F
     orb,it,eci,eold,eci-eold=                    4                   84 -0.80164260710655288      -0.80164258821354129       -1.8893011599629972E-008 F
     orb,it,eci,eold,eci-eold=                    4                   85 -0.80164261268169001      -0.80164260710655288       -5.5751371297318997E-009 F
     orb,it,eci,eold,eci-eold=                    4                   86 -0.80164265061801965      -0.80164261268169001       -3.7936329633225796E-008 F
     orb,it,eci,eold,eci-eold=                    4                   87 -0.80164265992757877      -0.80164265061801965       -9.3095591235936581E-009 F
     orb,it,eci,eold,eci-eold=                    4                   88 -0.80164266117370175      -0.80164265992757877       -1.2461229825788678E-009 F
     orb,it,eci,eold,eci-eold=                    4                   89 -0.80164268982880671      -0.80164266117370175       -2.8655104955532806E-008 F
     orb,it,eci,eold,eci-eold=                    4                   90 -0.80164269906561259      -0.80164268982880671       -9.2368058757230642E-009 F
     orb,it,eci,eold,eci-eold=                    4                   91 -0.80164269959543732      -0.80164269906561259       -5.2982473963680832E-010 F
     orbital   4 current e=  0.487068E+00 error=0.620E-02 (eci= -0.801642700E+00 error=0.530E-09) iterations  91(   0 preconditioned, Ep,Sp= 20.0  200.0)
     orb,it,eci,eold,eci-eold=                    4                    1 -0.80164275890216286      -0.80164269959543732       -5.9306725530561266E-008 F
     orb,it,eci,eold,eci-eold=                    4                    2 -0.80164280129963605      -0.80164275890216286       -4.2397473198896307E-008 F
     orb,it,eci,eold,eci-eold=                    4                    3 -0.80164284691476406      -0.80164280129963605       -4.5615128008158479E-008 F
     orb,it,eci,eold,eci-eold=                    4                    4 -0.80164284691476406      -0.80164284691476406        0.0000000000000000      F
     orbital   4 current e=  0.487372E+00 error=0.303E-03 (eci= -0.801642847E+00 error=0.000E+00) iterations   4(   0 preconditioned, Ep,Sp= 20.0  200.0)
     orb,it,eci,eold,eci-eold=                    4                    1 -0.80164288086082969      -0.80164284622468929       -3.4636140400223780E-008 F
     orb,it,eci,eold,eci-eold=                    4                    2 -0.80164288807753881      -0.80164288086082969       -7.2167091191843724E-009 F
     orb,it,eci,eold,eci-eold=                    4                    3 -0.80164289363202812      -0.80164288807753881       -5.5544893129422235E-009 F
     orb,it,eci,eold,eci-eold=                    4                    4 -0.80164289667993349      -0.80164289363202812       -3.0479053725329663E-009 F
     orb,it,eci,eold,eci-eold=                    4                    5 -0.80164290043349662      -0.80164289667993349       -3.7535631269847158E-009 F
     orb,it,eci,eold,eci-eold=                    4                    6 -0.80164290043349662      -0.80164290043349662        0.0000000000000000      F
     orbital   4 current e=  0.488028E+00 error=0.656E-03 (eci= -0.801642900E+00 error=0.000E+00) iterations   6(   0 preconditioned, Ep,Sp= 20.0  200.0)

 virtual orbital energies:
     0.4880276E+00 (  13.280eV)
     0.3732609E+00 (  10.157eV)
     0.3356469E+00 (   9.133eV)
    -0.1505956E+00 (  -4.098eV)


 == Generating One-Electron and Two-Electron Integrals ==

 begin_one_electron_integrals
    1    1        -0.6223992606
    2    1         0.0000688248
    3    1        -0.0732496652
    4    1        -0.0252989939
    5    1         0.0000001252
    2    2        -0.6256965500
    3    2        -0.0003379067
    4    2        -0.0004560823
    5    2         0.0000000040
    3    3        -0.1872093158
    4    3         0.0290899155
    5    3        -0.0000003730
    4    4        -0.1384158711
    5    4        -0.0000001167
    5    5        -0.0459148108
 end_one_electron_integrals

 begin_two_electron_integrals
    1    1    1    1        0.3126183426
    1    1    2    1       -0.0000688819
    1    1    3    1        0.0732435717
    1    1    4    1        0.0252928780
    1    1    5    1       -0.0000001251
    1    1    2    2        0.3379825768
    1    1    3    2        0.0000844245
    1    1    4    2        0.0004884944
    1    1    5    2       -0.0000000055
    1    1    3    3        0.2915876366
    1    1    4    3       -0.0064132295
    1    1    5    3       -0.0000001880
    1    1    4    4        0.2786013668
    1    1    5    4       -0.0000000347
    1    1    5    5        0.2892965181
    2    1    2    1        0.2008641837
    2    1    3    1       -0.0001879830
    2    1    4    1        0.0001657350
    2    1    5    1       -0.0000000024
    2    1    2    2       -0.0000922710
    2    1    3    2        0.1135363492
    2    1    4    2        0.0074369047
    2    1    5    2       -0.0000001739
    2    1    3    3        0.0003112193
    2    1    4    3        0.0018733291
    2    1    5    3       -0.0000000114
    2    1    4    4        0.0013822370
    2    1    5    4       -0.0000000224
    2    1    5    5       -0.0006059309
    3    1    3    1        0.0603190784
    3    1    4    1        0.0013996662
    3    1    5    1       -0.0000000364
    3    1    2    2        0.0931538328
    3    1    3    2       -0.0000228805
    3    1    4    2        0.0005874123
    3    1    5    2       -0.0000000038
    3    1    3    3        0.0673489045
    3    1    4    3        0.0081675875
    3    1    5    3       -0.0000001263
    3    1    4    4        0.0412263362
    3    1    5    4       -0.0000000337
    3    1    5    5        0.0510016973
    4    1    4    1        0.0455259964
    4    1    5    1       -0.0000000069
    4    1    2    2        0.0262377792
    4    1    3    2        0.0004810606
    4    1    4    2        0.0003563108
    4    1    5    2       -0.0000000063
    4    1    3    3        0.0281396587
    4    1    4    3       -0.0056093809
    4    1    5    3       -0.0000000342
    4    1    4    4        0.0218465047
    4    1    5    4        0.0000000389
    4    1    5    5        0.0220919466
    5    1    5    1        0.0446506068
    5    1    2    2       -0.0000001503
    5    1    3    2       -0.0000000033
    5    1    4    2       -0.0000000058
    5    1    5    2       -0.0001661894
    5    1    3    3       -0.0000001957
    5    1    4    3       -0.0000000345
    5    1    5    3        0.0032464694
    5    1    4    4       -0.0000000491
    5    1    5    4        0.0015200856
    5    1    5    5       -0.0000000587
    2    2    2    2        0.3700327532
    2    2    3    2        0.0001103131
    2    2    4    2        0.0006429607
    2    2    5    2       -0.0000000068
    2    2    3    3        0.3140528387
    2    2    4    3       -0.0036562619
    2    2    5    3       -0.0000002296
    2    2    4    4        0.2929204076
    2    2    5    4       -0.0000000446
    2    2    5    5        0.3079852783
    3    2    3    2        0.0849089737
    3    2    4    2        0.0053225480
    3    2    5    2       -0.0000001114
    3    2    3    3        0.0002679185
    3    2    4    3        0.0009252212
    3    2    5    3       -0.0000000067
    3    2    4    4        0.0006713136
    3    2    5    4       -0.0000000106
    3    2    5    5       -0.0001573976
    4    2    4    2        0.0366241446
    4    2    5    2       -0.0000000176
    4    2    3    3        0.0004496594
    4    2    4    3       -0.0000786680
    4    2    5    3       -0.0000000015
    4    2    4    4        0.0000875212
    4    2    5    4        0.0000000007
    4    2    5    5        0.0003510495
    5    2    5    2        0.0442266533
    5    2    3    3       -0.0000000060
    5    2    4    3       -0.0000000016
    5    2    5    3       -0.0000099424
    5    2    4    4       -0.0000000038
    5    2    5    4       -0.0000061676
    5    2    5    5       -0.0000000034
    3    3    3    3        0.2853866200
    3    3    4    3       -0.0097309811
    3    3    5    3       -0.0000001343
    3    3    4    4        0.2577027282
    3    3    5    4       -0.0000000187
    3    3    5    5        0.2649184931
    4    3    4    3        0.0160532473
    4    3    5    3        0.0000000126
    4    3    4    4       -0.0103770908
    4    3    5    4       -0.0000000249
    4    3    5    5       -0.0081284832
    5    3    5    3        0.0125630742
    5    3    4    4       -0.0000001470
    5    3    5    4       -0.0010420424
    5    3    5    5       -0.0000001611
    4    4    4    4        0.2770296031
    4    4    5    4       -0.0000000289
    4    4    5    5        0.2603843486
    5    4    5    4        0.0120138747
    5    4    5    5       -0.0000000263
    5    5    5    5        0.2925759766
 end_two_electron_integrals


 output epsi filename:./pspw_hf_H2.emovecs

 Total PSPW energy     :  -0.7998858663E+00


=== Spin Contamination ===

 <Sexact^2> =    0.0000000000000000     
 <S^2>      =    0.0000000000000000     



== Center of Charge ==

spin up     (    0.0000,    0.0000,    0.0034 )
spin down   (    0.0000,    0.0000,    0.0034 )
     total  (    0.0000,    0.0000,    0.0034 )
ionic       (    0.0000,    0.0000,    0.0000 )


== Molecular Dipole wrt Center of Mass ==

mu   =  (   -0.0000,   -0.0000,   -0.0068 ) au
|mu| =     0.0068 au,       0.0173 Debye

 output psi filename:./pspw_hf_H2.movecs

 Writing Crystallographic Information File:./H2.cif
   - cell not shifted (nwpw:cif_shift_cell .false.)


== Timing ==

cputime in seconds
  prologue    :   0.604130E+01
  main loop   :   0.225730E+03
  epilogue    :   0.141993E-01
  total       :   0.231786E+03
  cputime/step:   0.162396E+01       (     139 evalulations,      58 linesearches)


Time spent doing                        total          step       percent
  total time                 :   0.231801E+03  0.166763E+01       100.0 %
  i/o time                   :   0.127877E+00  0.919977E-03         0.1 %
  FFTs                       :   0.174565E+03  0.125587E+01        75.3 %
  dot products               :   0.360101E+01  0.259065E-01         1.6 %
  geodesic                   :   0.533150E-01  0.383561E-03         0.0 %
  ffm_dgemm                  :   0.790269E-02  0.568539E-04         0.0 %
  fmf_dgemm                  :   0.924115E-02  0.664831E-04         0.0 %
  mmm_dgemm                  :   0.213392E-02  0.153519E-04         0.0 %
  m_diagonalize              :   0.118482E-02  0.852387E-05         0.0 %
  local pseudopotentials     :   0.412961E+01  0.297094E-01         1.8 %
  non-local pseudopotentials :   0.327079E+01  0.235309E-01         1.4 %
  structure factors          :   0.392590E+00  0.282439E-02         0.2 %
  phase factors              :   0.886700E-05  0.637914E-07         0.0 %
  masking and packing        :   0.241566E+01  0.173789E-01         1.0 %
  queue fft                  :   0.470062E+01  0.338174E-01         2.0 %
  queue fft (serial)         :   0.205894E+01  0.148125E-01         0.9 %
  queue fft (message passing):   0.261442E+01  0.188088E-01         1.1 %
  HFX potential              :   0.415350E+01  0.298813E-01         1.8 %
  non-local psp FFM          :   0.302063E+01  0.217311E-01         1.3 %
  non-local psp FMF          :   0.613547E-01  0.441401E-03         0.0 %
  non-local psp FFM A        :   0.318112E-01  0.228858E-03         0.0 %
  non-local psp FFM B        :   0.876714E-01  0.630730E-03         0.0 %

== HFX Counters ==
  HFX Evalulations         =   139
  Lin ACE HFX Evalulations =     0


     >>>  JOB COMPLETED     AT Sat Apr  5 14:30:57 2025  <<<

 Task  times  cpu:      216.2s     wall:      231.8s


                                NWChem Input Module
                                -------------------


 Summary of allocated global arrays
-----------------------------------
  No active global arrays


MA_summarize_allocated_blocks: starting scan ...
MA_summarize_allocated_blocks: scan completed: 0 heap blocks, 0 stack blocks
MA usage statistics:

	allocation statistics:
					      heap	     stack
					      ----	     -----
	current number of blocks	         0	         0
	maximum number of blocks	       313	        36
	current total bytes		         0	         0
	maximum total bytes		  23647120	   7986936
	maximum total K-bytes		     23648	      7987
	maximum total M-bytes		        24	         8


                                     CITATION
                                     --------
                Please cite the following reference when publishing
                           results obtained with NWChem:

          E. Apra, E. J. Bylaska, W. A. de Jong, N. Govind, K. Kowalski,
       T. P. Straatsma, M. Valiev, H. J. J. van Dam, Y. Alexeev, J. Anchell,
       V. Anisimov, F. W. Aquino, R. Atta-Fynn, J. Autschbach, N. P. Bauman,
     J. C. Becca, D. E. Bernholdt, K. Bhaskaran-Nair, S. Bogatko, P. Borowski,
         J. Boschen, J. Brabec, A. Bruner, E. Cauet, Y. Chen, G. N. Chuev,
      C. J. Cramer, J. Daily, M. J. O. Deegan, T. H. Dunning Jr., M. Dupuis,
   K. G. Dyall, G. I. Fann, S. A. Fischer, A. Fonari, H. Fruchtl, L. Gagliardi,
      J. Garza, N. Gawande, S. Ghosh, K. Glaesemann, A. W. Gotz, J. Hammond,
       V. Helms, E. D. Hermes, K. Hirao, S. Hirata, M. Jacquelin, L. Jensen,
   B. G. Johnson, H. Jonsson, R. A. Kendall, M. Klemm, R. Kobayashi, V. Konkov,
      S. Krishnamoorthy, M. Krishnan, Z. Lin, R. D. Lins, R. J. Littlefield,
      A. J. Logsdail, K. Lopata, W. Ma, A. V. Marenich, J. Martin del Campo,
   D. Mejia-Rodriguez, J. E. Moore, J. M. Mullin, T. Nakajima, D. R. Nascimento,
    J. A. Nichols, P. J. Nichols, J. Nieplocha, A. Otero-de-la-Roza, B. Palmer,
    A. Panyala, T. Pirojsirikul, B. Peng, R. Peverati, J. Pittner, L. Pollack,
   R. M. Richard, P. Sadayappan, G. C. Schatz, W. A. Shelton, D. W. Silverstein,
   D. M. A. Smith, T. A. Soares, D. Song, M. Swart, H. L. Taylor, G. S. Thomas,
            V. Tipparaju, D. G. Truhlar, K. Tsemekhman, T. Van Voorhis,
      A. Vazquez-Mayagoitia, P. Verma, O. Villa, A. Vishnu, K. D. Vogiatzis,
        D. Wang, J. H. Weare, M. J. Williamson, T. L. Windus, K. Wolinski,
        A. T. Wong, Q. Wu, C. Yang, Q. Yu, M. Zacharias, Z. Zhang, Y. Zhao,
                                and R. J. Harrison
                        "NWChem: Past, present, and future
                         J. Chem. Phys. 152, 184102 (2020)
                               doi:10.1063/5.0004997

                                      AUTHORS
                                      -------
  E. Apra, E. J. Bylaska, N. Govind, K. Kowalski, M. Valiev, D. Mejia-Rodriguez,
       A. Kunitsa, N. P. Bauman, A. Panyala, W. A. de Jong, T. P. Straatsma,
   H. J. J. van Dam, D. Wang, T. L. Windus, J. Hammond, J. Autschbach, A. Woods,
    K. Bhaskaran-Nair, J. Brabec, K. Lopata, S. A. Fischer, S. Krishnamoorthy,
     M. Jacquelin, W. Ma, M. Klemm, O. Villa, Y. Chen, V. Anisimov, F. Aquino,
     S. Hirata, M. T. Hackler, E. Hermes, L. Jensen, J. E. Moore, J. C. Becca,
      V. Konjkov, T. Risthaus, M. Malagoli, A. Marenich, A. Otero-de-la-Roza,
        J. Mullin, P. Nichols, R. Peverati, J. Pittner, Y. Zhao, P.-D. Fan,
        A. Fonari, M. J. Williamson, R. J. Harrison, J. R. Rehr, M. Dupuis,
     D. Silverstein, D. M. A. Smith, J. Nieplocha, V. Tipparaju, M. Krishnan,
     B. E. Van Kuiken, A. Vazquez-Mayagoitia, M. Swart, Q. Wu, T. Van Voorhis,
     A. A. Auer, M. Nooijen, L. D. Crosby, E. Brown, G. Cisneros, G. I. Fann,
   H. Fruchtl, J. Garza, K. Hirao, R. A. Kendall, J. A. Nichols, K. Tsemekhman,
    K. Wolinski, J. Anchell, D. E. Bernholdt, P. Borowski, T. Clark, D. Clerc,
   H. Dachsel, M. J. O. Deegan, K. Dyall, D. Elwood, E. Glendening, M. Gutowski,
   A. C. Hess, J. Jaffe, B. G. Johnson, J. Ju, R. Kobayashi, R. Kutteh, Z. Lin,
   R. Littlefield, X. Long, B. Meng, T. Nakajima, S. Niu, L. Pollack, M. Rosing,
   K. Glaesemann, G. Sandrone, M. Stave, H. Taylor, G. Thomas, J. H. van Lenthe,
                               A. T. Wong, Z. Zhang.

 Total times  cpu:      216.2s     wall:      231.9s
