 argument  1 = H2-3.0.nw



============================== echo of input deck ==============================
title "swnc: e theory=pspw4 xc=hf formula=H2 charge=0 mult=1"
#machinejob:expert

echo

start pspw_hf_H2

memory heap 1200 mb stack 1200 mb global 10 mb

charge 0

geometry
H    0.00000    0.00000   -1.50000
H    0.00000    0.00000    1.50000
end

nwpw
  ### pseudopotential block begin ###
  ### pseudopotential block end   ###
  simulation_cell
     SC 20.0000
     boundary_conditions aperiodic
  end

  cutoff 50.0
  mult 1
  xc hf
  lmbfgs
  tolerances 1.0e-9 1.0e-9

  virtual 1
end
set nwpw:cif_filename H2

#set nwpw:CI_maxit_orb 15
#set nwpw:CI_maxit_linesearch 15
set pspw:HFX_screening_radius 14.0


set nwpw:2qintegrals .true.
set nwpw:3x3_virtual .true.

task pspw energy
================================================================================


                                         
                                         


             Northwest Computational Chemistry Package (NWChem) 7.2.3
             --------------------------------------------------------


                    Environmental Molecular Sciences Laboratory
                       Pacific Northwest National Laboratory
                                Richland, WA 99352

                              Copyright (c) 1994-2022
                       Pacific Northwest National Laboratory
                            Battelle Memorial Institute

             NWChem is an open-source computational chemistry package
                        distributed under the terms of the
                      Educational Community License (ECL) 2.0
             A copy of the license is included with this distribution
                              in the LICENSE.TXT file

                                  ACKNOWLEDGMENT
                                  --------------

            This software and its documentation were developed at the
            EMSL at Pacific Northwest National Laboratory, a multiprogram
            national laboratory, operated for the U.S. Department of Energy
            by Battelle under Contract Number DE-AC05-76RL01830. Support
            for this work was provided by the Department of Energy Office
            of Biological and Environmental Research, Office of Basic
            Energy Sciences, and the Office of Advanced Scientific Computing.


           Job information
           ---------------

    hostname        = mqs-al
    program         = nwchem
    date            = Tue Apr 22 17:44:30 2025

    compiled        = Thu_Oct_31_08:55:15_2024
    source          = /home/conda/feedstock_root/build_artifacts/nwchem_1730356057992/work
    nwchem branch   = 7.2.3
    nwchem revision = c400b04
    ga revision     = 5.8.0
    use scalapack   = T
    input           = H2-3.0.nw
    prefix          = pspw_hf_H2.
    data base       = ./pspw_hf_H2.db
    status          = startup
    nproc           =       24
    time left       =     -1s



           Memory information
           ------------------

    heap     =  157286394 doubles =   1200.0 Mbytes
    stack    =  157286399 doubles =   1200.0 Mbytes
    global   =    1310720 doubles =     10.0 Mbytes (distinct from heap & stack)
    total    =  315883513 doubles =   2410.0 Mbytes
    verify   = yes
    hardfail = no 


           Directory information
           ---------------------

  0 permanent = .
  0 scratch   = .




                                NWChem Input Module
                                -------------------


               swnc: e theory=pspw4 xc=hf formula=H2 charge=0 mult=1
               -----------------------------------------------------

 Scaling coordinates for geometry "geometry" by  1.889725989
 (inverse scale =  0.529177249)

  zeroes
  zeroes
  zeroes
  zeroes
  zeroes
  zeroes
  zeroes
  zeroes
  zeroes
  zeroes
  zeroes
  zeroes
  zeroes
  zeroes
  zeroes
  zeroes
  zeroes
  zeroes
  zeroes
  zeroes
  zeroes
  zeroes
  zeroes
  zeroes
  zeroes
  zeroes
  zeroes
  zeroes
  zeroes
  zeroes
  zeroes
  zeroes
  zeroes
  zeroes
  zeroes
  zeroes
  zeroes
  zeroes
  zeroes
  zeroes
  zeroes
  zeroes
  zeroes
  zeroes
  zeroes
  zeroes
  zeroes
  zeroes
 ORDER OF PRIMARY AXIS IS BEING SET TO 4
 D4H symmetry detected

          ------
          auto-z
          ------
     1 autoz failed with cvr_scaling = 1.2 changing to 1.3
     2 autoz failed with cvr_scaling = 1.3 changing to 1.4
     3 autoz failed with cvr_scaling = 1.4 changing to 1.5
     4 autoz failed with cvr_scaling = 1.5 changing to 1.6
     5 autoz failed with cvr_scaling = 1.6 changing to 1.7

 AUTOZ failed to generate good internal coordinates.
 Cartesian coordinates will be used in optimizations.



                             Geometry "geometry" -> ""
                             -------------------------

 Output coordinates in angstroms (scale by  1.889725989 to convert to a.u.)

  No.       Tag          Charge          X              Y              Z
 ---- ---------------- ---------- -------------- -------------- --------------
    1 H                    1.0000     0.00000000     0.00000000    -1.50000000
    2 H                    1.0000     0.00000000     0.00000000     1.50000000

      Atomic Mass 
      ----------- 

      H                  1.007825


 Effective nuclear repulsion energy (a.u.)       0.1763924163

            Nuclear Dipole moment (a.u.) 
            ----------------------------
        X                 Y               Z
 ---------------- ---------------- ----------------
     0.0000000000     0.0000000000     0.0000000000

      Symmetry information
      --------------------

 Group name             D4h       
 Group number             28
 Group order              16
 No. of unique centers     1

      Symmetry unique atoms

     1


            XYZ format geometry
            -------------------
     2
 geometry
 H                     0.00000000     0.00000000    -1.50000000
 H                     0.00000000     0.00000000     1.50000000

          ****************************************************
          *                                                  *
          *               NWPW PSPW Calculation              *
          *                                                  *
          * [ (Grassmann/Stiefel manifold implementation)  ] *
          *                                                  *
          *      [ NorthWest Chemistry implementation ]      *
          *                                                  *
          *            version #5.10   06/12/02              *
          *                                                  *
          *    This code was developed by Eric J. Bylaska,   *
          *    and was based upon algorithms and code        *
          *    developed by the group of Prof. John H. Weare *
          *                                                  *
          ****************************************************
     >>>  JOB STARTED       AT Tue Apr 22 17:44:30 2025  <<<
          ================ input data ========================

 Generated formatted_filename: ./H.vpp
 random planewave guess, initial psi:pspw_hf_H2.movecs                                 
 -   spin, nalpha, nbeta:                    1                    1                    0

 input psi filename:./pspw_hf_H2.movecs

 Warning - K.S. orbitals are not orthonormal. Applying Gram-Schmidt orthonormalization.
         - exact norm=0.100000E+01 norm=0.790706E+00 corrected norm=0.100000E+01 (error=0.209294E+00)


 number of processors used:        24
 processor grid           :  24 x   1
 parallel mapping         :2d-hilbert
 parallel mapping         :  balanced
 number of threads        :         1
 parallel io              :       off

 options:
      boundary conditions  = aperiodic   (version4)
      electron spin        = restricted
      exchange-correlation = Hartree-Fock
      - HFX relaxed
      - HFX restricted orbitals :    1
      - HFX free-space coulomb solver


 elements involved in the cluster:
      1: H   valence charge:  1.0000  lmax=  1
             comment    : Parameterized (Chem.Phys.Lett., vol 322, page 447) Hamman psp
             pseudpotential type            :   0
             highest angular component      :   1
             local potential used           :   1
             number of non-local projections:   1
             aperiodic cutoff radius        :  1.000
             cutoff =   0.800   0.800


 total charge:   0.000

 atomic composition:
     H   :    2

 number of electrons: spin up=     1 (   1 per task)  down=     1 (   1 per task) (Fourier space)
 number of orbitals : spin up=     1 (   1 per task)  down=     1 (   1 per task) (Fourier space)

 supercell:
      cell_name:  cell_default                                      
      lattice:    a1=<  20.000   0.000   0.000 >
                  a2=<   0.000  20.000   0.000 >
                  a3=<   0.000   0.000  20.000 >
      reciprocal: b1=<   0.314   0.000   0.000 >
                  b2=<   0.000   0.314   0.000 >
                  b3=<   0.000   0.000   0.314 >
      lattice:    a=      20.000 b=     20.000 c=      20.000
                  alpha=  90.000 beta=  90.000 gamma=  90.000
                  omega=      8000.0

      density cutoff= 25.000  fft= 48x 48x 48(    23917 waves      996 per task)
      wavefnc cutoff= 12.500  fft= 48x 48x 48(     8440 waves      351 per task)

 technical parameters:
      time step=      5.80     fictitious mass=  400000.0
      tolerance=0.100E-08 (energy)   0.100E-08 (density)
      maximum iterations =      1000 (   10 inner    100 outer )





== Energy Calculation ==


          ============ Grassmann lmbfgs iteration ============
     >>>  ITERATION STARTED AT Tue Apr 22 17:44:31 2025  <<<
    iter.           Energy         DeltaE       DeltaRho 
    ------------------------------------------------------
     -  15 steepest descent iterations performed
      10   -0.8173387486E+00   -0.73762E-02    0.37947E-01
     -  10 steepest descent iterations performed
      20   -0.8329300370E+00   -0.25192E-04    0.89595E-04
      30   -0.8329984421E+00   -0.19015E-06    0.11688E-05
      40   -0.8329986325E+00   -0.98772E-09    0.20632E-09
  *** tolerance ok. iteration terminated
     >>>  ITERATION ENDED   AT Tue Apr 22 17:44:32 2025  <<<


==  Summary Of Results  ==

 number of electrons: spin up=    1.00000  down=    1.00000 (real space)

 total     energy    :  -0.8329986325E+00 (   -0.41650E+00/ion)
 total orbital energy:  -0.6636963721E+00 (   -0.66370E+00/electron)
 hartree   energy    :   0.6913893534E+00 (    0.69139E+00/electron)
 exc-corr  energy    :   0.0000000000E+00 (    0.00000E+00/electron)
 HF exchange energy  :  -0.3456946767E+00 (   -0.34569E+00/electron)
 ion-ion   energy    :   0.1763924163E+00 (    0.88196E-01/ion)

 kinetic (planewave) :   0.6185724913E+00 (    0.61857E+00/electron)
 V_local (planewave) :  -0.1828082459E+01 (   -0.18281E+01/electron)
 V_nl    (planewave) :  -0.1455757578E+00 (   -0.14558E+00/electron)
 V_Coul  (planewave) :   0.1382778707E+01 (    0.13828E+01/electron)
 V_xc.   (planewave) :   0.0000000000E+00 (    0.00000E+00/electron)
 K.S. HFX energy     :  -0.6913893534E+00 (   -0.69139E+00/electron)
 Virial Coefficient  :  -0.9552308231E+00

 orbital energies:
    -0.3318482E+00 (  -9.030eV)


== Virtual Orbital Calculation ==

 random planewave guess, initial psi:pspw_hf_H2.emovecs                                
 -   spin, nalpha, nbeta:                    1                    1                    0

 input epsi filename:./pspw_hf_H2.emovecs

 COVOs Mimimization
 ------------------
CI gradient algorithm =         3
maxit_sweeps          =         3
maxit_orb             =       120
maxit_linesearch      =        15
maxerror              = 0.100E-08

     orb,it,eci,eold,eci-eold=                    1                    1 -0.83399601276838276      -0.83300883179895768       -9.8718096942507216E-004 F
     orb,it,eci,eold,eci-eold=                    1                    2 -0.83577987378502128      -0.83399601276838276       -1.7838610166385216E-003 F
     orb,it,eci,eold,eci-eold=                    1                    3 -0.83579974130818768      -0.83577987378502128       -1.9867523166405832E-005 F
     orb,it,eci,eold,eci-eold=                    1                    4 -0.83624153224756226      -0.83579974130818768       -4.4179093937457559E-004 F
     orb,it,eci,eold,eci-eold=                    1                    5 -0.83686796598381918      -0.83624153224756226       -6.2643373625692611E-004 F
     orb,it,eci,eold,eci-eold=                    1                    6 -0.83784476442514932      -0.83686796598381918       -9.7679844133014004E-004 F
     orb,it,eci,eold,eci-eold=                    1                    7 -0.84686566252367756      -0.83784476442514932       -9.0208980985282405E-003 F
     orb,it,eci,eold,eci-eold=                    1                    8 -0.84722469229198571      -0.84686566252367756       -3.5902976830815003E-004 F
     orb,it,eci,eold,eci-eold=                    1                    9 -0.84769157196137301      -0.84722469229198571       -4.6687966938729897E-004 F
     orb,it,eci,eold,eci-eold=                    1                   10 -0.86025509870047689      -0.84769157196137301       -1.2563526739103881E-002 F
     orb,it,eci,eold,eci-eold=                    1                   11 -0.86031377982736956      -0.86025509870047689       -5.8681126892667912E-005 F
     orb,it,eci,eold,eci-eold=                    1                   12 -0.89939284545736586      -0.86031377982736956       -3.9079065629996301E-002 F
     orb,it,eci,eold,eci-eold=                    1                   13 -0.95224050327770171      -0.89939284545736586       -5.2847657820335847E-002 F
     orb,it,eci,eold,eci-eold=                    1                   14 -0.96201764413550217      -0.95224050327770171       -9.7771408578004593E-003 F
     orb,it,eci,eold,eci-eold=                    1                   15 -0.96941754790466672      -0.96201764413550217       -7.3999037691645508E-003 F
     orb,it,eci,eold,eci-eold=                    1                   16 -0.97121037087734652      -0.96941754790466672       -1.7928229726797973E-003 F
     orb,it,eci,eold,eci-eold=                    1                   17 -0.97338799335298165      -0.97121037087734652       -2.1776224756351326E-003 F
     orb,it,eci,eold,eci-eold=                    1                   18 -0.97675379351017932      -0.97338799335298165       -3.3658001571976737E-003 F
     orb,it,eci,eold,eci-eold=                    1                   19 -0.97769249709249817      -0.97675379351017932       -9.3870358231884499E-004 F
     orb,it,eci,eold,eci-eold=                    1                   20 -0.97823352114897411      -0.97769249709249817       -5.4102405647593610E-004 F
     orb,it,eci,eold,eci-eold=                    1                   21 -0.97879754461471102      -0.97823352114897411       -5.6402346573691808E-004 F
     orb,it,eci,eold,eci-eold=                    1                   22 -0.97925113500617034      -0.97879754461471102       -4.5359039145931312E-004 F
     orb,it,eci,eold,eci-eold=                    1                   23 -0.97945729112550417      -0.97925113500617034       -2.0615611933383349E-004 F
     orb,it,eci,eold,eci-eold=                    1                   24 -0.97962257709365108      -0.97945729112550417       -1.6528596814691099E-004 F
     orb,it,eci,eold,eci-eold=                    1                   25 -0.97970244181675314      -0.97962257709365108       -7.9864723102063273E-005 F
     orb,it,eci,eold,eci-eold=                    1                   26 -0.97976549204832342      -0.97970244181675314       -6.3050231570271897E-005 F
     orb,it,eci,eold,eci-eold=                    1                   27 -0.97980050030143750      -0.97976549204832342       -3.5008253114088284E-005 F
     orb,it,eci,eold,eci-eold=                    1                   28 -0.97983144744074868      -0.97980050030143750       -3.0947139311177096E-005 F
     orb,it,eci,eold,eci-eold=                    1                   29 -0.97984733243804201      -0.97983144744074868       -1.5884997293325043E-005 F
     orb,it,eci,eold,eci-eold=                    1                   30 -0.97985761169465302      -0.97984733243804201       -1.0279256611012144E-005 F
     orb,it,eci,eold,eci-eold=                    1                   31 -0.97986395059867948      -0.97985761169465302       -6.3389040264594243E-006 F
     orb,it,eci,eold,eci-eold=                    1                   32 -0.97987081809083998      -0.97986395059867948       -6.8674921605005323E-006 F
     orb,it,eci,eold,eci-eold=                    1                   33 -0.97987487919730576      -0.97987081809083998       -4.0611064657802842E-006 F
     orb,it,eci,eold,eci-eold=                    1                   34 -0.97987876037259636      -0.97987487919730576       -3.8811752905987262E-006 F
     orb,it,eci,eold,eci-eold=                    1                   35 -0.97988046085836400      -0.97987876037259636       -1.7004857676417018E-006 F
     orb,it,eci,eold,eci-eold=                    1                   36 -0.97988218124499049      -0.97988046085836400       -1.7203866264914325E-006 F
     orb,it,eci,eold,eci-eold=                    1                   37 -0.97988304811117866      -0.97988218124499049       -8.6686618816500527E-007 F
     orb,it,eci,eold,eci-eold=                    1                   38 -0.97988369879821646      -0.97988304811117866       -6.5068703780646331E-007 F
     orb,it,eci,eold,eci-eold=                    1                   39 -0.97988404297535348      -0.97988369879821646       -3.4417713701273556E-007 F
     orb,it,eci,eold,eci-eold=                    1                   40 -0.97988437960004426      -0.97988404297535348       -3.3662469078876711E-007 F
     orb,it,eci,eold,eci-eold=                    1                   41 -0.97988457467489187      -0.97988437960004426       -1.9507484760872273E-007 F
     orb,it,eci,eold,eci-eold=                    1                   42 -0.97988473290783507      -0.97988457467489187       -1.5823294319261549E-007 F
     orb,it,eci,eold,eci-eold=                    1                   43 -0.97988481072731304      -0.97988473290783507       -7.7819477972695950E-008 F
     orb,it,eci,eold,eci-eold=                    1                   44 -0.97988490530703820      -0.97988481072731304       -9.4579725162802220E-008 F
     orb,it,eci,eold,eci-eold=                    1                   45 -0.97988495196972747      -0.97988490530703820       -4.6662689268117674E-008 F
     orb,it,eci,eold,eci-eold=                    1                   46 -0.97988498365697052      -0.97988495196972747       -3.1687243051692349E-008 F
     orb,it,eci,eold,eci-eold=                    1                   47 -0.97988500004718715      -0.97988498365697052       -1.6390216628359155E-008 F
     orb,it,eci,eold,eci-eold=                    1                   48 -0.97988502005319733      -0.97988500004718715       -2.0006010181816691E-008 F
     orb,it,eci,eold,eci-eold=                    1                   49 -0.97988503077454037      -0.97988502005319733       -1.0721343035591246E-008 F
     orb,it,eci,eold,eci-eold=                    1                   50 -0.97988503679603023      -0.97988503077454037       -6.0214898622845681E-009 F
     orb,it,eci,eold,eci-eold=                    1                   51 -0.97988503966234597      -0.97988503679603023       -2.8663157403130413E-009 F
     orb,it,eci,eold,eci-eold=                    1                   52 -0.97988504506173113      -0.97988503966234597       -5.3993851611977561E-009 F
     orb,it,eci,eold,eci-eold=                    1                   53 -0.97988504790905284      -0.97988504506173113       -2.8473217117408467E-009 F
     orb,it,eci,eold,eci-eold=                    1                   54 -0.97988504886609396      -0.97988504790905284       -9.5704111302552519E-010 F
     orbital   1 current e= -0.112760E+00 error=0.499E+00 (eci= -0.979885049E+00 error=0.957E-09) iterations  54(   0 preconditioned, Ep,Sp= 20.0  200.0)
     orb,it,eci,eold,eci-eold=                    1                    1 -0.97988504918421060      -0.97988504886609396       -3.1811664413794460E-010 F
     orbital   1 current e= -0.112760E+00 error=0.497E-07 (eci= -0.979885049E+00 error=0.318E-09) iterations   1(   0 preconditioned, Ep,Sp= 20.0  200.0)
     orb,it,eci,eold,eci-eold=                    1                    1 -0.97988504918421060      -0.97988504918421060        0.0000000000000000      F
     orbital   1 current e= -0.112760E+00 error=0.338E-07 (eci= -0.979885049E+00 error=0.000E+00) iterations   1(   0 preconditioned, Ep,Sp= 20.0  200.0)

 virtual orbital energies:
    -0.1127603E+00 (  -3.068eV)


 == Generating One-Electron and Two-Electron Integrals ==

 begin_one_electron_integrals
    1    1        -0.6775428628
    2    1        -0.0000011632
    2    2        -0.6604700042
 end_one_electron_integrals

 begin_two_electron_integrals
    1    1    1    1        0.3456946767
    1    1    2    1        0.0000012649
    1    1    2    2        0.3660805587
    2    1    2    1        0.1844514575
    2    1    2    2        0.0000031109
    2    2    2    2        0.3962860052
 end_two_electron_integrals


 output epsi filename:./pspw_hf_H2.emovecs

 Total PSPW energy     :  -0.8329986325E+00


=== Spin Contamination ===

 <Sexact^2> =    0.0000000000000000     
 <S^2>      =    0.0000000000000000     



== Center of Charge ==

spin up     (   -0.0000,   -0.0000,    0.0000 )
spin down   (   -0.0000,   -0.0000,    0.0000 )
     total  (   -0.0000,   -0.0000,    0.0000 )
ionic       (    0.0000,    0.0000,    0.0000 )


== Molecular Dipole wrt Center of Mass ==

mu   =  (    0.0000,    0.0000,   -0.0000 ) au
|mu| =     0.0000 au,       0.0001 Debye

 output psi filename:./pspw_hf_H2.movecs

 Writing Crystallographic Information File:./H2.cif
   - cell not shifted (nwpw:cif_shift_cell .false.)


== Timing ==

cputime in seconds
  prologue    :   0.669713E+00
  main loop   :   0.636202E+01
  epilogue    :   0.113498E-01
  total       :   0.704308E+01
  cputime/step:   0.578365E-01       (     110 evalulations,      38 linesearches)


Time spent doing                        total          step       percent
  total time                 :   0.705397E+01  0.641270E-01       100.0 %
  i/o time                   :   0.161045E+00  0.146404E-02         2.3 %
  FFTs                       :   0.411396E+01  0.373996E-01        58.3 %
  dot products               :   0.167706E+00  0.152460E-02         2.4 %
  geodesic                   :   0.299771E-01  0.272519E-03         0.4 %
  ffm_dgemm                  :   0.415634E-02  0.377849E-04         0.1 %
  fmf_dgemm                  :   0.140147E-02  0.127406E-04         0.0 %
  mmm_dgemm                  :   0.157310E-02  0.143009E-04         0.0 %
  m_diagonalize              :   0.765475E-03  0.695886E-05         0.0 %
  local pseudopotentials     :   0.114061E+00  0.103692E-02         1.6 %
  non-local pseudopotentials :   0.135986E+00  0.123624E-02         1.9 %
  structure factors          :   0.106369E-01  0.966988E-04         0.2 %
  phase factors              :   0.456900E-05  0.415364E-07         0.0 %
  masking and packing        :   0.208851E+00  0.189865E-02         3.0 %
  queue fft                  :   0.261575E+00  0.237795E-02         3.7 %
  queue fft (serial)         :   0.550210E-01  0.500191E-03         0.8 %
  queue fft (message passing):   0.204547E+00  0.185951E-02         2.9 %
  HFX potential              :   0.406803E+00  0.369821E-02         5.8 %
  non-local psp FFM          :   0.114337E+00  0.103943E-02         1.6 %
  non-local psp FMF          :   0.385314E-02  0.350285E-04         0.1 %
  non-local psp FFM A        :   0.768258E-03  0.698416E-05         0.0 %
  non-local psp FFM B        :   0.472305E-02  0.429368E-04         0.1 %

== HFX Counters ==
  HFX Evalulations         =   110
  Lin ACE HFX Evalulations =     0


     >>>  JOB COMPLETED     AT Tue Apr 22 17:44:37 2025  <<<
          ****************************************************
          *                                                  *
          *               NWPW PSPW Calculation              *
          *                                                  *
          * [ (Grassmann/Stiefel manifold implementation)  ] *
          *                                                  *
          *      [ NorthWest Chemistry implementation ]      *
          *                                                  *
          *            version #5.10   06/12/02              *
          *                                                  *
          *    This code was developed by Eric J. Bylaska,   *
          *    and was based upon algorithms and code        *
          *    developed by the group of Prof. John H. Weare *
          *                                                  *
          ****************************************************
     >>>  JOB STARTED       AT Tue Apr 22 17:44:37 2025  <<<
          ================ input data ========================
 pseudopotential is not correctly formatted:H.vpp                                             

 Generated formatted_filename: ./H.vpp
 Error reading psi - bad grid
 nfft :                   48                   48                   48
 ngrid:                   70                   70                   70
 Error reading psi - bad grid
 nfft :                   48                   48                   48
 ngrid:                   70                   70                   70
 Error reading psi - bad grid

 Grid is being converted:
 ------------------------

 To turn off automatic grid conversion:

 set nwpw:psi_nogrid .false.

 old_filename: pspw_hf_H2.movecs                                 
 new_filename: pspw_hf_H2.movecs                                 
 converting  :  48x 48x 48 -->  70x 70x 70
converting .... psi:    1 spin: 1

 input psi filename:./pspw_hf_H2.movecs

 number of processors used:        24
 processor grid           :  24 x   1
 parallel mapping         :2d-hilbert
 parallel mapping         :  balanced
 number of threads        :         1
 parallel io              :       off

 options:
      boundary conditions  = aperiodic   (version4)
      electron spin        = restricted
      exchange-correlation = Hartree-Fock
      - HFX relaxed
      - HFX restricted orbitals :    1
      - HFX free-space coulomb solver


 elements involved in the cluster:
      1: H   valence charge:  1.0000  lmax=  1
             comment    : Parameterized (Chem.Phys.Lett., vol 322, page 447) Hamman psp
             pseudpotential type            :   0
             highest angular component      :   1
             local potential used           :   1
             number of non-local projections:   1
             aperiodic cutoff radius        :  1.000
             cutoff =   0.800   0.800


 total charge:   0.000

 atomic composition:
     H   :    2

 number of electrons: spin up=     1 (   1 per task)  down=     1 (   1 per task) (Fourier space)
 number of orbitals : spin up=     1 (   1 per task)  down=     1 (   1 per task) (Fourier space)

 supercell:
      cell_name:  cell_default                                      
      lattice:    a1=<  20.000   0.000   0.000 >
                  a2=<   0.000  20.000   0.000 >
                  a3=<   0.000   0.000  20.000 >
      reciprocal: b1=<   0.314   0.000   0.000 >
                  b2=<   0.000   0.314   0.000 >
                  b3=<   0.000   0.000   0.314 >
      lattice:    a=      20.000 b=     20.000 c=      20.000
                  alpha=  90.000 beta=  90.000 gamma=  90.000
                  omega=      8000.0

      density cutoff= 50.000  fft= 70x 70x 70(    67522 waves     2813 per task)
      wavefnc cutoff= 25.000  fft= 70x 70x 70(    23917 waves      996 per task)

 technical parameters:
      time step=      5.80     fictitious mass=  400000.0
      tolerance=0.100E-08 (energy)   0.100E-08 (density)
      maximum iterations =      1000 (   10 inner    100 outer )





== Energy Calculation ==


          ============ Grassmann lmbfgs iteration ============
     >>>  ITERATION STARTED AT Tue Apr 22 17:44:43 2025  <<<
    iter.           Energy         DeltaE       DeltaRho 
    ------------------------------------------------------
      10   -0.8335280179E+00   -0.13139E-07    0.17952E-05
      20   -0.8335280398E+00   -0.82219E-09    0.39652E-09
  *** tolerance ok. iteration terminated
     >>>  ITERATION ENDED   AT Tue Apr 22 17:44:45 2025  <<<


==  Summary Of Results  ==

 number of electrons: spin up=    1.00000  down=    1.00000 (real space)

 total     energy    :  -0.8335280398E+00 (   -0.41676E+00/ion)
 total orbital energy:  -0.6640565225E+00 (   -0.66406E+00/electron)
 hartree   energy    :   0.6917278671E+00 (    0.69173E+00/electron)
 exc-corr  energy    :   0.0000000000E+00 (    0.00000E+00/electron)
 HF exchange energy  :  -0.3458639336E+00 (   -0.34586E+00/electron)
 ion-ion   energy    :   0.1763924163E+00 (    0.88196E-01/ion)

 kinetic (planewave) :   0.6201231967E+00 (    0.62012E+00/electron)
 V_local (planewave) :  -0.1829382374E+01 (   -0.18294E+01/electron)
 V_nl    (planewave) :  -0.1465252119E+00 (   -0.14653E+00/electron)
 V_Coul  (planewave) :   0.1383455734E+01 (    0.13835E+01/electron)
 V_xc.   (planewave) :   0.0000000000E+00 (    0.00000E+00/electron)
 K.S. HFX energy     :  -0.6917278671E+00 (   -0.69173E+00/electron)
 Virial Coefficient  :  -0.9553776658E+00

 orbital energies:
    -0.3320283E+00 (  -9.035eV)


== Virtual Orbital Calculation ==

 Error reading psi - bad grid
 Error reading psi - bad grid
 Error reading psi - bad grid

 Grid is being converted:
 ------------------------

 To turn off automatic grid conversion:

 set nwpw:psi_nogrid .false.

 old_filename: pspw_hf_H2.emovecs                                
 new_filename: pspw_hf_H2.emovecs                                
 converting  :  48x 48x 48 -->  70x 70x 70
converting .... psi:    1 spin: 1

 input epsi filename:./pspw_hf_H2.emovecs

 COVOs Mimimization
 ------------------
CI gradient algorithm =         3
maxit_sweeps          =         3
maxit_orb             =       120
maxit_linesearch      =        15
maxerror              = 0.100E-08

     orb,it,eci,eold,eci-eold=                    1                    1 -0.98039164773101617      -0.98031318729063122       -7.8460440384953145E-005 F
     orb,it,eci,eold,eci-eold=                    1                    2 -0.98042926583943724      -0.98039164773101617       -3.7618108421066943E-005 F
     orb,it,eci,eold,eci-eold=                    1                    3 -0.98060006214725015      -0.98042926583943724       -1.7079630781291488E-004 F
     orb,it,eci,eold,eci-eold=                    1                    4 -0.98063826909691643      -0.98060006214725015       -3.8206949666275136E-005 F
     orb,it,eci,eold,eci-eold=                    1                    5 -0.98064226203897709      -0.98063826909691643       -3.9929420606599209E-006 F
     orb,it,eci,eold,eci-eold=                    1                    6 -0.98064435415316853      -0.98064226203897709       -2.0921141914431729E-006 F
     orb,it,eci,eold,eci-eold=                    1                    7 -0.98064564578080837      -0.98064435415316853       -1.2916276398433624E-006 F
     orb,it,eci,eold,eci-eold=                    1                    8 -0.98064612616427149      -0.98064564578080837       -4.8038346311951585E-007 F
     orb,it,eci,eold,eci-eold=                    1                    9 -0.98064660532299752      -0.98064612616427149       -4.7915872602999343E-007 F
     orb,it,eci,eold,eci-eold=                    1                   10 -0.98064688408691325      -0.98064660532299752       -2.7876391572867476E-007 F
     orb,it,eci,eold,eci-eold=                    1                   11 -0.98064690154264089      -0.98064688408691325       -1.7455727641113583E-008 F
     orb,it,eci,eold,eci-eold=                    1                   12 -0.98064691674040205      -0.98064690154264089       -1.5197761160656853E-008 F
     orb,it,eci,eold,eci-eold=                    1                   13 -0.98064706104599231      -0.98064691674040205       -1.4430559025502276E-007 F
     orb,it,eci,eold,eci-eold=                    1                   14 -0.98064713057510910      -0.98064706104599231       -6.9529116797362178E-008 F
     orb,it,eci,eold,eci-eold=                    1                   15 -0.98064713391178793      -0.98064713057510910       -3.3366788221300681E-009 F
     orb,it,eci,eold,eci-eold=                    1                   16 -0.98064713427014005      -0.98064713391178793       -3.5835212575108244E-010 F
     orbital   1 current e= -0.112991E+00 error=0.355E-03 (eci= -0.980647134E+00 error=0.358E-09) iterations  16(   0 preconditioned, Ep,Sp= 20.0  200.0)
     orb,it,eci,eold,eci-eold=                    1                    1 -0.98064716348267478      -0.98064713427014005       -2.9212534724543104E-008 F
     orb,it,eci,eold,eci-eold=                    1                    2 -0.98064716920847328      -0.98064716348267478       -5.7257985019987245E-009 F
     orb,it,eci,eold,eci-eold=                    1                    3 -0.98064717155858194      -0.98064716920847328       -2.3501086632293777E-009 F
     orb,it,eci,eold,eci-eold=                    1                    4 -0.98064717406061352      -0.98064717155858194       -2.5020315819190841E-009 F
     orb,it,eci,eold,eci-eold=                    1                    5 -0.98064717641514410      -0.98064717406061352       -2.3545305705141573E-009 F
     orb,it,eci,eold,eci-eold=                    1                    6 -0.98064717707946647      -0.98064717641514410       -6.6432237488811552E-010 F
     orbital   1 current e= -0.112987E+00 error=0.387E-05 (eci= -0.980647177E+00 error=0.664E-09) iterations   6(   0 preconditioned, Ep,Sp= 20.0  200.0)
     orb,it,eci,eold,eci-eold=                    1                    1 -0.98064717707946647      -0.98064717707946647        0.0000000000000000      F
     orbital   1 current e= -0.112987E+00 error=0.280E-06 (eci= -0.980647177E+00 error=0.000E+00) iterations   1(   0 preconditioned, Ep,Sp= 20.0  200.0)

 virtual orbital energies:
    -0.1129871E+00 (  -3.075eV)


 == Generating One-Electron and Two-Electron Integrals ==

 begin_one_electron_integrals
    1    1        -0.6778921948
    2    1        -0.0000006646
    2    2        -0.6608977332
 end_one_electron_integrals

 begin_two_electron_integrals
    1    1    1    1        0.3458639336
    1    1    2    1        0.0000006750
    1    1    2    2        0.3662807790
    2    1    2    1        0.1846508813
    2    1    2    2        0.0000015018
    2    2    2    2        0.3965132702
 end_two_electron_integrals


 output epsi filename:./pspw_hf_H2.emovecs

 Total PSPW energy     :  -0.8335280398E+00


=== Spin Contamination ===

 <Sexact^2> =    0.0000000000000000     
 <S^2>      =    0.0000000000000000     



== Center of Charge ==

spin up     (   -0.0000,   -0.0000,    0.0000 )
spin down   (   -0.0000,   -0.0000,    0.0000 )
     total  (   -0.0000,   -0.0000,    0.0000 )
ionic       (    0.0000,    0.0000,    0.0000 )


== Molecular Dipole wrt Center of Mass ==

mu   =  (    0.0000,    0.0000,   -0.0000 ) au
|mu| =     0.0000 au,       0.0000 Debye

 output psi filename:./pspw_hf_H2.movecs

 Writing Crystallographic Information File:./H2.cif
   - cell not shifted (nwpw:cif_shift_cell .false.)


== Timing ==

cputime in seconds
  prologue    :   0.621196E+01
  main loop   :   0.117411E+02
  epilogue    :   0.165600E-01
  total       :   0.179696E+02
  cputime/step:   0.293528E+00       (      40 evalulations,      17 linesearches)


Time spent doing                        total          step       percent
  total time                 :   0.179799E+02  0.449497E+00       100.0 %
  i/o time                   :   0.393081E+00  0.982703E-02         2.2 %
  FFTs                       :   0.872622E+01  0.218155E+00        48.5 %
  dot products               :   0.199347E+00  0.498367E-02         1.1 %
  geodesic                   :   0.150658E-01  0.376645E-03         0.1 %
  ffm_dgemm                  :   0.171868E-02  0.429671E-04         0.0 %
  fmf_dgemm                  :   0.178868E-02  0.447169E-04         0.0 %
  mmm_dgemm                  :   0.678655E-03  0.169664E-04         0.0 %
  m_diagonalize              :   0.356867E-03  0.892168E-05         0.0 %
  local pseudopotentials     :   0.149978E+00  0.374946E-02         0.8 %
  non-local pseudopotentials :   0.158767E+00  0.396919E-02         0.9 %
  structure factors          :   0.167155E-01  0.417887E-03         0.1 %
  phase factors              :   0.850700E-05  0.212675E-06         0.0 %
  masking and packing        :   0.169052E+00  0.422631E-02         0.9 %
  queue fft                  :   0.271725E+00  0.679313E-02         1.5 %
  queue fft (serial)         :   0.104533E+00  0.261333E-02         0.6 %
  queue fft (message passing):   0.165315E+00  0.413289E-02         0.9 %
  HFX potential              :   0.802122E+00  0.200531E-01         4.5 %
  non-local psp FFM          :   0.144701E+00  0.361753E-02         0.8 %
  non-local psp FMF          :   0.290824E-02  0.727061E-04         0.0 %
  non-local psp FFM A        :   0.133434E-02  0.333585E-04         0.0 %
  non-local psp FFM B        :   0.392797E-02  0.981992E-04         0.0 %

== HFX Counters ==
  HFX Evalulations         =    40
  Lin ACE HFX Evalulations =     0


     >>>  JOB COMPLETED     AT Tue Apr 22 17:44:55 2025  <<<
          ****************************************************
          *                                                  *
          *               NWPW PSPW Calculation              *
          *                                                  *
          * [ (Grassmann/Stiefel manifold implementation)  ] *
          *                                                  *
          *      [ NorthWest Chemistry implementation ]      *
          *                                                  *
          *            version #5.10   06/12/02              *
          *                                                  *
          *    This code was developed by Eric J. Bylaska,   *
          *    and was based upon algorithms and code        *
          *    developed by the group of Prof. John H. Weare *
          *                                                  *
          ****************************************************
     >>>  JOB STARTED       AT Tue Apr 22 17:44:55 2025  <<<
          ================ input data ========================
 pseudopotential is not correctly formatted:H.vpp                                             

 Generated formatted_filename: ./H.vpp
 Error reading psi - bad grid
 nfft :                   70                   70                   70
 ngrid:                   80                   80                   80
 Error reading psi - bad grid
 nfft :                   70                   70                   70
 ngrid:                   80                   80                   80
 Error reading psi - bad grid

 Grid is being converted:
 ------------------------

 To turn off automatic grid conversion:

 set nwpw:psi_nogrid .false.

 old_filename: pspw_hf_H2.movecs                                 
 new_filename: pspw_hf_H2.movecs                                 
 converting  :  70x 70x 70 -->  80x 80x 80
converting .... psi:    1 spin: 1

 input psi filename:./pspw_hf_H2.movecs

 number of processors used:        24
 processor grid           :  24 x   1
 parallel mapping         :2d-hilbert
 parallel mapping         :  balanced
 number of threads        :         1
 parallel io              :       off

 options:
      boundary conditions  = aperiodic   (version4)
      electron spin        = restricted
      exchange-correlation = Hartree-Fock
      - HFX relaxed
      - HFX restricted orbitals :    1
      - HFX free-space coulomb solver


 elements involved in the cluster:
      1: H   valence charge:  1.0000  lmax=  1
             comment    : Parameterized (Chem.Phys.Lett., vol 322, page 447) Hamman psp
             pseudpotential type            :   0
             highest angular component      :   1
             local potential used           :   1
             number of non-local projections:   1
             aperiodic cutoff radius        :  1.000
             cutoff =   0.800   0.800


 total charge:   0.000

 atomic composition:
     H   :    2

 number of electrons: spin up=     1 (   1 per task)  down=     1 (   1 per task) (Fourier space)
 number of orbitals : spin up=     1 (   1 per task)  down=     1 (   1 per task) (Fourier space)

 supercell:
      cell_name:  cell_default                                      
      lattice:    a1=<  20.000   0.000   0.000 >
                  a2=<   0.000  20.000   0.000 >
                  a3=<   0.000   0.000  20.000 >
      reciprocal: b1=<   0.314   0.000   0.000 >
                  b2=<   0.000   0.314   0.000 >
                  b3=<   0.000   0.000   0.314 >
      lattice:    a=      20.000 b=     20.000 c=      20.000
                  alpha=  90.000 beta=  90.000 gamma=  90.000
                  omega=      8000.0

      density cutoff= 75.000  fft= 80x 80x 80(   124025 waves     5167 per task)
      wavefnc cutoff= 37.500  fft= 80x 80x 80(    43828 waves     1826 per task)

 technical parameters:
      time step=      5.80     fictitious mass=  400000.0
      tolerance=0.100E-08 (energy)   0.100E-08 (density)
      maximum iterations =      1000 (   10 inner    100 outer )





== Energy Calculation ==


          ============ Grassmann lmbfgs iteration ============
     >>>  ITERATION STARTED AT Tue Apr 22 17:45:02 2025  <<<
    iter.           Energy         DeltaE       DeltaRho 
    ------------------------------------------------------
      10   -0.8340101289E+00   -0.13688E-07    0.27085E-05
      20   -0.8340101613E+00   -0.77614E-09    0.96151E-09
  *** tolerance ok. iteration terminated
     >>>  ITERATION ENDED   AT Tue Apr 22 17:45:05 2025  <<<


==  Summary Of Results  ==

 number of electrons: spin up=    1.00000  down=    1.00000 (real space)

 total     energy    :  -0.8340101613E+00 (   -0.41701E+00/ion)
 total orbital energy:  -0.6643850046E+00 (   -0.66439E+00/electron)
 hartree   energy    :   0.6920351461E+00 (    0.69204E+00/electron)
 exc-corr  energy    :   0.0000000000E+00 (    0.00000E+00/electron)
 HF exchange energy  :  -0.3460175730E+00 (   -0.34602E+00/electron)
 ion-ion   energy    :   0.1763924163E+00 (    0.88196E-01/ion)

 kinetic (planewave) :   0.6215927901E+00 (    0.62159E+00/electron)
 V_local (planewave) :  -0.1830621226E+01 (   -0.18306E+01/electron)
 V_nl    (planewave) :  -0.1473917151E+00 (   -0.14739E+00/electron)
 V_Coul  (planewave) :   0.1384070292E+01 (    0.13841E+01/electron)
 V_xc.   (planewave) :   0.0000000000E+00 (    0.00000E+00/electron)
 K.S. HFX energy     :  -0.6920351461E+00 (   -0.69204E+00/electron)
 Virial Coefficient  :  -0.9555172746E+00

 orbital energies:
    -0.3321925E+00 (  -9.039eV)


== Virtual Orbital Calculation ==

 Error reading psi - bad grid
 Error reading psi - bad grid
 Error reading psi - bad grid

 Grid is being converted:
 ------------------------

 To turn off automatic grid conversion:

 set nwpw:psi_nogrid .false.

 old_filename: pspw_hf_H2.emovecs                                
 new_filename: pspw_hf_H2.emovecs                                
 converting  :  70x 70x 70 -->  80x 80x 80
converting .... psi:    1 spin: 1

 input epsi filename:./pspw_hf_H2.emovecs

 COVOs Mimimization
 ------------------
CI gradient algorithm =         3
maxit_sweeps          =         3
maxit_orb             =       120
maxit_linesearch      =        15
maxerror              = 0.100E-08

     orb,it,eci,eold,eci-eold=                    1                    1 -0.98130646292551393      -0.98105647183640654       -2.4999108910739309E-004 F
     orb,it,eci,eold,eci-eold=                    1                    2 -0.98132956657634907      -0.98130646292551393       -2.3103650835132328E-005 F
     orb,it,eci,eold,eci-eold=                    1                    3 -0.98133001176117918      -0.98132956657634907       -4.4518483011124488E-007 F
     orb,it,eci,eold,eci-eold=                    1                    4 -0.98133087464957902      -0.98133001176117918       -8.6288839984405286E-007 F
     orb,it,eci,eold,eci-eold=                    1                    5 -0.98133167388287590      -0.98133087464957902       -7.9923329687758837E-007 F
     orb,it,eci,eold,eci-eold=                    1                    6 -0.98133188455057385      -0.98133167388287590       -2.1066769795297091E-007 F
     orb,it,eci,eold,eci-eold=                    1                    7 -0.98133188619107936      -0.98133188455057385       -1.6405055092150178E-009 F
     orb,it,eci,eold,eci-eold=                    1                    8 -0.98133202308902345      -0.98133188619107936       -1.3689794409188494E-007 F
     orb,it,eci,eold,eci-eold=                    1                    9 -0.98133205851263761      -0.98133202308902345       -3.5423614153096139E-008 F
     orb,it,eci,eold,eci-eold=                    1                   10 -0.98133206834966336      -0.98133205851263761       -9.8370257495261626E-009 F
     orb,it,eci,eold,eci-eold=                    1                   11 -0.98133212982114715      -0.98133206834966336       -6.1471483792097104E-008 F
     orb,it,eci,eold,eci-eold=                    1                   12 -0.98133214034357752      -0.98133212982114715       -1.0522430371473490E-008 F
     orb,it,eci,eold,eci-eold=                    1                   13 -0.98133214034357752      -0.98133214034357752        0.0000000000000000      F
     orbital   1 current e= -0.113194E+00 error=0.293E-03 (eci= -0.981332140E+00 error=0.000E+00) iterations  13(   0 preconditioned, Ep,Sp= 20.0  200.0)
     orb,it,eci,eold,eci-eold=                    1                    1 -0.98133214535051438      -0.98133213935101882       -5.9994955670106265E-009 F
     orb,it,eci,eold,eci-eold=                    1                    2 -0.98133214928407009      -0.98133214535051438       -3.9335557033837176E-009 F
     orb,it,eci,eold,eci-eold=                    1                    3 -0.98133215166365162      -0.98133214928407009       -2.3795815318194968E-009 F
     orb,it,eci,eold,eci-eold=                    1                    4 -0.98133215166365162      -0.98133215166365162        0.0000000000000000      F
     orbital   1 current e= -0.113191E+00 error=0.396E-05 (eci= -0.981332152E+00 error=0.000E+00) iterations   4(   0 preconditioned, Ep,Sp= 20.0  200.0)
     orb,it,eci,eold,eci-eold=                    1                    1 -0.98133215444061850      -0.98133215141470231       -3.0259161842849380E-009 F
     orb,it,eci,eold,eci-eold=                    1                    2 -0.98133215567898846      -0.98133215444061850       -1.2383699621310029E-009 F
     orb,it,eci,eold,eci-eold=                    1                    3 -0.98133215567898846      -0.98133215567898846        0.0000000000000000      F
     orbital   1 current e= -0.113189E+00 error=0.147E-05 (eci= -0.981332156E+00 error=0.000E+00) iterations   3(   0 preconditioned, Ep,Sp= 20.0  200.0)

 virtual orbital energies:
    -0.1131890E+00 (  -3.080eV)


 == Generating One-Electron and Two-Electron Integrals ==

 begin_one_electron_integrals
    1    1        -0.6782100754
    2    1        -0.0000005237
    2    2        -0.6612756651
 end_one_electron_integrals

 begin_two_electron_integrals
    1    1    1    1        0.3460175730
    1    1    2    1        0.0000005308
    1    1    2    2        0.3664559505
    2    1    2    1        0.1848252739
    2    1    2    2        0.0000010988
    2    2    2    2        0.3967023995
 end_two_electron_integrals


 output epsi filename:./pspw_hf_H2.emovecs

 Total PSPW energy     :  -0.8340101613E+00


=== Spin Contamination ===

 <Sexact^2> =    0.0000000000000000     
 <S^2>      =    0.0000000000000000     



== Center of Charge ==

spin up     (    0.0000,   -0.0000,    0.0000 )
spin down   (    0.0000,   -0.0000,    0.0000 )
     total  (    0.0000,   -0.0000,    0.0000 )
ionic       (    0.0000,    0.0000,    0.0000 )


== Molecular Dipole wrt Center of Mass ==

mu   =  (   -0.0000,    0.0000,   -0.0000 ) au
|mu| =     0.0000 au,       0.0000 Debye

 output psi filename:./pspw_hf_H2.movecs

 Writing Crystallographic Information File:./H2.cif
   - cell not shifted (nwpw:cif_shift_cell .false.)


== Timing ==

cputime in seconds
  prologue    :   0.661403E+01
  main loop   :   0.177443E+02
  epilogue    :   0.216775E-01
  total       :   0.243800E+02
  cputime/step:   0.403279E+00       (      44 evalulations,      19 linesearches)


Time spent doing                        total          step       percent
  total time                 :   0.243902E+02  0.554323E+00       100.0 %
  i/o time                   :   0.563001E+00  0.127955E-01         2.3 %
  FFTs                       :   0.133574E+02  0.303578E+00        54.8 %
  dot products               :   0.312965E+00  0.711284E-02         1.3 %
  geodesic                   :   0.189255E-01  0.430125E-03         0.1 %
  ffm_dgemm                  :   0.232928E-02  0.529382E-04         0.0 %
  fmf_dgemm                  :   0.348893E-02  0.792938E-04         0.0 %
  mmm_dgemm                  :   0.764354E-03  0.173717E-04         0.0 %
  m_diagonalize              :   0.399877E-03  0.908811E-05         0.0 %
  local pseudopotentials     :   0.211676E+00  0.481083E-02         0.9 %
  non-local pseudopotentials :   0.243169E+00  0.552657E-02         1.0 %
  structure factors          :   0.309805E-01  0.704101E-03         0.1 %
  phase factors              :   0.116210E-04  0.264114E-06         0.0 %
  masking and packing        :   0.245343E+00  0.557597E-02         1.0 %
  queue fft                  :   0.318639E+00  0.724181E-02         1.3 %
  queue fft (serial)         :   0.972550E-01  0.221034E-02         0.4 %
  queue fft (message passing):   0.217746E+00  0.494877E-02         0.9 %
  HFX potential              :   0.148909E+01  0.338430E-01         6.1 %
  non-local psp FFM          :   0.226223E+00  0.514144E-02         0.9 %
  non-local psp FMF          :   0.407101E-02  0.925229E-04         0.0 %
  non-local psp FFM A        :   0.322939E-02  0.733953E-04         0.0 %
  non-local psp FFM B        :   0.643031E-02  0.146143E-03         0.0 %

== HFX Counters ==
  HFX Evalulations         =    44
  Lin ACE HFX Evalulations =     0


     >>>  JOB COMPLETED     AT Tue Apr 22 17:45:19 2025  <<<
          ****************************************************
          *                                                  *
          *               NWPW PSPW Calculation              *
          *                                                  *
          * [ (Grassmann/Stiefel manifold implementation)  ] *
          *                                                  *
          *      [ NorthWest Chemistry implementation ]      *
          *                                                  *
          *            version #5.10   06/12/02              *
          *                                                  *
          *    This code was developed by Eric J. Bylaska,   *
          *    and was based upon algorithms and code        *
          *    developed by the group of Prof. John H. Weare *
          *                                                  *
          ****************************************************
     >>>  JOB STARTED       AT Tue Apr 22 17:45:19 2025  <<<
          ================ input data ========================
 pseudopotential is not correctly formatted:H.vpp                                             

 Generated formatted_filename: ./H.vpp
 Error reading psi - bad grid
 nfft :                   80                   80                   80
 ngrid:                   96                   96                   96
 Error reading psi - bad grid
 nfft :                   80                   80                   80
 ngrid:                   96                   96                   96
 Error reading psi - bad grid

 Grid is being converted:
 ------------------------

 To turn off automatic grid conversion:

 set nwpw:psi_nogrid .false.

 old_filename: pspw_hf_H2.movecs                                 
 new_filename: pspw_hf_H2.movecs                                 
 converting  :  80x 80x 80 -->  96x 96x 96
converting .... psi:    1 spin: 1

 input psi filename:./pspw_hf_H2.movecs

 number of processors used:        24
 processor grid           :  24 x   1
 parallel mapping         :2d-hilbert
 parallel mapping         :  balanced
 number of threads        :         1
 parallel io              :       off

 options:
      boundary conditions  = aperiodic   (version4)
      electron spin        = restricted
      exchange-correlation = Hartree-Fock
      - HFX relaxed
      - HFX restricted orbitals :    1
      - HFX free-space coulomb solver


 elements involved in the cluster:
      1: H   valence charge:  1.0000  lmax=  1
             comment    : Parameterized (Chem.Phys.Lett., vol 322, page 447) Hamman psp
             pseudpotential type            :   0
             highest angular component      :   1
             local potential used           :   1
             number of non-local projections:   1
             aperiodic cutoff radius        :  1.000
             cutoff =   0.800   0.800


 total charge:   0.000

 atomic composition:
     H   :    2

 number of electrons: spin up=     1 (   1 per task)  down=     1 (   1 per task) (Fourier space)
 number of orbitals : spin up=     1 (   1 per task)  down=     1 (   1 per task) (Fourier space)

 supercell:
      cell_name:  cell_default                                      
      lattice:    a1=<  20.000   0.000   0.000 >
                  a2=<   0.000  20.000   0.000 >
                  a3=<   0.000   0.000  20.000 >
      reciprocal: b1=<   0.314   0.000   0.000 >
                  b2=<   0.000   0.314   0.000 >
                  b3=<   0.000   0.000   0.314 >
      lattice:    a=      20.000 b=     20.000 c=      20.000
                  alpha=  90.000 beta=  90.000 gamma=  90.000
                  omega=      8000.0

      density cutoff=100.000  fft= 96x 96x 96(   191162 waves     7965 per task)
      wavefnc cutoff= 50.000  fft= 96x 96x 96(    67522 waves     2813 per task)

 technical parameters:
      time step=      5.80     fictitious mass=  400000.0
      tolerance=0.100E-08 (energy)   0.100E-08 (density)
      maximum iterations =      1000 (   10 inner    100 outer )





== Energy Calculation ==


          ============ Grassmann lmbfgs iteration ============
     >>>  ITERATION STARTED AT Tue Apr 22 17:45:27 2025  <<<
    iter.           Energy         DeltaE       DeltaRho 
    ------------------------------------------------------
      10   -0.8340345089E+00   -0.15915E-09    0.50874E-07
      20   -0.8340345090E+00   -0.12692E-09    0.39858E-12
  *** tolerance ok. iteration terminated
     >>>  ITERATION ENDED   AT Tue Apr 22 17:45:31 2025  <<<


==  Summary Of Results  ==

 number of electrons: spin up=    1.00000  down=    1.00000 (real space)

 total     energy    :  -0.8340345090E+00 (   -0.41702E+00/ion)
 total orbital energy:  -0.6644013109E+00 (   -0.66440E+00/electron)
 hartree   energy    :   0.6920512289E+00 (    0.69205E+00/electron)
 exc-corr  energy    :   0.0000000000E+00 (    0.00000E+00/electron)
 HF exchange energy  :  -0.3460256145E+00 (   -0.34603E+00/electron)
 ion-ion   energy    :   0.1763924163E+00 (    0.88196E-01/ion)

 kinetic (planewave) :   0.6216711890E+00 (    0.62167E+00/electron)
 V_local (planewave) :  -0.1830682227E+01 (   -0.18307E+01/electron)
 V_nl    (planewave) :  -0.1474415016E+00 (   -0.14744E+00/electron)
 V_Coul  (planewave) :   0.1384102458E+01 (    0.13841E+01/electron)
 V_xc.   (planewave) :   0.0000000000E+00 (    0.00000E+00/electron)
 K.S. HFX energy     :  -0.6920512289E+00 (   -0.69205E+00/electron)
 Virial Coefficient  :  -0.9555232436E+00

 orbital energies:
    -0.3322007E+00 (  -9.040eV)


== Virtual Orbital Calculation ==

 Error reading psi - bad grid
 Error reading psi - bad grid
 Error reading psi - bad grid

 Grid is being converted:
 ------------------------

 To turn off automatic grid conversion:

 set nwpw:psi_nogrid .false.

 old_filename: pspw_hf_H2.emovecs                                
 new_filename: pspw_hf_H2.emovecs                                
 converting  :  80x 80x 80 -->  96x 96x 96
converting .... psi:    1 spin: 1

 input epsi filename:./pspw_hf_H2.emovecs

 COVOs Mimimization
 ------------------
CI gradient algorithm =         3
maxit_sweeps          =         3
maxit_orb             =       120
maxit_linesearch      =        15
maxerror              = 0.100E-08

     orb,it,eci,eold,eci-eold=                    1                    1 -0.98136386332844716      -0.98135230425496744       -1.1559073479716631E-005 F
     orb,it,eci,eold,eci-eold=                    1                    2 -0.98136542733662668      -0.98136386332844716       -1.5640081795220695E-006 F
     orb,it,eci,eold,eci-eold=                    1                    3 -0.98136654826951442      -0.98136542733662668       -1.1209328877326286E-006 F
     orb,it,eci,eold,eci-eold=                    1                    4 -0.98136662656764340      -0.98136654826951442       -7.8298128980414106E-008 F
     orb,it,eci,eold,eci-eold=                    1                    5 -0.98136671318582658      -0.98136662656764340       -8.6618183181563779E-008 F
     orb,it,eci,eold,eci-eold=                    1                    6 -0.98136673817271902      -0.98136671318582658       -2.4986892444012199E-008 F
     orb,it,eci,eold,eci-eold=                    1                    7 -0.98136673817271902      -0.98136673817271902        0.0000000000000000      F
     orbital   1 current e= -0.113199E+00 error=0.151E-04 (eci= -0.981366738E+00 error=0.000E+00) iterations   7(   0 preconditioned, Ep,Sp= 20.0  200.0)
     orb,it,eci,eold,eci-eold=                    1                    1 -0.98136673734909319      -0.98136673727879498       -7.0298211696240287E-011 F
     orbital   1 current e= -0.113199E+00 error=0.232E-06 (eci= -0.981366737E+00 error=0.703E-10) iterations   1(   0 preconditioned, Ep,Sp= 20.0  200.0)
     orb,it,eci,eold,eci-eold=                    1                    1 -0.98136673734909319      -0.98136673734909319        0.0000000000000000      F
     orbital   1 current e= -0.113199E+00 error=0.221E-06 (eci= -0.981366737E+00 error=0.000E+00) iterations   1(   0 preconditioned, Ep,Sp= 20.0  200.0)

 virtual orbital energies:
    -0.1131987E+00 (  -3.080eV)


 == Generating One-Electron and Two-Electron Integrals ==

 begin_one_electron_integrals
    1    1        -0.6782262699
    2    1        -0.0000005001
    2    2        -0.6612956709
 end_one_electron_integrals

 begin_two_electron_integrals
    1    1    1    1        0.3460256145
    1    1    2    1        0.0000005290
    1    1    2    2        0.3664653639
    2    1    2    1        0.1848338038
    2    1    2    2        0.0000010610
    2    2    2    2        0.3967131244
 end_two_electron_integrals


 output epsi filename:./pspw_hf_H2.emovecs

 Total PSPW energy     :  -0.8340345090E+00


=== Spin Contamination ===

 <Sexact^2> =    0.0000000000000000     
 <S^2>      =    0.0000000000000000     



== Center of Charge ==

spin up     (    0.0000,    0.0000,    0.0000 )
spin down   (    0.0000,    0.0000,    0.0000 )
     total  (    0.0000,    0.0000,    0.0000 )
ionic       (    0.0000,    0.0000,    0.0000 )


== Molecular Dipole wrt Center of Mass ==

mu   =  (   -0.0000,   -0.0000,   -0.0000 ) au
|mu| =     0.0000 au,       0.0000 Debye

 output psi filename:./pspw_hf_H2.movecs

 Writing Crystallographic Information File:./H2.cif
   - cell not shifted (nwpw:cif_shift_cell .false.)


== Timing ==

cputime in seconds
  prologue    :   0.750593E+01
  main loop   :   0.229778E+02
  epilogue    :   0.315804E-01
  total       :   0.305154E+02
  cputime/step:   0.820637E+00       (      28 evalulations,      11 linesearches)


Time spent doing                        total          step       percent
  total time                 :   0.305256E+02  0.109020E+01       100.0 %
  i/o time                   :   0.798102E+00  0.285037E-01         2.6 %
  FFTs                       :   0.176751E+02  0.631255E+00        57.9 %
  dot products               :   0.373137E+00  0.133263E-01         1.2 %
  geodesic                   :   0.133360E-01  0.476286E-03         0.0 %
  ffm_dgemm                  :   0.196695E-02  0.702482E-04         0.0 %
  fmf_dgemm                  :   0.353808E-02  0.126360E-03         0.0 %
  mmm_dgemm                  :   0.522677E-03  0.186670E-04         0.0 %
  m_diagonalize              :   0.236947E-03  0.846239E-05         0.0 %
  local pseudopotentials     :   0.250593E+00  0.894975E-02         0.8 %
  non-local pseudopotentials :   0.247509E+00  0.883960E-02         0.8 %
  structure factors          :   0.406662E-01  0.145236E-02         0.1 %
  phase factors              :   0.132370E-04  0.472750E-06         0.0 %
  masking and packing        :   0.231170E+00  0.825605E-02         0.8 %
  queue fft                  :   0.328524E+00  0.117330E-01         1.1 %
  queue fft (serial)         :   0.109530E+00  0.391180E-02         0.4 %
  queue fft (message passing):   0.214503E+00  0.766082E-02         0.7 %
  HFX potential              :   0.212608E+01  0.759315E-01         7.0 %
  non-local psp FFM          :   0.233854E+00  0.835193E-02         0.8 %
  non-local psp FMF          :   0.368853E-02  0.131733E-03         0.0 %
  non-local psp FFM A        :   0.298822E-02  0.106722E-03         0.0 %
  non-local psp FFM B        :   0.588906E-02  0.210324E-03         0.0 %

== HFX Counters ==
  HFX Evalulations         =    28
  Lin ACE HFX Evalulations =     0


     >>>  JOB COMPLETED     AT Tue Apr 22 17:45:50 2025  <<<

 Task  times  cpu:       75.4s     wall:       80.0s


                                NWChem Input Module
                                -------------------


 Summary of allocated global arrays
-----------------------------------
  No active global arrays


MA_summarize_allocated_blocks: starting scan ...
MA_summarize_allocated_blocks: scan completed: 0 heap blocks, 0 stack blocks
MA usage statistics:

	allocation statistics:
					      heap	     stack
					      ----	     -----
	current number of blocks	         0	         0
	maximum number of blocks	       313	        36
	current total bytes		         0	         0
	maximum total bytes		  49938272	  13584664
	maximum total K-bytes		     49939	     13585
	maximum total M-bytes		        50	        14


                                     CITATION
                                     --------
                Please cite the following reference when publishing
                           results obtained with NWChem:

          E. Apra, E. J. Bylaska, W. A. de Jong, N. Govind, K. Kowalski,
       T. P. Straatsma, M. Valiev, H. J. J. van Dam, Y. Alexeev, J. Anchell,
       V. Anisimov, F. W. Aquino, R. Atta-Fynn, J. Autschbach, N. P. Bauman,
     J. C. Becca, D. E. Bernholdt, K. Bhaskaran-Nair, S. Bogatko, P. Borowski,
         J. Boschen, J. Brabec, A. Bruner, E. Cauet, Y. Chen, G. N. Chuev,
      C. J. Cramer, J. Daily, M. J. O. Deegan, T. H. Dunning Jr., M. Dupuis,
   K. G. Dyall, G. I. Fann, S. A. Fischer, A. Fonari, H. Fruchtl, L. Gagliardi,
      J. Garza, N. Gawande, S. Ghosh, K. Glaesemann, A. W. Gotz, J. Hammond,
       V. Helms, E. D. Hermes, K. Hirao, S. Hirata, M. Jacquelin, L. Jensen,
   B. G. Johnson, H. Jonsson, R. A. Kendall, M. Klemm, R. Kobayashi, V. Konkov,
      S. Krishnamoorthy, M. Krishnan, Z. Lin, R. D. Lins, R. J. Littlefield,
      A. J. Logsdail, K. Lopata, W. Ma, A. V. Marenich, J. Martin del Campo,
   D. Mejia-Rodriguez, J. E. Moore, J. M. Mullin, T. Nakajima, D. R. Nascimento,
    J. A. Nichols, P. J. Nichols, J. Nieplocha, A. Otero-de-la-Roza, B. Palmer,
    A. Panyala, T. Pirojsirikul, B. Peng, R. Peverati, J. Pittner, L. Pollack,
   R. M. Richard, P. Sadayappan, G. C. Schatz, W. A. Shelton, D. W. Silverstein,
   D. M. A. Smith, T. A. Soares, D. Song, M. Swart, H. L. Taylor, G. S. Thomas,
            V. Tipparaju, D. G. Truhlar, K. Tsemekhman, T. Van Voorhis,
      A. Vazquez-Mayagoitia, P. Verma, O. Villa, A. Vishnu, K. D. Vogiatzis,
        D. Wang, J. H. Weare, M. J. Williamson, T. L. Windus, K. Wolinski,
        A. T. Wong, Q. Wu, C. Yang, Q. Yu, M. Zacharias, Z. Zhang, Y. Zhao,
                                and R. J. Harrison
                        "NWChem: Past, present, and future
                         J. Chem. Phys. 152, 184102 (2020)
                               doi:10.1063/5.0004997

                                      AUTHORS
                                      -------
  E. Apra, E. J. Bylaska, N. Govind, K. Kowalski, M. Valiev, D. Mejia-Rodriguez,
       A. Kunitsa, N. P. Bauman, A. Panyala, W. A. de Jong, T. P. Straatsma,
   H. J. J. van Dam, D. Wang, T. L. Windus, J. Hammond, J. Autschbach, A. Woods,
    K. Bhaskaran-Nair, J. Brabec, K. Lopata, S. A. Fischer, S. Krishnamoorthy,
     M. Jacquelin, W. Ma, M. Klemm, O. Villa, Y. Chen, V. Anisimov, F. Aquino,
     S. Hirata, M. T. Hackler, E. Hermes, L. Jensen, J. E. Moore, J. C. Becca,
      V. Konjkov, T. Risthaus, M. Malagoli, A. Marenich, A. Otero-de-la-Roza,
        J. Mullin, P. Nichols, R. Peverati, J. Pittner, Y. Zhao, P.-D. Fan,
        A. Fonari, M. J. Williamson, R. J. Harrison, J. R. Rehr, M. Dupuis,
     D. Silverstein, D. M. A. Smith, J. Nieplocha, V. Tipparaju, M. Krishnan,
     B. E. Van Kuiken, A. Vazquez-Mayagoitia, M. Swart, Q. Wu, T. Van Voorhis,
     A. A. Auer, M. Nooijen, L. D. Crosby, E. Brown, G. Cisneros, G. I. Fann,
   H. Fruchtl, J. Garza, K. Hirao, R. A. Kendall, J. A. Nichols, K. Tsemekhman,
    K. Wolinski, J. Anchell, D. E. Bernholdt, P. Borowski, T. Clark, D. Clerc,
   H. Dachsel, M. J. O. Deegan, K. Dyall, D. Elwood, E. Glendening, M. Gutowski,
   A. C. Hess, J. Jaffe, B. G. Johnson, J. Ju, R. Kobayashi, R. Kutteh, Z. Lin,
   R. Littlefield, X. Long, B. Meng, T. Nakajima, S. Niu, L. Pollack, M. Rosing,
   K. Glaesemann, G. Sandrone, M. Stave, H. Taylor, G. Thomas, J. H. van Lenthe,
                               A. T. Wong, Z. Zhang.

 Total times  cpu:       75.4s     wall:       80.0s
