 argument  1 = H2-0.7.nw



============================== echo of input deck ==============================
title "swnc: e theory=pspw4 xc=hf formula=H2 charge=0 mult=1"
#machinejob:expert

echo

start pspw_hf_H2

memory heap 1200 mb stack 1200 mb global 10 mb

charge 0

geometry
H    0.00000    0.00000   -0.35000
H    0.00000    0.00000    0.35000
end

nwpw
  ### pseudopotential block begin ###
  ### pseudopotential block end   ###
  simulation_cell
     SC 15.0000
     boundary_conditions aperiodic
  end

  cutoff 50.0
  mult 1
  xc hf
  lmbfgs
  tolerances 1.0e-9 1.0e-9

  virtual 12
end
set nwpw:cif_filename H2

#set nwpw:CI_maxit_orb 15
#set nwpw:CI_maxit_linesearch 15
set pspw:HFX_screening_radius 14.0


set nwpw:2qintegrals .true.
#set nwpw:3x3_virtual .true.

task pspw energy

================================================================================


                                         
                                         


             Northwest Computational Chemistry Package (NWChem) 7.2.2
             --------------------------------------------------------


                    Environmental Molecular Sciences Laboratory
                       Pacific Northwest National Laboratory
                                Richland, WA 99352

                              Copyright (c) 1994-2022
                       Pacific Northwest National Laboratory
                            Battelle Memorial Institute

             NWChem is an open-source computational chemistry package
                        distributed under the terms of the
                      Educational Community License (ECL) 2.0
             A copy of the license is included with this distribution
                              in the LICENSE.TXT file

                                  ACKNOWLEDGMENT
                                  --------------

            This software and its documentation were developed at the
            EMSL at Pacific Northwest National Laboratory, a multiprogram
            national laboratory, operated for the U.S. Department of Energy
            by Battelle under Contract Number DE-AC05-76RL01830. Support
            for this work was provided by the Department of Energy Office
            of Biological and Environmental Research, Office of Basic
            Energy Sciences, and the Office of Advanced Scientific Computing.


           Job information
           ---------------

    hostname        = LAPTOP-JJQSTSEL
    program         = nwchem
    date            = Thu May  1 19:39:37 2025

    compiled        = Fri_Jun_07_07:50:04_2024
    source          = /home/conda/feedstock_root/build_artifacts/nwchem_1717738148552/work
    nwchem branch   = 7.2.2
    nwchem revision = 64ba0f0
    ga revision     = 5.8.0
    use scalapack   = T
    input           = H2-0.7.nw
    prefix          = pspw_hf_H2.
    data base       = ./pspw_hf_H2.db
    status          = startup
    nproc           =        1
    time left       =     -1s



           Memory information
           ------------------

    heap     =  157286400 doubles =   1200.0 Mbytes
    stack    =  157286397 doubles =   1200.0 Mbytes
    global   =    1310720 doubles =     10.0 Mbytes (distinct from heap & stack)
    total    =  315883517 doubles =   2410.0 Mbytes
    verify   = yes
    hardfail = no 


           Directory information
           ---------------------

  0 permanent = .
  0 scratch   = .




                                NWChem Input Module
                                -------------------


               swnc: e theory=pspw4 xc=hf formula=H2 charge=0 mult=1
               -----------------------------------------------------

 Scaling coordinates for geometry "geometry" by  1.889725989
 (inverse scale =  0.529177249)

 ORDER OF PRIMARY AXIS IS BEING SET TO 4
 D4H symmetry detected

          ------
          auto-z
          ------
  no constraints, skipping    0.0000000000000000     
  no constraints, skipping    0.0000000000000000     


                             Geometry "geometry" -> ""
                             -------------------------

 Output coordinates in angstroms (scale by  1.889725989 to convert to a.u.)

  No.       Tag          Charge          X              Y              Z
 ---- ---------------- ---------- -------------- -------------- --------------
    1 H                    1.0000     0.00000000     0.00000000    -0.35000000
    2 H                    1.0000     0.00000000     0.00000000     0.35000000

      Atomic Mass 
      ----------- 

      H                  1.007825


 Effective nuclear repulsion energy (a.u.)       0.7559674986

            Nuclear Dipole moment (a.u.) 
            ----------------------------
        X                 Y               Z
 ---------------- ---------------- ----------------
     0.0000000000     0.0000000000     0.0000000000

      Symmetry information
      --------------------

 Group name             D4h       
 Group number             28
 Group order              16
 No. of unique centers     1

      Symmetry unique atoms

     1



                                Z-matrix (autoz)
                                -------- 

 Units are Angstrom for bonds and degrees for angles

      Type          Name      I     J     K     L     M      Value
      ----------- --------  ----- ----- ----- ----- ----- ----------
    1 Stretch                  1     2                       0.70000


            XYZ format geometry
            -------------------
     2
 geometry
 H                     0.00000000     0.00000000    -0.35000000
 H                     0.00000000     0.00000000     0.35000000

          ****************************************************
          *                                                  *
          *               NWPW PSPW Calculation              *
          *                                                  *
          * [ (Grassmann/Stiefel manifold implementation)  ] *
          *                                                  *
          *      [ NorthWest Chemistry implementation ]      *
          *                                                  *
          *            version #5.10   06/12/02              *
          *                                                  *
          *    This code was developed by Eric J. Bylaska,   *
          *    and was based upon algorithms and code        *
          *    developed by the group of Prof. John H. Weare *
          *                                                  *
          ****************************************************
     >>>  JOB STARTED       AT Thu May  1 19:39:37 2025  <<<
          ================ input data ========================

 input psi filename:./pspw_hf_H2.movecs

 number of processors used:         1
 processor grid           :   1 x   1
 parallel mapping         :2d-hilbert
 parallel mapping         :  balanced
 number of threads        :         1
 parallel io              :       off

 options:
      boundary conditions  = aperiodic   (version4)
      electron spin        = restricted
      exchange-correlation = Hartree-Fock
      - HFX relaxed
      - HFX restricted orbitals :    1
      - HFX free-space coulomb solver


 elements involved in the cluster:
      1: H   valence charge:  1.0000  lmax=  1
             comment    : Parameterized (Chem.Phys.Lett., vol 322, page 447) Hamman psp
             pseudpotential type            :   0
             highest angular component      :   1
             local potential used           :   1
             number of non-local projections:   1
             aperiodic cutoff radius        :  1.000
             cutoff =   0.800   0.800


 total charge:   0.000

 atomic composition:
     H   :    2

 number of electrons: spin up=     1 (   1 per task)  down=     1 (   1 per task) (Fourier space)
 number of orbitals : spin up=     1 (   1 per task)  down=     1 (   1 per task) (Fourier space)

 supercell:
      cell_name:  cell_default                                      
      lattice:    a1=<  15.000   0.000   0.000 >
                  a2=<   0.000  15.000   0.000 >
                  a3=<   0.000   0.000  15.000 >
      reciprocal: b1=<   0.419   0.000   0.000 >
                  b2=<   0.000   0.419   0.000 >
                  b3=<   0.000   0.000   0.419 >
      lattice:    a=      15.000 b=     15.000 c=      15.000
                  alpha=  90.000 beta=  90.000 gamma=  90.000
                  omega=      3375.0

      density cutoff=100.000  fft= 70x 70x 70(    80618 waves    80618 per task)
      wavefnc cutoff= 50.000  fft= 70x 70x 70(    28526 waves    28526 per task)

 technical parameters:
      time step=      5.80     fictitious mass=  400000.0
      tolerance=0.100E-08 (energy)   0.100E-08 (density)
      maximum iterations =      1000 (   10 inner    100 outer )





== Energy Calculation ==


          ============ Grassmann lmbfgs iteration ============
     >>>  ITERATION STARTED AT Thu May  1 19:39:42 2025  <<<
    iter.           Energy         DeltaE       DeltaRho 
    ------------------------------------------------------
      10   -0.1136989470E+01   -0.72798E-04    0.24059E-02
      20   -0.1137132297E+01   -0.15109E-05    0.23333E-05
      30   -0.1137135873E+01   -0.44899E-07    0.28022E-08
      40   -0.1137135966E+01   -0.80193E-09    0.68908E-11
  *** tolerance ok. iteration terminated
     >>>  ITERATION ENDED   AT Thu May  1 19:40:06 2025  <<<


==  Summary Of Results  ==

 number of electrons: spin up=    1.00000  down=    1.00000 (real space)

 total     energy    :  -0.1137135966E+01 (   -0.56857E+00/ion)
 total orbital energy:  -0.1220478408E+01 (   -0.12205E+01/electron)
 hartree   energy    :   0.1345250113E+01 (    0.13453E+01/electron)
 exc-corr  energy    :   0.0000000000E+00 (    0.00000E+00/electron)
 HF exchange energy  :  -0.6726250567E+00 (   -0.67263E+00/electron)
 ion-ion   energy    :   0.7559674986E+00 (    0.37798E+00/ion)

 kinetic (planewave) :   0.1113994987E+01 (    0.11140E+01/electron)
 V_local (planewave) :  -0.3336893637E+01 (   -0.33369E+01/electron)
 V_nl    (planewave) :  -0.3428298708E+00 (   -0.34283E+00/electron)
 V_Coul  (planewave) :   0.2690500227E+01 (    0.26905E+01/electron)
 V_xc.   (planewave) :   0.0000000000E+00 (    0.00000E+00/electron)
 K.S. HFX energy     :  -0.1345250113E+01 (   -0.13453E+01/electron)
 Virial Coefficient  :  -0.8879961693E+00

 orbital energies:
    -0.6102392E+00 ( -16.606eV)


== Virtual Orbital Calculation ==


 input epsi filename:./pspw_hf_H2.emovecs
     orbital   1 current e= 0.606E-02 (error=0.940E-09) iterations  44(  16 preconditioned, Ep,Sp= 20.0  200.0)
     orbital   2 current e= 0.825E-01 (error=0.867E-09) iterations  66(  28 preconditioned, Ep,Sp= 20.0  200.0)
     orbital   3 current e= 0.859E-01 (error=0.947E-09) iterations  40(   6 preconditioned, Ep,Sp= 20.0  200.0)
     orbital   4 current e= 0.859E-01 (error=0.940E-09) iterations  45(  10 preconditioned, Ep,Sp= 20.0  200.0)
     orbital   5 current e= 0.873E-01 (error=0.996E-09) iterations  24(   1 preconditioned, Ep,Sp= 20.0  200.0)
     orbital   6 current e= 0.878E-01 (error=0.919E-09) iterations  24(   1 preconditioned, Ep,Sp= 20.0  200.0)
     orbital   7 current e= 0.111E+00 (error=0.961E-09) iterations  50(  24 preconditioned, Ep,Sp= 20.0  200.0)
     orbital   8 current e= 0.159E+00 (error=0.937E-09) iterations  69(  43 preconditioned, Ep,Sp= 20.0  200.0)
     orbital   9 current e= 0.170E+00 (error=0.733E-09) iterations  91(  13 preconditioned, Ep,Sp= 20.0  200.0)
     orbital  10 current e= 0.175E+00 (error=0.810E-09) iterations  35(   3 preconditioned, Ep,Sp= 20.0  200.0)
     orbital  11 current e= 0.175E+00 (error=0.808E-09) iterations  39(   3 preconditioned, Ep,Sp= 20.0  200.0)
     orbital  12 current e= 0.221E+00 (error=0.794E-09) iterations  68(  36 preconditioned, Ep,Sp= 20.0  200.0)

 virtual orbital energies:
     0.2208740E+00 (   6.010eV)
     0.1748587E+00 (   4.758eV)
     0.1748174E+00 (   4.757eV)
     0.1701173E+00 (   4.629eV)
     0.1593555E+00 (   4.336eV)
     0.1107818E+00 (   3.015eV)
     0.8784191E-01 (   2.390eV)
     0.8730466E-01 (   2.376eV)
     0.8587500E-01 (   2.337eV)
     0.8587500E-01 (   2.337eV)
     0.8249204E-01 (   2.245eV)
     0.6059159E-02 (   0.165eV)


 == Generating One-Electron and Two-Electron Integrals ==

 begin_one_electron_integrals
    1    1        -1.2828642605
    2    1        -0.0325384590
    3    1         0.0000002109
    4    1        -0.0000000064
    5    1         0.0000002616
    6    1        -0.0019994198
    7    1         0.0000000000
    8    1        -0.0470279104
    9    1         0.0000004776
   10    1        -0.0000006484
   11    1         0.0012992000
   12    1        -0.0000000020
   13    1        -0.0546616371
    2    2        -0.2730768212
    3    2         0.0000008707
    4    2         0.0000000053
    5    2        -0.0000002160
    6    2        -0.0018141119
    7    2         0.0000000000
    8    2        -0.0694910197
    9    2        -0.0000001521
   10    2        -0.0000001767
   11    2         0.0003745785
   12    2        -0.0000000006
   13    2        -0.0408757514
    3    3        -0.2607564616
    4    3         0.0000000002
    5    3         0.0000000002
    6    3        -0.0000056276
    7    3        -0.0000000000
    8    3        -0.0000001306
    9    3         0.1183392408
   10    3        -0.0000004923
   11    3         0.0000002362
   12    3         0.0000001010
   13    3        -0.0000050785
    4    4        -0.2325195719
    5    4        -0.0000000003
    6    4         0.0000001280
    7    4        -0.0000074078
    8    4        -0.0000000137
    9    4         0.0000001545
   10    4         0.0000010912
   11    4        -0.0000046510
   12    4        -0.0000233998
   13    4        -0.0000065770
    5    5        -0.2325033209
    6    5        -0.0000057111
    7    5        -0.0000001811
    8    5         0.0000003363
    9    5         0.0000004678
   10    5         0.0938848100
   11    5        -0.0000008560
   12    5         0.0000067905
   13    5        -0.0000001220
    6    6        -0.1914086022
    7    6        -0.0000000000
    8    6        -0.0007246590
    9    6         0.0000097780
   10    6         0.0000116636
   11    6         0.0428408630
   12    6        -0.0000000617
   13    6        -0.0012530413
    7    7        -0.1892167518
    8    7        -0.0000000000
    9    7         0.0000000000
   10    7         0.0000003513
   11    7        -0.0000000006
   12    7         0.0000014180
   13    7        -0.0000000027
    8    8        -0.1780882895
    9    8         0.0000005147
   10    8        -0.0000008424
   11    8         0.0002046820
   12    8        -0.0000000003
   13    8        -0.0852146665
    9    9        -0.2304735228
   10    9        -0.0000000156
   11    9        -0.0000047842
   12    9        -0.0000000255
   13    9         0.0000140872
   10   10        -0.1846710223
   11   10        -0.0000049281
   12   10        -0.0000068068
   13   10        -0.0000008396
   11   11        -0.1017697796
   12   11        -0.0000000469
   13   11        -0.0000952022
   12   12        -0.1352046210
   13   12         0.0000000003
   13   13        -0.0775726042
 end_one_electron_integrals

 begin_two_electron_integrals
    1    1    1    1        0.6726250567
    1    1    2    1        0.0325293047
    1    1    3    1       -0.0000002117
    1    1    4    1        0.0000000064
    1    1    5    1       -0.0000002618
    1    1    6    1        0.0020020947
    1    1    7    1       -0.0000000000
    1    1    8    1        0.0470377718
    1    1    9    1       -0.0000004771
    1    1   10    1        0.0000006483
    1    1   11    1       -0.0013016412
    1    1   12    1        0.0000000020
    1    1   13    1        0.0546664740
    1    1    2    2        0.1407811208
    1    1    3    2       -0.0000006234
    1    1    4    2       -0.0000000059
    1    1    5    2        0.0000002407
    1    1    6    2        0.0009861373
    1    1    7    2       -0.0000000000
    1    1    8    2        0.0365504413
    1    1    9    2        0.0000003148
    1    1   10    2       -0.0000000960
    1    1   11    2       -0.0002418340
    1    1   12    2        0.0000000004
    1    1   13    2        0.0226084060
    1    1    3    3        0.1741420500
    1    1    4    3       -0.0000000001
    1    1    5    3       -0.0000000001
    1    1    6    3        0.0000027366
    1    1    7    3        0.0000000000
    1    1    8    3       -0.0000000426
    1    1    9    3       -0.0632321132
    1    1   10    3        0.0000002596
    1    1   11    3       -0.0000000161
    1    1   12    3       -0.0000000679
    1    1   13    3        0.0000029571
    1    1    4    4        0.1601580933
    1    1    5    4        0.0000000002
    1    1    6    4       -0.0000000640
    1    1    7    4        0.0000036586
    1    1    8    4        0.0000000054
    1    1    9    4       -0.0000000798
    1    1   10    4       -0.0000005641
    1    1   11    4        0.0000024044
    1    1   12    4        0.0000120992
    1    1   13    4        0.0000034021
    1    1    5    5        0.1601497400
    1    1    6    5        0.0000028647
    1    1    7    5        0.0000000895
    1    1    8    5       -0.0000001068
    1    1    9    5       -0.0000002419
    1    1   10    5       -0.0485338644
    1    1   11    5        0.0000004470
    1    1   12    5       -0.0000034991
    1    1   13    5       -0.0000000028
    1    1    6    6        0.1394221764
    1    1    7    6        0.0000000000
    1    1    8    6        0.0004786444
    1    1    9    6       -0.0000048329
    1    1   10    6       -0.0000058808
    1    1   11    6       -0.0214948369
    1    1   12    6        0.0000000310
    1    1   13    6        0.0007669226
    1    1    7    7        0.1385759098
    1    1    8    7        0.0000000000
    1    1    9    7       -0.0000000000
    1    1   10    7       -0.0000001751
    1    1   11    7        0.0000000003
    1    1   12    7       -0.0000007109
    1    1   13    7        0.0000000014
    1    1    8    8        0.1471594816
    1    1    9    8       -0.0000001450
    1    1   10    8        0.0000003442
    1    1   11    8       -0.0001833151
    1    1   12    8        0.0000000002
    1    1   13    8        0.0458738310
    1    1    9    9        0.2015346908
    1    1   10    9        0.0000000264
    1    1   11    9        0.0000022856
    1    1   12    9        0.0000000074
    1    1   13    9       -0.0000076961
    1    1   10   10        0.1800650146
    1    1   11   10        0.0000024651
    1    1   12   10        0.0000036090
    1    1   13   10        0.0000005308
    1    1   11   11        0.1383826822
    1    1   12   11        0.0000000236
    1    1   13   11       -0.0000489094
    1    1   12   12        0.1551903700
    1    1   13   12       -0.0000000000
    1    1   13   13        0.1531859162
    2    1    2    1        0.0024262609
    2    1    3    1       -0.0000003774
    2    1    4    1       -0.0000000065
    2    1    5    1        0.0000002655
    2    1    6    1        0.0001588845
    2    1    7    1       -0.0000000000
    2    1    8    1        0.0036257047
    2    1    9    1        0.0000004776
    2    1   10    1       -0.0000003687
    2    1   11    1       -0.0001091008
    2    1   12    1        0.0000000002
    2    1   13    1        0.0043381804
    2    1    2    2        0.0003900979
    2    1    3    2        0.0000018205
    2    1    4    2        0.0000000543
    2    1    5    2       -0.0000022316
    2    1    6    2       -0.0000084719
    2    1    7    2        0.0000000000
    2    1    8    2        0.0005821191
    2    1    9    2       -0.0000001179
    2    1   10    2        0.0000004035
    2    1   11    2        0.0000040222
    2    1   12    2       -0.0000000021
    2    1   13    2        0.0006800961
    2    1    3    3        0.0010625927
    2    1    4    3       -0.0000000000
    2    1    5    3        0.0000000018
    2    1    6    3        0.0000011176
    2    1    7    3        0.0000000000
    2    1    8    3        0.0000004803
    2    1    9    3       -0.0015704957
    2    1   10    3        0.0000000056
    2    1   11    3       -0.0000004502
    2    1   12    3        0.0000022195
    2    1   13    3        0.0000003717
    2    1    4    4        0.0006046751
    2    1    5    4        0.0000000001
    2    1    6    4       -0.0000000159
    2    1    7    4        0.0000011197
    2    1    8    4        0.0000000121
    2    1    9    4       -0.0000000015
    2    1   10    4       -0.0000000105
    2    1   11    4        0.0000000510
    2    1   12    4       -0.0000000150
    2    1   13    4        0.0000000691
    2    1    5    5        0.0006045247
    2    1    6    5        0.0000006557
    2    1    7    5        0.0000000273
    2    1    8    5       -0.0000004938
    2    1    9    5       -0.0000000038
    2    1   10    5       -0.0009047555
    2    1   11    5       -0.0000002472
    2    1   12    5       -0.0000019937
    2    1   13    5       -0.0000002247
    2    1    6    6        0.0001343280
    2    1    7    6        0.0000000000
    2    1    8    6        0.0000044098
    2    1    9    6       -0.0000012887
    2    1   10    6       -0.0000008173
    2    1   11    6       -0.0001246545
    2    1   12    6       -0.0000000038
    2    1   13    6        0.0000257837
    2    1    7    7        0.0001449770
    2    1    8    7        0.0000000000
    2    1    9    7       -0.0000000000
    2    1   10    7       -0.0000000382
    2    1   11    7        0.0000000001
    2    1   12    7       -0.0000000052
    2    1   13    7        0.0000000001
    2    1    8    8        0.0008926633
    2    1    9    8       -0.0000013882
    2    1   10    8        0.0000018466
    2    1   11    8        0.0000107704
    2    1   12    8        0.0000000006
    2    1   13    8        0.0010795183
    2    1    9    9        0.0025143504
    2    1   10    9       -0.0000000001
    2    1   11    9        0.0000010600
    2    1   12    9        0.0000005395
    2    1   13    9       -0.0000007150
    2    1   10   10        0.0014708403
    2    1   11   10        0.0000007066
    2    1   12   10       -0.0000000842
    2    1   13   10        0.0000005118
    2    1   11   11        0.0001674547
    2    1   12   11       -0.0000000013
    2    1   13   11        0.0000024512
    2    1   12   12        0.0003217041
    2    1   13   12        0.0000000000
    2    1   13   13        0.0013413920
    3    1    3    1        0.0050355984
    3    1    4    1       -0.0000000000
    3    1    5    1        0.0000000001
    3    1    6    1       -0.0000001512
    3    1    7    1        0.0000000000
    3    1    8    1       -0.0000002143
    3    1    9    1       -0.0081285504
    3    1   10    1        0.0000000264
    3    1   11    1        0.0000002040
    3    1   12    1       -0.0000000348
    3    1   13    1        0.0000008217
    3    1    2    2        0.0000605367
    3    1    3    2       -0.0042457800
    3    1    4    2        0.0000000001
    3    1    5    2       -0.0000000044
    3    1    6    2        0.0000738636
    3    1    7    2        0.0000000000
    3    1    8    2       -0.0000193855
    3    1    9    2        0.0013639311
    3    1   10    2       -0.0000000006
    3    1   11    2       -0.0000172823
    3    1   12    2        0.0000006033
    3    1   13    2       -0.0000211968
    3    1    3    3        0.0000004947
    3    1    4    3        0.0000000051
    3    1    5    3       -0.0000002053
    3    1    6    3       -0.0022995682
    3    1    7    3        0.0000000000
    3    1    8    3       -0.0027499345
    3    1    9    3       -0.0000003950
    3    1   10    3        0.0000000064
    3    1   11    3        0.0014129228
    3    1   12    3       -0.0000000027
    3    1   13    3       -0.0023425170
    3    1    4    4        0.0000500131
    3    1    5    4       -0.0000000002
    3    1    6    4        0.0000000001
    3    1    7    4       -0.0000000018
    3    1    8    4        0.0000000002
    3    1    9    4        0.0000000153
    3    1   10    4        0.0000000014
    3    1   11    4       -0.0000000014
    3    1   12    4        0.0006329665
    3    1   13    4       -0.0000000002
    3    1    5    5        0.0000500329
    3    1    6    5       -0.0000000023
    3    1    7    5       -0.0000000000
    3    1    8    5       -0.0000000070
    3    1    9    5       -0.0000006290
    3    1   10    5        0.0000410499
    3    1   11    5        0.0000000218
    3    1   12    5        0.0047685887
    3    1   13    5        0.0000000045
    3    1    6    6        0.0001116125
    3    1    7    6       -0.0000000000
    3    1    8    6        0.0000110174
    3    1    9    6        0.0032112659
    3    1   10    6       -0.0000000010
    3    1   11    6       -0.0000565131
    3    1   12    6        0.0000007172
    3    1   13    6       -0.0000394349
    3    1    7    7        0.0000464453
    3    1    8    7        0.0000000000
    3    1    9    7        0.0000000000
    3    1   10    7        0.0000000001
    3    1   11    7       -0.0000000009
    3    1   12    7        0.0000000842
    3    1   13    7        0.0000000003
    3    1    8    8        0.0000651720
    3    1    9    8        0.0038399520
    3    1   10    8       -0.0000000238
    3    1   11    8       -0.0000495475
    3    1   12    8        0.0000000145
    3    1   13    8       -0.0000209752
    3    1    9    9        0.0000001283
    3    1   10    9       -0.0000000145
    3    1   11    9       -0.0029165307
    3    1   12    9       -0.0000000050
    3    1   13    9        0.0030612253
    3    1   10   10        0.0000562313
    3    1   11   10        0.0000000079
    3    1   12   10       -0.0016091703
    3    1   13   10       -0.0000000063
    3    1   11   11        0.0000933762
    3    1   12   11        0.0000001001
    3    1   13   11       -0.0000133163
    3    1   12   12        0.0000055145
    3    1   13   12        0.0000000535
    3    1   13   13        0.0000767285
    4    1    4    1        0.0019216158
    4    1    5    1        0.0000000000
    4    1    6    1       -0.0000000001
    4    1    7    1       -0.0000000913
    4    1    8    1       -0.0000000028
    4    1    9    1       -0.0000000052
    4    1   10    1       -0.0000000370
    4    1   11    1        0.0000001575
    4    1   12    1        0.0000007970
    4    1   13    1        0.0000002263
    4    1    2    2        0.0000014904
    4    1    3    2       -0.0000000001
    4    1    4    2       -0.0030987486
    4    1    5    2        0.0000000001
    4    1    6    2       -0.0000009246
    4    1    7    2        0.0000652962
    4    1    8    2       -0.0000004635
    4    1    9    2        0.0000000020
    4    1   10    2        0.0000000160
    4    1   11    2        0.0000001397
    4    1   12    2       -0.0000004018
    4    1   13    2       -0.0000006123
    4    1    3    3        0.0000010862
    4    1    4    3        0.0000004016
    4    1    5    3       -0.0000000001
    4    1    6    3        0.0000000000
    4    1    7    3       -0.0000000053
    4    1    8    3        0.0000000002
    4    1    9    3        0.0000010964
    4    1   10    3        0.0000000007
    4    1   11    3        0.0000000006
    4    1   12    3        0.0004713196
    4    1   13    3        0.0000000024
    4    1    4    4       -0.0000005969
    4    1    5    4        0.0000247899
    4    1    6    4        0.0006720763
    4    1    7    4       -0.0000604874
    4    1    8    4       -0.0018626930
    4    1    9    4        0.0000000121
    4    1   10    4        0.0000243818
    4    1   11    4       -0.0003923781
    4    1   12    4       -0.0000000366
    4    1   13    4       -0.0015312275
    4    1    5    5        0.0000018412
    4    1    6    5       -0.0000000001
    4    1    7    5        0.0012413157
    4    1    8    5       -0.0000000002
    4    1    9    5        0.0000000001
    4    1   10    5        0.0000017545
    4    1   11    5       -0.0000000018
    4    1   12    5       -0.0000000213
    4    1   13    5       -0.0000000015
    4    1    6    6        0.0000015532
    4    1    7    6       -0.0000289535
    4    1    8    6       -0.0000001362
    4    1    9    6       -0.0000000016
    4    1   10    6       -0.0000000122
    4    1   11    6        0.0000009445
    4    1   12    6        0.0000009984
    4    1   13    6        0.0000005762
    4    1    7    7        0.0000023729
    4    1    8    7        0.0000092567
    4    1    9    7       -0.0000000189
    4    1   10    7       -0.0020843093
    4    1   11    7        0.0000538391
    4    1   12    7        0.0000022835
    4    1   13    7       -0.0000346764
    4    1    8    8        0.0000016374
    4    1    9    8        0.0000000053
    4    1   10    8        0.0000000359
    4    1   11    8        0.0000004528
    4    1   12    8       -0.0000007917
    4    1   13    8       -0.0000007695
    4    1    9    9        0.0000014598
    4    1   10    9       -0.0000000001
    4    1   11    9        0.0000000015
    4    1   12    9       -0.0001077935
    4    1   13    9        0.0000000032
    4    1   10   10        0.0000023371
    4    1   11   10        0.0000000098
    4    1   12   10        0.0000000543
    4    1   13   10        0.0000000244
    4    1   11   11        0.0000022345
    4    1   12   11       -0.0000001987
    4    1   13   11       -0.0000000185
    4    1   12   12        0.0000088770
    4    1   13   12       -0.0000005758
    4    1   13   13        0.0000016376
    5    1    5    1        0.0019211582
    5    1    6    1        0.0000000183
    5    1    7    1       -0.0000000022
    5    1    8    1        0.0000001229
    5    1    9    1       -0.0000000161
    5    1   10    1       -0.0031838450
    5    1   11    1        0.0000000381
    5    1   12    1       -0.0000002068
    5    1   13    1       -0.0000001278
    5    1    2    2       -0.0000611967
    5    1    3    2        0.0000000032
    5    1    4    2        0.0000000001
    5    1    5    2       -0.0030983355
    5    1    6    2        0.0000379548
    5    1    7    2        0.0000015899
    5    1    8    2        0.0000190291
    5    1    9    2        0.0000000149
    5    1   10    2        0.0013511798
    5    1   11    2       -0.0000084950
    5    1   12    2       -0.0000004262
    5    1   13    2        0.0000212559
    5    1    3    3       -0.0000445985
    5    1    4    3       -0.0000000000
    5    1    5    3        0.0000004003
    5    1    6    3       -0.0000000002
    5    1    7    3       -0.0000000001
    5    1    8    3       -0.0000000062
    5    1    9    3       -0.0000450165
    5    1   10    3        0.0000001565
    5    1   11    3        0.0000000105
    5    1   12    3        0.0035500972
    5    1   13    3        0.0000000005
    5    1    4    4       -0.0000251359
    5    1    5    4        0.0000006256
    5    1    6    4       -0.0000000001
    5    1    7    4        0.0012410642
    5    1    8    4       -0.0000000002
    5    1    9    4       -0.0000000000
    5    1   10    4        0.0000006013
    5    1   11    4        0.0000000006
    5    1   12    4       -0.0000000277
    5    1   13    4        0.0000000014
    5    1    5    5       -0.0000259728
    5    1    6    5        0.0006715459
    5    1    7    5        0.0000604887
    5    1    8    5       -0.0018621897
    5    1    9    5        0.0000000122
    5    1   10    5       -0.0000235950
    5    1   11    5       -0.0003922738
    5    1   12    5        0.0000000385
    5    1   13    5       -0.0015308311
    5    1    6    6       -0.0000637590
    5    1    7    6       -0.0000007048
    5    1    8    6        0.0000055657
    5    1    9    6       -0.0000000091
    5    1   10    6       -0.0010459891
    5    1   11    6       -0.0000366944
    5    1   12    6       -0.0000040359
    5    1   13    6       -0.0000200187
    5    1    7    7       -0.0000974284
    5    1    8    7        0.0000002257
    5    1    9    7       -0.0000000042
    5    1   10    7       -0.0001015904
    5    1   11    7        0.0000014154
    5    1   12    7        0.0000002449
    5    1   13    7       -0.0000007069
    5    1    8    8       -0.0000672427
    5    1    9    8        0.0000000076
    5    1   10    8        0.0031056846
    5    1   11    8       -0.0000249399
    5    1   12    8        0.0000002981
    5    1   13    8        0.0000226395
    5    1    9    9       -0.0000599357
    5    1   10    9        0.0000001430
    5    1   11    9        0.0000000047
    5    1   12    9       -0.0008119238
    5    1   13    9        0.0000000103
    5    1   10   10       -0.0000323251
    5    1   11   10        0.0009905444
    5    1   12   10        0.0000000340
    5    1   13   10        0.0022813204
    5    1   11   11       -0.0000958036
    5    1   12   11       -0.0000002052
    5    1   13   11       -0.0000067098
    5    1   12   12       -0.0000271028
    5    1   13   12        0.0000001947
    5    1   13   13       -0.0000803843
    6    1    6    1        0.0001310909
    6    1    7    1       -0.0000000000
    6    1    8    1        0.0002366780
    6    1    9    1        0.0000001077
    6    1   10    1       -0.0000000985
    6    1   11    1       -0.0001495087
    6    1   12    1        0.0000000003
    6    1   13    1        0.0002835792
    6    1    2    2        0.0000180700
    6    1    3    2        0.0000027375
    6    1    4    2       -0.0000000370
    6    1    5    2        0.0000014988
    6    1    6    2       -0.0005948732
    6    1    7    2        0.0000000000
    6    1    8    2        0.0000391083
    6    1    9    2       -0.0000002155
    6    1   10    2       -0.0000002229
    6    1   11    2        0.0003033561
    6    1   12    2       -0.0000000024
    6    1   13    2        0.0000447341
    6    1    3    3       -0.0002942038
    6    1    4    3       -0.0000000000
    6    1    5    3        0.0000000012
    6    1    6    3        0.0000016283
    6    1    7    3       -0.0000000000
    6    1    8    3        0.0000007077
    6    1    9    3        0.0006139579
    6    1   10    3       -0.0000000023
    6    1   11    3       -0.0000007038
    6    1   12    3       -0.0000012998
    6    1   13    3        0.0000001952
    6    1    4    4        0.0001535955
    6    1    5    4       -0.0000000001
    6    1    6    4        0.0000000130
    6    1    7    4       -0.0000006515
    6    1    8    4       -0.0000000072
    6    1    9    4       -0.0000000006
    6    1   10    4       -0.0000000039
    6    1   11    4        0.0000000180
    6    1   12    4       -0.0000001013
    6    1   13    4        0.0000000274
    6    1    5    5        0.0001533822
    6    1    6    5       -0.0000005241
    6    1    7    5       -0.0000000156
    6    1    8    5        0.0000002799
    6    1    9    5       -0.0000000007
    6    1   10    5       -0.0003384369
    6    1   11    5       -0.0000000622
    6    1   12    5       -0.0000036756
    6    1   13    5       -0.0000000110
    6    1    6    6       -0.0002201019
    6    1    7    6       -0.0000000000
    6    1    8    6       -0.0004612336
    6    1    9    6       -0.0000017161
    6    1   10    6        0.0000003889
    6    1   11    6        0.0004704656
    6    1   12    6        0.0000000003
    6    1   13    6       -0.0001161956
    6    1    7    7        0.0002107907
    6    1    8    7        0.0000000000
    6    1    9    7        0.0000000000
    6    1   10    7        0.0000000217
    6    1   11    7       -0.0000000000
    6    1   12    7       -0.0000000161
    6    1   13    7       -0.0000000000
    6    1    8    8        0.0000646923
    6    1    9    8       -0.0000019994
    6    1   10    8       -0.0000011233
    6    1   11    8        0.0005151878
    6    1   12    8       -0.0000000007
    6    1   13    8        0.0000716659
    6    1    9    9       -0.0006438052
    6    1   10    9        0.0000000049
    6    1   11    9        0.0000014857
    6    1   12    9       -0.0000006031
    6    1   13    9       -0.0000005266
    6    1   10   10        0.0004565779
    6    1   11   10       -0.0000003744
    6    1   12   10       -0.0000002310
    6    1   13   10       -0.0000001467
    6    1   11   11       -0.0002945652
    6    1   12   11        0.0000000011
    6    1   13   11        0.0003944280
    6    1   12   12       -0.0000623370
    6    1   13   12       -0.0000000003
    6    1   13   13        0.0000938804
    7    1    7    1        0.0000931561
    7    1    8    1       -0.0000000000
    7    1    9    1        0.0000000000
    7    1   10    1        0.0000000011
    7    1   11    1       -0.0000000000
    7    1   12    1       -0.0000000037
    7    1   13    1        0.0000000000
    7    1    2    2       -0.0000000000
    7    1    3    2       -0.0000000000
    7    1    4    2        0.0000027955
    7    1    5    2        0.0000000680
    7    1    6    2        0.0000000000
    7    1    7    2       -0.0005366550
    7    1    8    2        0.0000000000
    7    1    9    2       -0.0000000000
    7    1   10    2       -0.0000000121
    7    1   11    2        0.0000000000
    7    1   12    2        0.0000000096
    7    1   13    2        0.0000000000
    7    1    3    3       -0.0000000000
    7    1    4    3       -0.0000000025
    7    1    5    3       -0.0000000001
    7    1    6    3       -0.0000000000
    7    1    7    3        0.0000001425
    7    1    8    3        0.0000000000
    7    1    9    3        0.0000000000
    7    1   10    3       -0.0000000000
    7    1   11    3       -0.0000000001
    7    1   12    3       -0.0000004094
    7    1   13    3        0.0000000000
    7    1    4    4       -0.0000093289
    7    1    5    4        0.0001914522
    7    1    6    4       -0.0000006975
    7    1    7    4        0.0000000344
    7    1    8    4        0.0000005711
    7    1    9    4       -0.0000000032
    7    1   10    4       -0.0004907822
    7    1   11    4        0.0000004193
    7    1   12    4        0.0000004849
    7    1   13    4        0.0000000974
    7    1    5    5        0.0000093315
    7    1    6    5       -0.0000000169
    7    1    7    5       -0.0000014134
    7    1    8    5        0.0000000139
    7    1    9    5       -0.0000000010
    7    1   10    5       -0.0000239224
    7    1   11    5        0.0000000348
    7    1   12    5        0.0000000605
    7    1   13    5        0.0000000349
    7    1    6    6       -0.0000000000
    7    1    7    6        0.0001772707
    7    1    8    6        0.0000000000
    7    1    9    6        0.0000000000
    7    1   10    6        0.0000000205
    7    1   11    6       -0.0000000000
    7    1   12    6       -0.0000000151
    7    1   13    6       -0.0000000001
    7    1    7    7       -0.0000000000
    7    1    8    7       -0.0004096322
    7    1    9    7        0.0000000404
    7    1   10    7        0.0000017249
    7    1   11    7       -0.0004207392
    7    1   12    7       -0.0000000028
    7    1   13    7       -0.0000978672
    7    1    8    8       -0.0000000000
    7    1    9    8       -0.0000000000
    7    1   10    8       -0.0000000531
    7    1   11    8        0.0000000001
    7    1   12    8        0.0000000167
    7    1   13    8        0.0000000001
    7    1    9    9       -0.0000000000
    7    1   10    9        0.0000000011
    7    1   11    9        0.0000000000
    7    1   12    9       -0.0000001320
    7    1   13    9       -0.0000000000
    7    1   10   10        0.0000279418
    7    1   11   10       -0.0000000481
    7    1   12   10       -0.0000001464
    7    1   13   10       -0.0000000497
    7    1   11   11        0.0000000001
    7    1   12   11        0.0000000092
    7    1   13   11        0.0000000001
    7    1   12   12        0.0000432814
    7    1   13   12        0.0000000125
    7    1   13   13        0.0000000000
    8    1    8    1        0.0054488350
    8    1    9    1        0.0000002186
    8    1   10    1       -0.0000001540
    8    1   11    1       -0.0001625889
    8    1   12    1        0.0000000001
    8    1   13    1        0.0065541236
    8    1    2    2        0.0004539344
    8    1    3    2        0.0000007652
    8    1    4    2        0.0000000230
    8    1    5    2       -0.0000009531
    8    1    6    2       -0.0000015266
    8    1    7    2        0.0000000000
    8    1    8    2        0.0006845062
    8    1    9    2       -0.0000002231
    8    1   10    2        0.0000004163
    8    1   11    2        0.0000019510
    8    1   12    2        0.0000000025
    8    1   13    2        0.0008623638
    8    1    3    3        0.0012234340
    8    1    4    3        0.0000000001
    8    1    5    3       -0.0000000024
    8    1    6    3        0.0000006672
    8    1    7    3        0.0000000000
    8    1    8    3        0.0000003703
    8    1    9    3       -0.0019041412
    8    1   10    3        0.0000000059
    8    1   11    3       -0.0000004001
    8    1   12    3        0.0000009534
    8    1   13    3        0.0000003372
    8    1    4    4        0.0006292646
    8    1    5    4       -0.0000000001
    8    1    6    4       -0.0000000100
    8    1    7    4        0.0000006758
    8    1    8    4        0.0000000105
    8    1    9    4       -0.0000000016
    8    1   10    4       -0.0000000116
    8    1   11    4        0.0000000553
    8    1   12    4        0.0000001520
    8    1   13    4        0.0000000740
    8    1    5    5        0.0006291120
    8    1    6    5        0.0000004172
    8    1    7    5        0.0000000166
    8    1    8    5       -0.0000004353
    8    1    9    5       -0.0000000056
    8    1   10    5       -0.0009940693
    8    1   11    5       -0.0000002404
    8    1   12    5       -0.0000009026
    8    1   13    5       -0.0000001752
    8    1    6    6        0.0000696286
    8    1    7    6       -0.0000000000
    8    1    8    6        0.0000136897
    8    1    9    6       -0.0000007963
    8    1   10    6       -0.0000005510
    8    1   11    6       -0.0000608350
    8    1   12    6       -0.0000000007
    8    1   13    6        0.0000356519
    8    1    7    7        0.0000837417
    8    1    8    7        0.0000000000
    8    1    9    7       -0.0000000000
    8    1   10    7       -0.0000000237
    8    1   11    7        0.0000000001
    8    1   12    7       -0.0000000032
    8    1   13    7        0.0000000001
    8    1    8    8        0.0011012011
    8    1    9    8       -0.0000006244
    8    1   10    8        0.0000008683
    8    1   11    8        0.0000044759
    8    1   12    8       -0.0000000005
    8    1   13    8        0.0013648163
    8    1    9    9        0.0031373289
    8    1   10    9       -0.0000000031
    8    1   11    9        0.0000007032
    8    1   12    9        0.0000001157
    8    1   13    9       -0.0000006212
    8    1   10   10        0.0016861854
    8    1   11   10        0.0000005002
    8    1   12   10        0.0000001612
    8    1   13   10        0.0000003975
    8    1   11   11        0.0000941423
    8    1   12   11        0.0000000001
    8    1   13   11       -0.0000062384
    8    1   12   12        0.0002837180
    8    1   13   12        0.0000000001
    8    1   13   13        0.0017364014
    9    1    9    1        0.0132403288
    9    1   10    1       -0.0000000162
    9    1   11    1       -0.0000002130
    9    1   12    1       -0.0000000106
    9    1   13    1       -0.0000014403
    9    1    2    2       -0.0000818796
    9    1    3    2        0.0057418313
    9    1    4    2        0.0000000066
    9    1    5    2        0.0000000428
    9    1    6    2       -0.0001007754
    9    1    7    2       -0.0000000002
    9    1    8    2        0.0000246563
    9    1    9    2       -0.0020664963
    9    1   10    2        0.0000000040
    9    1   11    2        0.0000251919
    9    1   12    2        0.0000004021
    9    1   13    2        0.0000288787
    9    1    3    3       -0.0000007055
    9    1    4    3        0.0000000224
    9    1    5    3       -0.0000009231
    9    1    6    3        0.0033830840
    9    1    7    3        0.0000000000
    9    1    8    3        0.0039203677
    9    1    9    3        0.0000005176
    9    1   10    3        0.0000001853
    9    1   11    3       -0.0022196532
    9    1   12    3       -0.0000000225
    9    1   13    3        0.0034157627
    9    1    4    4       -0.0000676561
    9    1    5    4        0.0000000002
    9    1    6    4       -0.0000000022
    9    1    7    4       -0.0000000132
    9    1    8    4        0.0000000047
    9    1    9    4       -0.0000000135
    9    1   10    4       -0.0000000020
    9    1   11    4        0.0000000029
    9    1   12    4       -0.0008596608
    9    1   13    4        0.0000000042
    9    1    5    5       -0.0000676828
    9    1    6    5        0.0000000133
    9    1    7    5       -0.0000000037
    9    1    8    5        0.0000000126
    9    1    9    5        0.0000005570
    9    1   10    5       -0.0000548517
    9    1   11    5       -0.0000000245
    9    1   12    5       -0.0064764348
    9    1   13    5        0.0000000024
    9    1    6    6       -0.0001533011
    9    1    7    6        0.0000000001
    9    1    8    6       -0.0000165039
    9    1    9    6       -0.0046288335
    9    1   10    6        0.0000000190
    9    1   11    6        0.0000796127
    9    1   12    6       -0.0000010039
    9    1   13    6        0.0000532491
    9    1    7    7       -0.0000622591
    9    1    8    7       -0.0000000000
    9    1    9    7       -0.0000000000
    9    1   10    7        0.0000000059
    9    1   11    7        0.0000000010
    9    1   12    7       -0.0000002230
    9    1   13    7       -0.0000000003
    9    1    8    8       -0.0000871651
    9    1    9    8       -0.0054037123
    9    1   10    8       -0.0000000068
    9    1   11    8        0.0000679003
    9    1   12    8        0.0000000005
    9    1   13    8        0.0000274818
    9    1    9    9       -0.0000001480
    9    1   10    9       -0.0000004372
    9    1   11    9        0.0043545243
    9    1   12    9        0.0000000151
    9    1   13    9       -0.0044474204
    9    1   10   10       -0.0000749469
    9    1   11   10       -0.0000000154
    9    1   12   10        0.0023891456
    9    1   13   10       -0.0000000018
    9    1   11   11       -0.0001291168
    9    1   12   11        0.0000000451
    9    1   13   11        0.0000176232
    9    1   12   12       -0.0000079212
    9    1   13   12       -0.0000000594
    9    1   13   13       -0.0001022021
   10    1   10    1        0.0053417141
   10    1   11    1        0.0000000019
   10    1   12    1        0.0000004047
   10    1   13    1        0.0000002228
   10    1    2    2        0.0000861516
   10    1    3    2       -0.0000000106
   10    1    4    2        0.0000000509
   10    1    5    2        0.0043463078
   10    1    6    2       -0.0000539438
   10    1    7    2       -0.0000022636
   10    1    8    2       -0.0000246315
   10    1    9    2        0.0000000009
   10    1   10    2       -0.0021475890
   10    1   11    2        0.0000131896
   10    1   12    2       -0.0000003596
   10    1   13    2       -0.0000302551
   10    1    3    3        0.0000628907
   10    1    4    3        0.0000000002
   10    1    5    3        0.0000003483
   10    1    6    3       -0.0000000145
   10    1    7    3       -0.0000000002
   10    1    8    3       -0.0000000159
   10    1    9    3        0.0000626588
   10    1   10    3       -0.0000001147
   10    1   11    3       -0.0000000009
   10    1   12    3       -0.0050095610
   10    1   13    3       -0.0000000161
   10    1    4    4        0.0000366527
   10    1    5    4       -0.0000008206
   10    1    6    4       -0.0000000125
   10    1    7    4       -0.0019326805
   10    1    8    4        0.0000000326
   10    1    9    4       -0.0000000001
   10    1   10    4       -0.0000008285
   10    1   11    4        0.0000000067
   10    1   12    4        0.0000000490
   10    1   13    4        0.0000000255
   10    1    5    5        0.0000353641
   10    1    6    5       -0.0010536678
   10    1    7    5       -0.0000942175
   10    1    8    5        0.0028094343
   10    1    9    5       -0.0000000106
   10    1   10    5        0.0000327786
   10    1   11    5        0.0006729581
   10    1   12    5       -0.0000000396
   10    1   13    5        0.0023731759
   10    1    6    6        0.0000899994
   10    1    7    6        0.0000010329
   10    1    8    6       -0.0000089510
   10    1    9    6        0.0000000240
   10    1   10    6        0.0015925043
   10    1   11    6        0.0000496541
   10    1   12    6        0.0000049854
   10    1   13    6        0.0000281529
   10    1    7    7        0.0001393380
   10    1    8    7       -0.0000003657
   10    1    9    7        0.0000000060
   10    1   10    7        0.0001523208
   10    1   11    7       -0.0000020363
   10    1   12    7       -0.0000003675
   10    1   13    7        0.0000009798
   10    1    8    8        0.0000933345
   10    1    9    8       -0.0000000098
   10    1   10    8       -0.0046111074
   10    1   11    8        0.0000357060
   10    1   12    8       -0.0000004411
   10    1   13    8       -0.0000305765
   10    1    9    9        0.0000831247
   10    1   10    9        0.0000001939
   10    1   11    9       -0.0000000241
   10    1   12    9        0.0013272970
   10    1   13    9        0.0000000033
   10    1   10   10        0.0000442186
   10    1   11   10       -0.0015753705
   10    1   12   10       -0.0000000698
   10    1   13   10       -0.0035430596
   10    1   11   11        0.0001347501
   10    1   12   11        0.0000003866
   10    1   13   11        0.0000091854
   10    1   12   12        0.0000368766
   10    1   13   12       -0.0000003251
   10    1   13   13        0.0001109864
   11    1   11    1        0.0001781723
   11    1   12    1        0.0000000003
   11    1   13    1       -0.0001952972
   11    1    2    2       -0.0000094573
   11    1    3    2       -0.0000021366
   11    1    4    2       -0.0000001863
   11    1    5    2       -0.0000012339
   11    1    6    2        0.0005663478
   11    1    7    2        0.0000000046
   11    1    8    2       -0.0000239565
   11    1    9    2        0.0000003903
   11    1   10    2        0.0000003502
   11    1   11    2       -0.0003894307
   11    1   12    2       -0.0000000036
   11    1   13    2       -0.0000290794
   11    1    3    3        0.0003518085
   11    1    4    3        0.0000000002
   11    1    5    3        0.0000000040
   11    1    6    3       -0.0000014021
   11    1    7    3       -0.0000000001
   11    1    8    3       -0.0000007765
   11    1    9    3       -0.0007240249
   11    1   10    3        0.0000000018
   11    1   11    3        0.0000007715
   11    1   12    3        0.0000011693
   11    1   13    3       -0.0000002718
   11    1    4    4       -0.0001477627
   11    1    5    4        0.0000000016
   11    1    6    4        0.0000000507
   11    1    7    4        0.0000008109
   11    1    8    4       -0.0000001304
   11    1    9    4        0.0000000005
   11    1   10    4        0.0000000056
   11    1   11    4       -0.0000000452
   11    1   12    4        0.0000000376
   11    1   13    4       -0.0000001429
   11    1    5    5       -0.0001475613
   11    1    6    5        0.0000000636
   11    1    7    5        0.0000001161
   11    1    8    5       -0.0000003858
   11    1    9    5        0.0000000008
   11    1   10    5        0.0003399674
   11    1   11    5       -0.0000002018
   11    1   12    5        0.0000029609
   11    1   13    5       -0.0000000974
   11    1    6    6        0.0003006534
   11    1    7    6       -0.0000000021
   11    1    8    6        0.0004998018
   11    1    9    6        0.0000015070
   11    1   10    6       -0.0000003571
   11    1   11    6       -0.0004790426
   11    1   12    6       -0.0000000011
   11    1   13    6        0.0001921011
   11    1    7    7       -0.0002798265
   11    1    8    7        0.0000000007
   11    1    9    7        0.0000000000
   11    1   10    7       -0.0000001762
   11    1   11    7        0.0000000039
   11    1   12    7        0.0000000164
   11    1   13    7       -0.0000000024
   11    1    8    8       -0.0000444745
   11    1    9    8        0.0000016344
   11    1   10    8        0.0000009870
   11    1   11    8       -0.0005685494
   11    1   12    8        0.0000000003
   11    1   13    8       -0.0000492164
   11    1    9    9        0.0008750197
   11    1   10    9       -0.0000000032
   11    1   11    9       -0.0000013710
   11    1   12    9        0.0000002103
   11    1   13    9        0.0000005270
   11    1   10   10       -0.0004960563
   11    1   11   10        0.0000003676
   11    1   12   10       -0.0000000054
   11    1   13   10        0.0000002321
   11    1   11   11        0.0003650504
   11    1   12   11       -0.0000000011
   11    1   13   11       -0.0003968714
   11    1   12   12        0.0000589386
   11    1   13   12        0.0000000003
   11    1   13   13       -0.0000657851
   12    1   12    1        0.0003173790
   12    1   13    1        0.0000000003
   12    1    2    2       -0.0000001337
   12    1    3    2        0.0000082247
   12    1    4    2       -0.0000019318
   12    1    5    2       -0.0000061431
   12    1    6    2       -0.0000000877
   12    1    7    2        0.0000000626
   12    1    8    2        0.0000001979
   12    1    9    2        0.0000079407
   12    1   10    2       -0.0000050418
   12    1   11    2       -0.0000001230
   12    1   12    2       -0.0009471337
   12    1   13    2       -0.0000000027
   12    1    3    3        0.0000000044
   12    1    4    3        0.0001528930
   12    1    5    3        0.0011517539
   12    1    6    3       -0.0000025205
   12    1    7    3       -0.0000014881
   12    1    8    3       -0.0000034534
   12    1    9    3        0.0000000029
   12    1   10    3       -0.0007159065
   12    1   11    3        0.0000036764
   12    1   12    3        0.0000006992
   12    1   13    3       -0.0000028083
   12    1    4    4       -0.0000000454
   12    1    5    4        0.0000000103
   12    1    6    4       -0.0000006236
   12    1    7    4        0.0000020487
   12    1    8    4       -0.0000003253
   12    1    9    4       -0.0000725145
   12    1   10    4        0.0000000425
   12    1   11    4       -0.0000000804
   12    1   12    4        0.0000001200
   12    1   13    4       -0.0000002990
   12    1    5    5       -0.0000000499
   12    1    6    5       -0.0000078105
   12    1    7    5        0.0000008010
   12    1    8    5        0.0000030282
   12    1    9    5       -0.0005462306
   12    1   10    5       -0.0000000978
   12    1   11    5        0.0000009378
   12    1   12    5       -0.0000041074
   12    1   13    5        0.0000023815
   12    1    6    6       -0.0000000573
   12    1    7    6       -0.0000000016
   12    1    8    6        0.0000000748
   12    1    9    6       -0.0000041222
   12    1   10    6       -0.0000038126
   12    1   11    6       -0.0000000872
   12    1   12    6       -0.0002181682
   12    1   13    6        0.0000001009
   12    1    7    7       -0.0000001986
   12    1    8    7       -0.0000000036
   12    1    9    7       -0.0000010309
   12    1   10    7       -0.0000009291
   12    1   11    7        0.0000000596
   12    1   12    7        0.0001085300
   12    1   13    7       -0.0000000311
   12    1    8    8       -0.0000003571
   12    1    9    8       -0.0000065596
   12    1   10    8        0.0000047647
   12    1   11    8        0.0000001185
   12    1   12    8       -0.0005630605
   12    1   13    8        0.0000001981
   12    1    9    9        0.0000000170
   12    1   10    9        0.0008867897
   12    1   11    9       -0.0000007292
   12    1   12    9       -0.0000010062
   12    1   13    9        0.0000000367
   12    1   10   10       -0.0000002182
   12    1   11   10       -0.0000013231
   12    1   12   10       -0.0000046172
   12    1   13   10       -0.0000011547
   12    1   11   11       -0.0000001266
   12    1   12   11        0.0000349718
   12    1   13   11        0.0000001424
   12    1   12   12        0.0000000073
   12    1   13   12       -0.0004863512
   12    1   13   13       -0.0000004928
   13    1   13    1        0.0079252468
   13    1    2    2        0.0004476782
   13    1    3    2       -0.0000011071
   13    1    4    2       -0.0000003249
   13    1    5    2        0.0000008336
   13    1    6    2        0.0000034515
   13    1    7    2        0.0000000065
   13    1    8    2        0.0007083779
   13    1    9    2        0.0000001666
   13    1   10    2       -0.0000000804
   13    1   11    2       -0.0000018757
   13    1   12    2        0.0000000015
   13    1   13    2        0.0008935178
   13    1    3    3        0.0011241959
   13    1    4    3        0.0000000008
   13    1    5    3       -0.0000000015
   13    1    6    3       -0.0000005195
   13    1    7    3        0.0000000000
   13    1    8    3       -0.0000004345
   13    1    9    3       -0.0018666361
   13    1   10    3        0.0000000063
   13    1   11    3        0.0000001845
   13    1   12    3       -0.0000007698
   13    1   13    3       -0.0000001142
   13    1    4    4        0.0005077811
   13    1    5    4        0.0000000024
   13    1    6    4        0.0000000789
   13    1    7    4       -0.0000002694
   13    1    8    4       -0.0000001999
   13    1    9    4       -0.0000000018
   13    1   10    4       -0.0000000079
   13    1   11    4       -0.0000000029
   13    1   12    4        0.0000003839
   13    1   13    4       -0.0000001038
   13    1    5    5        0.0005076493
   13    1    6    5       -0.0000001301
   13    1    7    5        0.0000001281
   13    1    8    5        0.0000001222
   13    1    9    5       -0.0000000045
   13    1   10    5       -0.0008846722
   13    1   11    5       -0.0000000264
   13    1   12    5        0.0000010675
   13    1   13    5       -0.0000000147
   13    1    6    6        0.0000293901
   13    1    7    6       -0.0000000030
   13    1    8    6        0.0000195894
   13    1    9    6        0.0000005698
   13    1   10    6        0.0000000795
   13    1   11    6       -0.0000213009
   13    1   12    6        0.0000000022
   13    1   13    6        0.0000409851
   13    1    7    7        0.0000419393
   13    1    8    7        0.0000000010
   13    1    9    7       -0.0000000000
   13    1   10    7       -0.0000002118
   13    1   11    7        0.0000000054
   13    1   12    7       -0.0000000013
   13    1   13    7       -0.0000000034
   13    1    8    8        0.0011270506
   13    1    9    8        0.0000008587
   13    1   10    8       -0.0000005789
   13    1   11    8       -0.0000020042
   13    1   12    8        0.0000000000
   13    1   13    8        0.0014376063
   13    1    9    9        0.0031351994
   13    1   10    9       -0.0000000028
   13    1   11    9       -0.0000005298
   13    1   12    9       -0.0000002427
   13    1   13    9        0.0000001741
   13    1   10   10        0.0015350460
   13    1   11   10       -0.0000000883
   13    1   12   10        0.0000000402
   13    1   13   10       -0.0000001109
   13    1   11   11        0.0000504724
   13    1   12   11        0.0000000010
   13    1   13   11       -0.0000121931
   13    1   12   12        0.0001496019
   13    1   13   12       -0.0000000003
   13    1   13   13        0.0018339204
    2    2    2    2        0.1193113896
    2    2    3    2       -0.0004472155
    2    2    4    2       -0.0000153076
    2    2    5    2        0.0006285961
    2    2    6    2        0.0003263170
    2    2    7    2        0.0000000000
    2    2    8    2        0.0098204092
    2    2    9    2       -0.0000506045
    2    2   10    2        0.0000016400
    2    2   11    2       -0.0000012150
    2    2   12    2        0.0000037307
    2    2   13    2        0.0020603945
    2    2    3    3        0.1255384294
    2    2    4    3        0.0000000827
    2    2    5    3       -0.0000033956
    2    2    6    3       -0.0001985139
    2    2    7    3       -0.0000000000
    2    2    8    3       -0.0000393240
    2    2    9    3       -0.0092852162
    2    2   10    3       -0.0000006012
    2    2   11    3        0.0000383745
    2    2   12    3       -0.0006132004
    2    2   13    3       -0.0000368056
    2    2    4    4        0.1241351982
    2    2    5    4       -0.0000001185
    2    2    6    4        0.0000031818
    2    2    7    4       -0.0002282656
    2    2    8    4       -0.0000007671
    2    2    9    4        0.0000000144
    2    2   10    4       -0.0000001351
    2    2   11    4       -0.0000000335
    2    2   12    4        0.0000630107
    2    2   13    4       -0.0000003166
    2    2    5    5        0.1241384968
    2    2    6    5       -0.0001305226
    2    2    7    5       -0.0000055599
    2    2    8    5        0.0000314752
    2    2    9    5       -0.0000012442
    2    2   10    5       -0.0089639350
    2    2   11    5        0.0000197266
    2    2   12    5        0.0004576887
    2    2   13    5        0.0000387700
    2    2    6    6        0.1202219084
    2    2    7    6       -0.0000000000
    2    2    8    6       -0.0000183734
    2    2    9    6        0.0002289203
    2    2   10    6        0.0001492359
    2    2   11    6       -0.0063441625
    2    2   12    6        0.0000017342
    2    2   13    6        0.0000700064
    2    2    7    7        0.1200231489
    2    2    8    7       -0.0000000001
    2    2    9    7        0.0000000006
    2    2   10    7        0.0000078977
    2    2   11    7       -0.0000000164
    2    2   12    7       -0.0000004015
    2    2   13    7       -0.0000000203
    2    2    8    8        0.1150783194
    2    2    9    8        0.0003392471
    2    2   10    8       -0.0005068808
    2    2   11    8       -0.0000622973
    2    2   12    8       -0.0000009799
    2    2   13    8        0.0100975961
    2    2    9    9        0.1232733909
    2    2   10    9       -0.0000018887
    2    2   11    9       -0.0001678974
    2    2   12    9       -0.0002086411
    2    2   13    9        0.0000593654
    2    2   10   10        0.1223317524
    2    2   11   10       -0.0001220868
    2    2   12   10        0.0001013004
    2    2   13   10       -0.0000577217
    2    2   11   11        0.1184605186
    2    2   12   11        0.0000007436
    2    2   13   11        0.0000250556
    2    2   12   12        0.1253696982
    2    2   13   12        0.0000002131
    2    2   13   13        0.1142203751
    3    2    3    2        0.0240297093
    3    2    4    2        0.0000000709
    3    2    5    2       -0.0000029117
    3    2    6    2       -0.0004963528
    3    2    7    2       -0.0000000000
    3    2    8    2        0.0002276802
    3    2    9    2        0.0025860574
    3    2   10    2       -0.0000028152
    3    2   11    2        0.0000397712
    3    2   12    2       -0.0002007033
    3    2   13    2        0.0001282980
    3    2    3    3       -0.0000015846
    3    2    4    3       -0.0000045195
    3    2    5    3        0.0001855884
    3    2    6    3        0.0067149564
    3    2    7    3        0.0000000000
    3    2    8    3        0.0051250431
    3    2    9    3        0.0000022184
    3    2   10    3        0.0000044090
    3    2   11    3       -0.0015660512
    3    2   12    3        0.0000000424
    3    2   13    3        0.0037469570
    3    2    4    4       -0.0003665659
    3    2    5    4        0.0000000015
    3    2    6    4        0.0000000675
    3    2    7    4        0.0000010358
    3    2    8    4       -0.0000000600
    3    2    9    4       -0.0000018298
    3    2   10    4       -0.0000000082
    3    2   11    4        0.0000000264
    3    2   12    4       -0.0033670809
    3    2   13    4        0.0000000015
    3    2    5    5       -0.0003667418
    3    2    6    5       -0.0000027749
    3    2    7    5        0.0000000252
    3    2    8    5        0.0000024652
    3    2    9    5        0.0000751266
    3    2   10    5       -0.0003349155
    3    2   11    5       -0.0000006609
    3    2   12    5       -0.0253696303
    3    2   13    5        0.0000003208
    3    2    6    6       -0.0007036900
    3    2    7    6        0.0000000002
    3    2    8    6       -0.0000033099
    3    2    9    6       -0.0128681661
    3    2   10    6       -0.0000017826
    3    2   11    6        0.0002678297
    3    2   12    6        0.0000008051
    3    2   13    6        0.0002848217
    3    2    7    7       -0.0003651344
    3    2    8    7       -0.0000000001
    3    2    9    7       -0.0000000002
    3    2   10    7       -0.0000000082
    3    2   11    7        0.0000000060
    3    2   12    7        0.0000129801
    3    2   13    7       -0.0000000018
    3    2    8    8       -0.0005568015
    3    2    9    8       -0.0168993377
    3    2   10    8        0.0000038348
    3    2   11    8        0.0003276392
    3    2   12    8        0.0000285028
    3    2   13    8        0.0002198579
    3    2    9    9       -0.0000003327
    3    2   10    9        0.0000888826
    3    2   11    9        0.0067222447
    3    2   12    9       -0.0000001386
    3    2   13    9       -0.0061075373
    3    2   10   10       -0.0004798422
    3    2   11   10       -0.0000009675
    3    2   12   10       -0.0016008634
    3    2   13   10       -0.0000015597
    3    2   11   11       -0.0005601623
    3    2   12   11       -0.0000136104
    3    2   13   11        0.0001124961
    3    2   12   12       -0.0000186170
    3    2   13   12       -0.0000073871
    3    2   13   13       -0.0006571958
    4    2    4    2        0.0247156987
    4    2    5    2       -0.0000001056
    4    2    6    2        0.0000087258
    4    2    7    2       -0.0006123693
    4    2    8    2        0.0000077166
    4    2    9    2        0.0000000823
    4    2   10    2       -0.0000001078
    4    2   11    2       -0.0000006169
    4    2   12    2        0.0000204758
    4    2   13    2        0.0000042605
    4    2    3    3       -0.0000109984
    4    2    4    3       -0.0001448262
    4    2    5    3        0.0000000015
    4    2    6    3       -0.0000000146
    4    2    7    3        0.0000030274
    4    2    8    3       -0.0000000586
    4    2    9    3       -0.0000119932
    4    2   10    3       -0.0000000046
    4    2   11    3        0.0000000224
    4    2   12    3       -0.0033408567
    4    2   13    3       -0.0000000229
    4    2    4    4        0.0000110745
    4    2    5    4       -0.0002543539
    4    2    6    4       -0.0028046742
    4    2    7    4        0.0002510380
    4    2    8    4        0.0039480988
    4    2    9    4       -0.0000255820
    4    2   10    4       -0.0002923733
    4    2   11    4        0.0004841276
    4    2   12    4       -0.0000010012
    4    2   13    4        0.0029791741
    4    2    5    5       -0.0000236288
    4    2    6    5        0.0000000842
    4    2    7    5       -0.0051543150
    4    2    8    5        0.0000000868
    4    2    9    5        0.0000000004
    4    2   10    5       -0.0000204054
    4    2   11    5        0.0000000730
    4    2   12    5       -0.0000002989
    4    2   13    5        0.0000000268
    4    2    6    6       -0.0000154775
    4    2    7    6        0.0002128174
    4    2    8    6       -0.0000000331
    4    2    9    6       -0.0000000214
    4    2   10    6        0.0000001069
    4    2   11    6       -0.0000115214
    4    2   12    6       -0.0000009775
    4    2   13    6       -0.0000053918
    4    2    7    7       -0.0000214629
    4    2    8    7        0.0000046360
    4    2    9    7        0.0000023163
    4    2   10    7        0.0126457651
    4    2   11    7       -0.0004792504
    4    2   12    7       -0.0000522238
    4    2   13    7        0.0003466016
    4    2    8    8       -0.0000193752
    4    2    9    8       -0.0000001254
    4    2   10    8       -0.0000000777
    4    2   11    8       -0.0000046416
    4    2   12    8        0.0000017254
    4    2   13    8        0.0000093537
    4    2    9    9       -0.0000168681
    4    2   10    9       -0.0000000014
    4    2   11    9       -0.0000000143
    4    2   12    9       -0.0006110542
    4    2   13    9        0.0000000216
    4    2   10   10       -0.0000295280
    4    2   11   10       -0.0000000033
    4    2   12   10       -0.0000005649
    4    2   13   10       -0.0000000871
    4    2   11   11       -0.0000236134
    4    2   12   11       -0.0000000556
    4    2   13   11       -0.0000014108
    4    2   12   12       -0.0000961109
    4    2   13   12        0.0000021366
    4    2   13   13       -0.0000224579
    5    2    5    2        0.0247206733
    5    2    6    2       -0.0003582836
    5    2    7    2       -0.0000149131
    5    2    8    2       -0.0003168859
    5    2    9    2       -0.0000033474
    5    2   10    2        0.0004703970
    5    2   11    2        0.0000244005
    5    2   12    2        0.0001554491
    5    2   13    2       -0.0001763103
    5    2    3    3        0.0004516389
    5    2    4    3        0.0000000010
    5    2    5    3       -0.0001448886
    5    2    6    3        0.0000005981
    5    2    7    3        0.0000000737
    5    2    8    3        0.0000024106
    5    2    9    3        0.0004924912
    5    2   10    3       -0.0000352994
    5    2   11    3       -0.0000011067
    5    2   12    3       -0.0251718047
    5    2   13    3        0.0000003720
    5    2    4    4        0.0000551479
    5    2    5    4       -0.0000160938
    5    2    6    4        0.0000000844
    5    2    7    4       -0.0051503381
    5    2    8    4        0.0000000866
    5    2    9    4        0.0000000012
    5    2   10    4       -0.0000091079
    5    2   11    4        0.0000000497
    5    2   12    4       -0.0000000287
    5    2   13    4       -0.0000000023
    5    2    5    5        0.0004605181
    5    2    6    5       -0.0028030259
    5    2    7    5       -0.0002511478
    5    2    8    5        0.0039421600
    5    2    9    5       -0.0000256153
    5    2   10    5        0.0003028066
    5    2   11    5        0.0004822623
    5    2   12    5        0.0000021223
    5    2   13    5        0.0029778042
    5    2    6    6        0.0006354761
    5    2    7    6        0.0000051810
    5    2    8    6        0.0000015421
    5    2    9    6        0.0000012882
    5    2   10    6        0.0058101319
    5    2   11    6        0.0004617080
    5    2   12    6        0.0000946336
    5    2   13    6        0.0001986118
    5    2    7    7        0.0008813610
    5    2    8    7        0.0000001108
    5    2    9    7        0.0000000792
    5    2   10    7        0.0006165022
    5    2   11    7       -0.0000123076
    5    2   12    7       -0.0000059189
    5    2   13    7        0.0000076382
    5    2    8    8        0.0007957194
    5    2    9    8        0.0000037943
    5    2   10    8       -0.0186643581
    5    2   11    8        0.0002287186
    5    2   12    8       -0.0000253107
    5    2   13    8       -0.0003302804
    5    2    9    9        0.0006926532
    5    2   10    9       -0.0000748862
    5    2   11    9        0.0000004593
    5    2   12    9       -0.0046090962
    5    2   13    9       -0.0000011964
    5    2   10   10        0.0004649951
    5    2   11   10       -0.0030769144
    5    2   12   10        0.0000026184
    5    2   13   10       -0.0053012539
    5    2   11   11        0.0009824100
    5    2   12   11        0.0000090499
    5    2   13   11        0.0000765866
    5    2   12   12        0.0004764415
    5    2   13   12        0.0000053294
    5    2   13   13        0.0009528199
    6    2    6    2        0.0131410027
    6    2    7    2       -0.0000000000
    6    2    8    2        0.0000526272
    6    2    9    2       -0.0000085826
    6    2   10    2        0.0000270650
    6    2   11    2       -0.0005946414
    6    2   12    2        0.0000021184
    6    2   13    2        0.0000089320
    6    2    3    3        0.0018414239
    6    2    4    3        0.0000000434
    6    2    5    3       -0.0000017840
    6    2    6    3       -0.0002538485
    6    2    7    3        0.0000000001
    6    2    8    3       -0.0000891395
    6    2    9    3       -0.0075241196
    6    2   10    3       -0.0000000871
    6    2   11    3        0.0000709839
    6    2   12    3        0.0003458833
    6    2   13    3       -0.0000415640
    6    2    4    4        0.0000598126
    6    2    5    4        0.0000001341
    6    2    6    4       -0.0000040430
    6    2    7    4        0.0001012776
    6    2    8    4        0.0000012194
    6    2    9    4        0.0000000164
    6    2   10    4        0.0000000573
    6    2   11    4       -0.0000008988
    6    2   12    4        0.0000628278
    6    2   13    4        0.0000002173
    6    2    5    5        0.0000584805
    6    2    6    5        0.0001659319
    6    2    7    5        0.0000024662
    6    2    8    5       -0.0000499626
    6    2    9    5       -0.0000004589
    6    2   10    5        0.0030597512
    6    2   11    5        0.0000309123
    6    2   12    5        0.0005288809
    6    2   13    5       -0.0000210297
    6    2    6    6        0.0013447762
    6    2    7    6        0.0000000000
    6    2    8    6        0.0048119934
    6    2    9    6        0.0002792791
    6    2   10    6       -0.0000886481
    6    2   11    6       -0.0103784840
    6    2   12    6        0.0000000531
    6    2   13    6       -0.0043395529
    6    2    7    7       -0.0006394588
    6    2    8    7        0.0000000000
    6    2    9    7       -0.0000000004
    6    2   10    7       -0.0000049610
    6    2   11    7        0.0000000101
    6    2   12    7        0.0000002289
    6    2   13    7        0.0000000130
    6    2    8    8        0.0000737164
    6    2    9    8        0.0003645692
    6    2   10    8        0.0002841685
    6    2   11    8       -0.0077362050
    6    2   12    8       -0.0000002152
    6    2   13    8        0.0002805787
    6    2    9    9        0.0010840685
    6    2   10    9       -0.0000008079
    6    2   11    9       -0.0002240804
    6    2   12    9        0.0001429732
    6    2   13    9        0.0000992688
    6    2   10   10       -0.0004212527
    6    2   11   10        0.0000884032
    6    2   12   10        0.0000861100
    6    2   13   10        0.0000589615
    6    2   11   11        0.0013177704
    6    2   12   11       -0.0000000092
    6    2   13   11       -0.0074549807
    6    2   12   12        0.0004950453
    6    2   13   12       -0.0000001647
    6    2   13   13        0.0000677128
    7    2    7    2        0.0130576333
    7    2    8    2       -0.0000000000
    7    2    9    2        0.0000000001
    7    2   10    2        0.0000014526
    7    2   11    2       -0.0000000030
    7    2   12    2       -0.0000005741
    7    2   13    2       -0.0000000037
    7    2    3    3        0.0000000000
    7    2    4    3        0.0000033167
    7    2    5    3        0.0000000808
    7    2    6    3        0.0000000001
    7    2    7    3       -0.0000759818
    7    2    8    3       -0.0000000000
    7    2    9    3       -0.0000000001
    7    2   10    3        0.0000000069
    7    2   11    3        0.0000000034
    7    2   12    3        0.0000949346
    7    2   13    3       -0.0000000006
    7    2    4    4        0.0000313366
    7    2    5    4       -0.0006438616
    7    2    6    4        0.0000985293
    7    2    7    4       -0.0000068854
    7    2    8    4       -0.0000846572
    7    2    9    4        0.0000008562
    7    2   10    4        0.0068165606
    7    2   11    4       -0.0000642147
    7    2   12    4       -0.0000148905
    7    2   13    4       -0.0000358337
    7    2    5    5       -0.0000314191
    7    2    6    5        0.0000023967
    7    2    7    5        0.0002827812
    7    2    8    5       -0.0000020618
    7    2    9    5        0.0000000331
    7    2   10    5        0.0003322769
    7    2   11    5       -0.0000019072
    7    2   12    5       -0.0000007231
    7    2   13    5       -0.0000013041
    7    2    6    6        0.0000000001
    7    2    7    6       -0.0008691362
    7    2    8    6       -0.0000000001
    7    2    9    6       -0.0000000003
    7    2   10    6       -0.0000040912
    7    2   11    6        0.0000000081
    7    2   12    6        0.0000003890
    7    2   13    6        0.0000000148
    7    2    7    7        0.0000000000
    7    2    8    7        0.0045420052
    7    2    9    7       -0.0000187730
    7    2   10    7       -0.0003449569
    7    2   11    7        0.0101415937
    7    2   12    7        0.0000021848
    7    2   13    7       -0.0043973361
    7    2    8    8       -0.0000000000
    7    2    9    8        0.0000000009
    7    2   10    8        0.0000117815
    7    2   11    8       -0.0000000241
    7    2   12    8       -0.0000003187
    7    2   13    8       -0.0000000337
    7    2    9    9       -0.0000000000
    7    2   10    9        0.0000000355
    7    2   11    9        0.0000000009
    7    2   12    9        0.0000242639
    7    2   13    9       -0.0000000001
    7    2   10   10       -0.0000468703
    7    2   11   10        0.0000034823
    7    2   12   10        0.0000074644
    7    2   13   10        0.0000024040
    7    2   11   11       -0.0000000143
    7    2   12   11       -0.0000000934
    7    2   13   11       -0.0000000133
    7    2   12   12       -0.0001271449
    7    2   13   12       -0.0000002846
    7    2   13   13       -0.0000000134
    8    2    8    2        0.0115581587
    8    2    9    2        0.0001066751
    8    2   10    2       -0.0001200444
    8    2   11    2       -0.0000444693
    8    2   12    2       -0.0000057363
    8    2   13    2        0.0017928332
    8    2    3    3        0.0154860396
    8    2    4    3       -0.0000001270
    8    2    5    3        0.0000052138
    8    2    6    3        0.0000453562
    8    2    7    3       -0.0000000000
    8    2    8    3       -0.0000573802
    8    2    9    3       -0.0112968218
    8    2   10    3        0.0000014464
    8    2   11    3        0.0000252695
    8    2   12    3        0.0002991746
    8    2   13    3        0.0000193576
[...]
   10    7   10   10       -0.0000020640
   10    7   11   10       -0.0001199714
   10    7   12   10       -0.0000001567
   10    7   13   10       -0.0002274175
   10    7   11   11        0.0000126001
   10    7   12   11        0.0000012414
   10    7   13   11        0.0000012227
   10    7   12   12       -0.0000353257
   10    7   13   12        0.0000016350
   10    7   13   13        0.0000112717
   11    7   11    7        0.0091649749
   11    7   12    7        0.0000024812
   11    7   13    7       -0.0034582217
   11    7    8    8       -0.0000000190
   11    7    9    8       -0.0000000028
   11    7   10    8        0.0000098457
   11    7   11    8       -0.0000000260
   11    7   12    8       -0.0000002641
   11    7   13    8       -0.0000000193
   11    7    9    9       -0.0000000162
   11    7   10    9        0.0000000391
   11    7   11    9        0.0000000023
   11    7   12    9        0.0000131372
   11    7   13    9       -0.0000000014
   11    7   10   10       -0.0000559228
   11    7   11   10        0.0000031994
   11    7   12   10        0.0000053266
   11    7   13   10        0.0000025172
   11    7   11   11       -0.0000000381
   11    7   12   11       -0.0000001276
   11    7   13   11       -0.0000000140
   11    7   12   12       -0.0000931556
   11    7   13   12       -0.0000002392
   11    7   13   13       -0.0000000354
   12    7   12    7        0.0050897142
   12    7   13    7       -0.0000025086
   12    7    8    8       -0.0000006169
   12    7    9    8       -0.0000053467
   12    7   10    8        0.0000009578
   12    7   11    8       -0.0000000625
   12    7   12    8       -0.0006022626
   12    7   13    8       -0.0000001086
   12    7    9    9       -0.0000002942
   12    7   10    9        0.0000635317
   12    7   11    9        0.0000033109
   12    7   12    9        0.0000003731
   12    7   13    9       -0.0000025249
   12    7   10   10       -0.0000002980
   12    7   11   10        0.0000014828
   12    7   12   10        0.0000036280
   12    7   13   10        0.0000001618
   12    7   11   11       -0.0000004653
   12    7   12   11       -0.0001082076
   12    7   13   11        0.0000000403
   12    7   12   12       -0.0000001716
   12    7   13   12       -0.0001746752
   12    7   13   13       -0.0000007231
   13    7   13    7        0.0051881415
   13    7    8    8       -0.0000000233
   13    7    9    8        0.0000000006
   13    7   10    8       -0.0000051711
   13    7   11    8        0.0000000030
   13    7   12    8        0.0000000926
   13    7   13    8        0.0000000263
   13    7    9    9       -0.0000000200
   13    7   10    9       -0.0000000319
   13    7   11    9       -0.0000000009
   13    7   12    9       -0.0000114337
   13    7   13    9        0.0000000005
   13    7   10   10       -0.0001421072
   13    7   11   10       -0.0000013293
   13    7   12   10       -0.0000072381
   13    7   13   10       -0.0000007801
   13    7   11   11       -0.0000000251
   13    7   12   11       -0.0000000349
   13    7   13   11        0.0000000044
   13    7   12   12       -0.0000891149
   13    7   13   12        0.0000001011
   13    7   13   13       -0.0000000190
    8    8    8    8        0.1180738797
    8    8    9    8        0.0004871784
    8    8   10    8       -0.0007270534
    8    8   11    8        0.0001649777
    8    8   12    8       -0.0000042268
    8    8   13    8        0.0057392328
    8    8    9    9        0.1229688811
    8    8   10    9       -0.0000067787
    8    8   11    9       -0.0001510981
    8    8   12    9       -0.0003186848
    8    8   13    9       -0.0000067539
    8    8   10   10        0.1219527646
    8    8   11   10       -0.0001120525
    8    8   12   10        0.0001779736
    8    8   13   10        0.0000397659
    8    8   11   11        0.1131613683
    8    8   12   11        0.0000010016
    8    8   13   11        0.0000588259
    8    8   12   12        0.1198613397
    8    8   13   12        0.0000016750
    8    8   13   13        0.1141757685
    9    8    9    8        0.0157998059
    9    8   10    8       -0.0000064426
    9    8   11    8       -0.0002562605
    9    8   12    8       -0.0000965865
    9    8   13    8       -0.0002340311
    9    8    9    9       -0.0000000610
    9    8   10    9       -0.0001435635
    9    8   11    9       -0.0053913766
    9    8   12    9        0.0000001877
    9    8   13    9        0.0043058666
    9    8   10   10        0.0003780706
    9    8   11   10        0.0000015600
    9    8   12   10        0.0014686695
    9    8   13   10        0.0000032855
    9    8   11   11        0.0004295455
    9    8   12   11       -0.0000192516
    9    8   13   11       -0.0000672671
    9    8   12   12        0.0000144921
    9    8   13   12        0.0000323092
    9    8   13   13        0.0005277710
   10    8   10    8        0.0183366100
   10    8   11    8       -0.0001954702
   10    8   12    8        0.0000746038
   10    8   13    8        0.0003558070
   10    8    9    9       -0.0005667324
   10    8   10    9        0.0001125567
   10    8   11    9       -0.0000013150
   10    8   12    9        0.0032477026
   10    8   13    9        0.0000028653
   10    8   10   10       -0.0004505028
   10    8   11   10        0.0030158942
   10    8   12   10       -0.0000051751
   10    8   13   10        0.0043963723
   10    8   11   11       -0.0007461370
   10    8   12   11       -0.0000192073
   10    8   13   11       -0.0000470901
   10    8   12   12       -0.0004370185
   10    8   13   12       -0.0000242522
   10    8   13   13       -0.0008009361
   11    8   11    8        0.0065516990
   11    8   12    8        0.0000005388
   11    8   13    8       -0.0000270840
   11    8    9    9       -0.0021483363
   11    8   10    9        0.0000013478
   11    8   11    9        0.0001559147
   11    8   12    9       -0.0001000059
   11    8   13    9       -0.0000622960
   11    8   10   10        0.0013538879
   11    8   11   10       -0.0000674618
   11    8   12   10       -0.0000590763
   11    8   13   10       -0.0000368912
   11    8   11   11       -0.0025494176
   11    8   12   11       -0.0000001620
   11    8   13   11        0.0041735154
   11    8   12   12        0.0000073540
   11    8   13   12        0.0000000302
   11    8   13   13        0.0000653838
   12    8   12    8        0.0040049436
   12    8   13    8        0.0000037742
   12    8    9    9       -0.0000000397
   12    8   10    9        0.0001169287
   12    8   11    9       -0.0000503470
   12    8   12    9        0.0000030901
   12    8   13    9        0.0000455135
   12    8   10   10       -0.0000034733
   12    8   11   10       -0.0000227453
   12    8   12   10       -0.0000669580
   12    8   13   10       -0.0000329033
   12    8   11   11       -0.0000004333
   12    8   12   11        0.0000798703
   12    8   13   11        0.0000000162
   12    8   12   12        0.0000000809
   12    8   13   12        0.0009461050
   12    8   13   13       -0.0000045039
   13    8   13    8        0.0133807520
   13    8    9    9        0.0163361913
   13    8   10    9        0.0000052854
   13    8   11    9        0.0000268546
   13    8   12    9        0.0001612810
   13    8   13    9        0.0000519077
   13    8   10   10        0.0148523995
   13    8   11   10        0.0000217655
   13    8   12   10       -0.0000940855
   13    8   13   10       -0.0000876862
   13    8   11   11        0.0127033526
   13    8   12   11       -0.0000001605
   13    8   13   11        0.0000399181
   13    8   12   12        0.0139639581
   13    8   13   12       -0.0000018514
   13    8   13   13        0.0079217107
    9    9    9    9        0.1484696291
    9    9   10    9        0.0000000274
    9    9   11    9        0.0000005372
    9    9   12    9       -0.0003110898
    9    9   13    9       -0.0000022946
    9    9   10   10        0.1319487340
    9    9   11   10       -0.0001154584
    9    9   12   10       -0.0000020154
    9    9   13   10       -0.0000190580
    9    9   11   11        0.1256778052
    9    9   12   11        0.0000004758
    9    9   13   11       -0.0007403214
    9    9   12   12        0.1329312936
    9    9   13   12        0.0000000674
    9    9   13   13        0.1216017133
   10    9   10    9        0.0051671143
   10    9   11    9       -0.0000572928
   10    9   12    9       -0.0000050541
   10    9   13    9        0.0000465348
   10    9   10   10       -0.0000055343
   10    9   11   10       -0.0000322723
   10    9   12   10       -0.0001151329
   10    9   13   10       -0.0000398471
   10    9   11   11       -0.0000013294
   10    9   12   11        0.0002368438
   10    9   13   11        0.0000010171
   10    9   12   12        0.0000001691
   10    9   13   12       -0.0018645683
   10    9   13   13       -0.0000081132
   11    9   11    9        0.0088699408
   11    9   12    9        0.0000001239
   11    9   13    9       -0.0046170505
   11    9   10   10       -0.0001343427
   11    9   11   10        0.0000003132
   11    9   12   10        0.0016257293
   11    9   13   10        0.0000008033
   11    9   11   11       -0.0003143670
   11    9   12   11       -0.0000422218
   11    9   13   11        0.0000379977
   11    9   12   12       -0.0000180113
   11    9   13   12        0.0000082348
   11    9   13   13       -0.0001786921
   12    9   12    9        0.0075034630
   12    9   13    9       -0.0000000612
   12    9   10   10       -0.0002227608
   12    9   11   10       -0.0000114072
   12    9   12   10        0.0000000397
   12    9   13   10       -0.0024524040
   12    9   11   11       -0.0003452071
   12    9   12   11       -0.0000082563
   12    9   13   11       -0.0000839528
   12    9   12   12       -0.0003234215
   12    9   13   12       -0.0000007275
   12    9   13   13       -0.0003534559
   13    9   13    9        0.0064059592
   13    9   10   10        0.0000235559
   13    9   11   10       -0.0000006083
   13    9   12   10       -0.0029765791
   13    9   13   10       -0.0000017962
   13    9   11   11        0.0001445803
   13    9   12   11        0.0000046269
   13    9   13   11       -0.0000242756
   13    9   12   12        0.0000071536
   13    9   13   12       -0.0000276186
   13    9   13   13        0.0000216448
   10   10   10   10        0.1397779499
   10   10   11   10       -0.0000312423
   10   10   12   10        0.0002050789
   10   10   13   10        0.0000463612
   10   10   11   11        0.1185103327
   10   10   12   11        0.0000009571
   10   10   13   11        0.0005346103
   10   10   12   12        0.1353698743
   10   10   13   12        0.0000009069
   10   10   13   13        0.1199965583
   11   10   11   10        0.0026948885
   11   10   12   10        0.0000016845
   11   10   13   10        0.0022869704
   11   10   11   11       -0.0002068331
   11   10   12   11        0.0000064653
   11   10   13   11       -0.0000192230
   11   10   12   12       -0.0000329674
   11   10   13   12        0.0000038554
   11   10   13   13       -0.0001320141
   12   10   12   10        0.0066500901
   12   10   13   10        0.0000024560
   12   10   11   11        0.0000644837
   12   10   12   11        0.0000050624
   12   10   13   11       -0.0000228968
   12   10   12   12        0.0000078508
   12   10   13   12        0.0000131072
   12   10   13   13        0.0001846599
   13   10   13   10        0.0066004496
   13   10   11   11       -0.0001283636
   13   10   12   11        0.0000014366
   13   10   13   11       -0.0000211532
   13   10   12   12        0.0000134173
   13   10   13   12        0.0000198486
   13   10   13   13        0.0000134068
   11   11   11   11        0.1275795886
   11   11   12   11        0.0000012074
   11   11   13   11        0.0012137374
   11   11   12   12        0.1222544728
   11   11   13   12       -0.0000000048
   11   11   13   13        0.1141233231
   12   11   12   11        0.0016517830
   12   11   13   11       -0.0000003165
   12   11   12   12        0.0000004866
   12   11   13   12       -0.0002363925
   12   11   13   13        0.0000016452
   13   11   13   11        0.0071370790
   13   11   12   12       -0.0003084141
   13   11   13   12        0.0000006085
   13   11   13   13        0.0001245924
   12   12   12   12        0.1515349860
   12   12   13   12        0.0000002954
   12   12   13   13        0.1181211326
   13   12   13   12        0.0018622095
   13   12   13   13        0.0000014616
   13   13   13   13        0.1161564613
 end_two_electron_integrals


 output epsi filename:./pspw_hf_H2.emovecs

 Total PSPW energy     :  -0.1137135966E+01


=== Spin Contamination ===

 <Sexact^2> =    0.0000000000000000     
 <S^2>      =    0.0000000000000000     



== Center of Charge ==

spin up     (    0.0000,    0.0000,    0.0000 )
spin down   (    0.0000,    0.0000,    0.0000 )
     total  (    0.0000,    0.0000,    0.0000 )
ionic       (    0.0000,    0.0000,    0.0000 )


== Molecular Dipole wrt Center of Mass ==

mu   =  (   -0.0000,   -0.0000,   -0.0000 ) au
|mu| =     0.0000 au,       0.0000 Debye

 output psi filename:./pspw_hf_H2.movecs

 Writing Crystallographic Information File:./H2.cif
   - cell not shifted (nwpw:cif_shift_cell .false.)


== Timing ==

cputime in seconds
  prologue    :   0.528550E+01
  main loop   :   0.242097E+03
  epilogue    :   0.101604E-01
  total       :   0.247392E+03
  cputime/step:   0.272019E+01       (      89 evalulations,      40 linesearches)


Time spent doing                        total          step       percent
  total time                 :   0.247393E+03  0.277969E+01       100.0 %
  i/o time                   :   0.122081E+00  0.137170E-02         0.0 %
  FFTs                       :   0.214851E+03  0.241405E+01        86.8 %
  dot products               :   0.293008E+00  0.329223E-02         0.1 %
  geodesic                   :   0.411329E-01  0.462168E-03         0.0 %
  ffm_dgemm                  :   0.448337E-02  0.503749E-04         0.0 %
  fmf_dgemm                  :   0.202402E-01  0.227418E-03         0.0 %
  mmm_dgemm                  :   0.894850E-03  0.100545E-04         0.0 %
  m_diagonalize              :   0.525057E-03  0.589952E-05         0.0 %
  local pseudopotentials     :   0.928218E-02  0.104294E-03         0.0 %
  non-local pseudopotentials :   0.601702E+00  0.676069E-02         0.2 %
  structure factors          :   0.288024E+00  0.323622E-02         0.1 %
  phase factors              :   0.558900E-05  0.627978E-07         0.0 %
  masking and packing        :   0.474896E+01  0.533591E-01         1.9 %
  queue fft                  :   0.802501E+00  0.901687E-02         0.3 %
  queue fft (serial)         :   0.476346E+00  0.535220E-02         0.2 %
  queue fft (message passing):   0.296910E+00  0.333607E-02         0.1 %
  HFX potential              :   0.158153E+03  0.177700E+01        63.9 %
  non-local psp FFM          :   0.328140E+00  0.368697E-02         0.1 %
  non-local psp FMF          :   0.720428E-01  0.809469E-03         0.0 %
  non-local psp FFM A        :   0.862026E-01  0.968569E-03         0.0 %
  non-local psp FFM B        :   0.606312E-01  0.681250E-03         0.0 %

== HFX Counters ==
  HFX Evalulations         =    89
  Lin ACE HFX Evalulations =     0


     >>>  JOB COMPLETED     AT Thu May  1 19:43:44 2025  <<<

 Task  times  cpu:      247.2s     wall:      247.4s
 Summary of allocated global arrays
-----------------------------------
  No active global arrays


MA_summarize_allocated_blocks: starting scan ...
MA_summarize_allocated_blocks: scan completed: 0 heap blocks, 0 stack blocks
MA usage statistics:

	allocation statistics:
					      heap	     stack
					      ----	     -----
	current number of blocks	         0	         0
	maximum number of blocks	       313	        17
	current total bytes		         0	         0
	maximum total bytes		 369662368	  89294088
	maximum total K-bytes		    369663	     89295
	maximum total M-bytes		       370	        90


                                NWChem Input Module
                                -------------------




                                     CITATION
                                     --------
                Please cite the following reference when publishing
                           results obtained with NWChem:

          E. Apra, E. J. Bylaska, W. A. de Jong, N. Govind, K. Kowalski,
       T. P. Straatsma, M. Valiev, H. J. J. van Dam, Y. Alexeev, J. Anchell,
       V. Anisimov, F. W. Aquino, R. Atta-Fynn, J. Autschbach, N. P. Bauman,
     J. C. Becca, D. E. Bernholdt, K. Bhaskaran-Nair, S. Bogatko, P. Borowski,
         J. Boschen, J. Brabec, A. Bruner, E. Cauet, Y. Chen, G. N. Chuev,
      C. J. Cramer, J. Daily, M. J. O. Deegan, T. H. Dunning Jr., M. Dupuis,
   K. G. Dyall, G. I. Fann, S. A. Fischer, A. Fonari, H. Fruchtl, L. Gagliardi,
      J. Garza, N. Gawande, S. Ghosh, K. Glaesemann, A. W. Gotz, J. Hammond,
       V. Helms, E. D. Hermes, K. Hirao, S. Hirata, M. Jacquelin, L. Jensen,
   B. G. Johnson, H. Jonsson, R. A. Kendall, M. Klemm, R. Kobayashi, V. Konkov,
      S. Krishnamoorthy, M. Krishnan, Z. Lin, R. D. Lins, R. J. Littlefield,
      A. J. Logsdail, K. Lopata, W. Ma, A. V. Marenich, J. Martin del Campo,
   D. Mejia-Rodriguez, J. E. Moore, J. M. Mullin, T. Nakajima, D. R. Nascimento,
    J. A. Nichols, P. J. Nichols, J. Nieplocha, A. Otero-de-la-Roza, B. Palmer,
    A. Panyala, T. Pirojsirikul, B. Peng, R. Peverati, J. Pittner, L. Pollack,
   R. M. Richard, P. Sadayappan, G. C. Schatz, W. A. Shelton, D. W. Silverstein,
   D. M. A. Smith, T. A. Soares, D. Song, M. Swart, H. L. Taylor, G. S. Thomas,
            V. Tipparaju, D. G. Truhlar, K. Tsemekhman, T. Van Voorhis,
      A. Vazquez-Mayagoitia, P. Verma, O. Villa, A. Vishnu, K. D. Vogiatzis,
        D. Wang, J. H. Weare, M. J. Williamson, T. L. Windus, K. Wolinski,
        A. T. Wong, Q. Wu, C. Yang, Q. Yu, M. Zacharias, Z. Zhang, Y. Zhao,
                                and R. J. Harrison
                        "NWChem: Past, present, and future
                         J. Chem. Phys. 152, 184102 (2020)
                               doi:10.1063/5.0004997

                                      AUTHORS
                                      -------
  E. Apra, E. J. Bylaska, N. Govind, K. Kowalski, M. Valiev, D. Mejia-Rodriguez,
       A. Kunitsa, N. P. Bauman, A. Panyala, W. A. de Jong, T. P. Straatsma,
   H. J. J. van Dam, D. Wang, T. L. Windus, J. Hammond, J. Autschbach, A. Woods,
    K. Bhaskaran-Nair, J. Brabec, K. Lopata, S. A. Fischer, S. Krishnamoorthy,
     M. Jacquelin, W. Ma, M. Klemm, O. Villa, Y. Chen, V. Anisimov, F. Aquino,
     S. Hirata, M. T. Hackler, E. Hermes, L. Jensen, J. E. Moore, J. C. Becca,
      V. Konjkov, T. Risthaus, M. Malagoli, A. Marenich, A. Otero-de-la-Roza,
        J. Mullin, P. Nichols, R. Peverati, J. Pittner, Y. Zhao, P.-D. Fan,
        A. Fonari, M. J. Williamson, R. J. Harrison, J. R. Rehr, M. Dupuis,
     D. Silverstein, D. M. A. Smith, J. Nieplocha, V. Tipparaju, M. Krishnan,
     B. E. Van Kuiken, A. Vazquez-Mayagoitia, M. Swart, Q. Wu, T. Van Voorhis,
     A. A. Auer, M. Nooijen, L. D. Crosby, E. Brown, G. Cisneros, G. I. Fann,
   H. Fruchtl, J. Garza, K. Hirao, R. A. Kendall, J. A. Nichols, K. Tsemekhman,
    K. Wolinski, J. Anchell, D. E. Bernholdt, P. Borowski, T. Clark, D. Clerc,
   H. Dachsel, M. J. O. Deegan, K. Dyall, D. Elwood, E. Glendening, M. Gutowski,
   A. C. Hess, J. Jaffe, B. G. Johnson, J. Ju, R. Kobayashi, R. Kutteh, Z. Lin,
   R. Littlefield, X. Long, B. Meng, T. Nakajima, S. Niu, L. Pollack, M. Rosing,
   K. Glaesemann, G. Sandrone, M. Stave, H. Taylor, G. Thomas, J. H. van Lenthe,
                               A. T. Wong, Z. Zhang.

 Total times  cpu:      247.3s     wall:      247.4s
