 argument  1 = H2-0.6.nw



============================== echo of input deck ==============================
title "swnc: e theory=pspw4 xc=hf formula=H2 charge=0 mult=1"
#machinejob:expert

echo

start pspw_hf_H2

memory heap 1200 mb stack 1200 mb global 10 mb

charge 0

geometry
H    0.00000    0.00000   -0.30000
H    0.00000    0.00000    0.30000
end

nwpw
  ### pseudopotential block begin ###
  ### pseudopotential block end   ###
  simulation_cell
     SC 15.0000
     boundary_conditions aperiodic
  end

  cutoff 50.0
  mult 1
  xc hf
  lmbfgs
  tolerances 1.0e-9 1.0e-9

  virtual 12
end
set nwpw:cif_filename H2

#set nwpw:CI_maxit_orb 15
#set nwpw:CI_maxit_linesearch 15
set pspw:HFX_screening_radius 14.0


set nwpw:2qintegrals .true.
#set nwpw:3x3_virtual .true.

task pspw energy

================================================================================


                                         
                                         


             Northwest Computational Chemistry Package (NWChem) 7.2.2
             --------------------------------------------------------


                    Environmental Molecular Sciences Laboratory
                       Pacific Northwest National Laboratory
                                Richland, WA 99352

                              Copyright (c) 1994-2022
                       Pacific Northwest National Laboratory
                            Battelle Memorial Institute

             NWChem is an open-source computational chemistry package
                        distributed under the terms of the
                      Educational Community License (ECL) 2.0
             A copy of the license is included with this distribution
                              in the LICENSE.TXT file

                                  ACKNOWLEDGMENT
                                  --------------

            This software and its documentation were developed at the
            EMSL at Pacific Northwest National Laboratory, a multiprogram
            national laboratory, operated for the U.S. Department of Energy
            by Battelle under Contract Number DE-AC05-76RL01830. Support
            for this work was provided by the Department of Energy Office
            of Biological and Environmental Research, Office of Basic
            Energy Sciences, and the Office of Advanced Scientific Computing.


           Job information
           ---------------

    hostname        = LAPTOP-JJQSTSEL
    program         = nwchem
    date            = Thu May  1 19:48:58 2025

    compiled        = Fri_Jun_07_07:50:04_2024
    source          = /home/conda/feedstock_root/build_artifacts/nwchem_1717738148552/work
    nwchem branch   = 7.2.2
    nwchem revision = 64ba0f0
    ga revision     = 5.8.0
    use scalapack   = T
    input           = H2-0.6.nw
    prefix          = pspw_hf_H2.
    data base       = ./pspw_hf_H2.db
    status          = startup
    nproc           =        1
    time left       =     -1s



           Memory information
           ------------------

    heap     =  157286400 doubles =   1200.0 Mbytes
    stack    =  157286397 doubles =   1200.0 Mbytes
    global   =    1310720 doubles =     10.0 Mbytes (distinct from heap & stack)
    total    =  315883517 doubles =   2410.0 Mbytes
    verify   = yes
    hardfail = no 


           Directory information
           ---------------------

  0 permanent = .
  0 scratch   = .




                                NWChem Input Module
                                -------------------


               swnc: e theory=pspw4 xc=hf formula=H2 charge=0 mult=1
               -----------------------------------------------------

 Scaling coordinates for geometry "geometry" by  1.889725989
 (inverse scale =  0.529177249)

 ORDER OF PRIMARY AXIS IS BEING SET TO 4
 D4H symmetry detected

          ------
          auto-z
          ------
  no constraints, skipping    0.0000000000000000     
  no constraints, skipping    0.0000000000000000     


                             Geometry "geometry" -> ""
                             -------------------------

 Output coordinates in angstroms (scale by  1.889725989 to convert to a.u.)

  No.       Tag          Charge          X              Y              Z
 ---- ---------------- ---------- -------------- -------------- --------------
    1 H                    1.0000     0.00000000     0.00000000    -0.30000000
    2 H                    1.0000     0.00000000     0.00000000     0.30000000

      Atomic Mass 
      ----------- 

      H                  1.007825


 Effective nuclear repulsion energy (a.u.)       0.8819620817

            Nuclear Dipole moment (a.u.) 
            ----------------------------
        X                 Y               Z
 ---------------- ---------------- ----------------
     0.0000000000     0.0000000000     0.0000000000

      Symmetry information
      --------------------

 Group name             D4h       
 Group number             28
 Group order              16
 No. of unique centers     1

      Symmetry unique atoms

     1



                                Z-matrix (autoz)
                                -------- 

 Units are Angstrom for bonds and degrees for angles

      Type          Name      I     J     K     L     M      Value
      ----------- --------  ----- ----- ----- ----- ----- ----------
    1 Stretch                  1     2                       0.60000


            XYZ format geometry
            -------------------
     2
 geometry
 H                     0.00000000     0.00000000    -0.30000000
 H                     0.00000000     0.00000000     0.30000000

 ==============================================================================
                                internuclear distances
 ------------------------------------------------------------------------------
       center one      |      center two      | atomic units |  angstroms
 ------------------------------------------------------------------------------
    2 H                |   1 H                |     1.13384  |     0.60000
 ------------------------------------------------------------------------------
                         number of included internuclear distances:          1
 ==============================================================================



          ****************************************************
          *                                                  *
          *               NWPW PSPW Calculation              *
          *                                                  *
          * [ (Grassmann/Stiefel manifold implementation)  ] *
          *                                                  *
          *      [ NorthWest Chemistry implementation ]      *
          *                                                  *
          *            version #5.10   06/12/02              *
          *                                                  *
          *    This code was developed by Eric J. Bylaska,   *
          *    and was based upon algorithms and code        *
          *    developed by the group of Prof. John H. Weare *
          *                                                  *
          ****************************************************
     >>>  JOB STARTED       AT Thu May  1 19:48:58 2025  <<<
          ================ input data ========================

 input psi filename:./pspw_hf_H2.movecs

 number of processors used:         1
 processor grid           :   1 x   1
 parallel mapping         :2d-hilbert
 parallel mapping         :  balanced
 number of threads        :         1
 parallel io              :       off

 options:
      boundary conditions  = aperiodic   (version4)
      electron spin        = restricted
      exchange-correlation = Hartree-Fock
      - HFX relaxed
      - HFX restricted orbitals :    1
      - HFX free-space coulomb solver


 elements involved in the cluster:
      1: H   valence charge:  1.0000  lmax=  1
             comment    : Parameterized (Chem.Phys.Lett., vol 322, page 447) Hamman psp
             pseudpotential type            :   0
             highest angular component      :   1
             local potential used           :   1
             number of non-local projections:   1
             aperiodic cutoff radius        :  1.000
             cutoff =   0.800   0.800


 total charge:   0.000

 atomic composition:
     H   :    2

 number of electrons: spin up=     1 (   1 per task)  down=     1 (   1 per task) (Fourier space)
 number of orbitals : spin up=     1 (   1 per task)  down=     1 (   1 per task) (Fourier space)

 supercell:
      cell_name:  cell_default                                      
      lattice:    a1=<  15.000   0.000   0.000 >
                  a2=<   0.000  15.000   0.000 >
                  a3=<   0.000   0.000  15.000 >
      reciprocal: b1=<   0.419   0.000   0.000 >
                  b2=<   0.000   0.419   0.000 >
                  b3=<   0.000   0.000   0.419 >
      lattice:    a=      15.000 b=     15.000 c=      15.000
                  alpha=  90.000 beta=  90.000 gamma=  90.000
                  omega=      3375.0

      density cutoff=100.000  fft= 70x 70x 70(    80618 waves    80618 per task)
      wavefnc cutoff= 50.000  fft= 70x 70x 70(    28526 waves    28526 per task)

 technical parameters:
      time step=      5.80     fictitious mass=  400000.0
      tolerance=0.100E-08 (energy)   0.100E-08 (density)
      maximum iterations =      1000 (   10 inner    100 outer )





== Energy Calculation ==


          ============ Grassmann lmbfgs iteration ============
     >>>  ITERATION STARTED AT Thu May  1 19:49:05 2025  <<<
    iter.           Energy         DeltaE       DeltaRho 
    ------------------------------------------------------
      10   -0.1123590808E+01   -0.76279E-04    0.29576E-02
      20   -0.1123732584E+01   -0.13964E-05    0.20642E-05
      30   -0.1123735682E+01   -0.33267E-07    0.20916E-08
      40   -0.1123735751E+01   -0.79706E-09    0.70693E-11
  *** tolerance ok. iteration terminated
     >>>  ITERATION ENDED   AT Thu May  1 19:49:31 2025  <<<


==  Summary Of Results  ==

 number of electrons: spin up=    1.00000  down=    1.00000 (real space)

 total     energy    :  -0.1123735751E+01 (   -0.56187E+00/ion)
 total orbital energy:  -0.1293302389E+01 (   -0.12933E+01/electron)
 hartree   energy    :   0.1424790889E+01 (    0.14248E+01/electron)
 exc-corr  energy    :   0.0000000000E+00 (    0.00000E+00/electron)
 HF exchange energy  :  -0.7123954445E+00 (   -0.71240E+00/electron)
 ion-ion   energy    :   0.8819620817E+00 (    0.44098E+00/ion)

 kinetic (planewave) :   0.1236472175E+01 (    0.12365E+01/electron)
 V_local (planewave) :  -0.3545517571E+01 (   -0.35455E+01/electron)
 V_nl    (planewave) :  -0.4090478811E+00 (   -0.40905E+00/electron)
 V_Coul  (planewave) :   0.2849581778E+01 (    0.28496E+01/electron)
 V_xc.   (planewave) :   0.0000000000E+00 (    0.00000E+00/electron)
 K.S. HFX energy     :  -0.1424790889E+01 (   -0.14248E+01/electron)
 Virial Coefficient  :  -0.8936583426E+00

 orbital energies:
    -0.6466512E+00 ( -17.596eV)


== Virtual Orbital Calculation ==


 input epsi filename:./pspw_hf_H2.emovecs
     orbital   1 current e= 0.563E-02 (error=0.936E-09) iterations  44(  16 preconditioned, Ep,Sp= 20.0  200.0)
     orbital   2 current e= 0.840E-01 (error=0.918E-09) iterations  63(  25 preconditioned, Ep,Sp= 20.0  200.0)
     orbital   3 current e= 0.861E-01 (error=0.935E-09) iterations  40(   7 preconditioned, Ep,Sp= 20.0  200.0)
     orbital   4 current e= 0.861E-01 (error=0.807E-09) iterations  46(  10 preconditioned, Ep,Sp= 20.0  200.0)
     orbital   5 current e= 0.874E-01 (error=0.974E-09) iterations  23(   1 preconditioned, Ep,Sp= 20.0  200.0)
     orbital   6 current e= 0.878E-01 (error=0.977E-09) iterations  23(   1 preconditioned, Ep,Sp= 20.0  200.0)
     orbital   7 current e= 0.110E+00 (error=0.895E-09) iterations  51(  24 preconditioned, Ep,Sp= 20.0  200.0)
     orbital   8 current e= 0.164E+00 (error=0.883E-09) iterations  68(  41 preconditioned, Ep,Sp= 20.0  200.0)
     orbital   9 current e= 0.171E+00 (error=0.953E-09) iterations  91(  14 preconditioned, Ep,Sp= 20.0  200.0)
     orbital  10 current e= 0.175E+00 (error=0.829E-09) iterations  34(   2 preconditioned, Ep,Sp= 20.0  200.0)
     orbital  11 current e= 0.175E+00 (error=0.860E-09) iterations  38(   2 preconditioned, Ep,Sp= 20.0  200.0)
     orbital  12 current e= 0.219E+00 (error=0.954E-09) iterations  68(  36 preconditioned, Ep,Sp= 20.0  200.0)

 virtual orbital energies:
     0.2190531E+00 (   5.961eV)
     0.1749888E+00 (   4.762eV)
     0.1749694E+00 (   4.761eV)
     0.1706183E+00 (   4.643eV)
     0.1635265E+00 (   4.450eV)
     0.1096755E+00 (   2.984eV)
     0.8780921E-01 (   2.389eV)
     0.8740723E-01 (   2.378eV)
     0.8610347E-01 (   2.343eV)
     0.8610347E-01 (   2.343eV)
     0.8397110E-01 (   2.285eV)
     0.5628522E-02 (   0.153eV)


 == Generating One-Electron and Two-Electron Integrals ==

 begin_one_electron_integrals
    1    1        -1.3590466388
    2    1        -0.0323267857
    3    1         0.0000001547
    4    1         0.0000000038
    5    1         0.0000001411
    6    1         0.0015876510
    7    1        -0.0000000000
    8    1         0.0480837319
    9    1        -0.0000003258
   10    1        -0.0000004676
   11    1        -0.0010198941
   12    1         0.0000000028
   13    1        -0.0572274074
    2    2        -0.2747897872
    3    2         0.0000005236
    4    2        -0.0000000041
    5    2        -0.0000001817
    6    2         0.0014858076
    7    2        -0.0000000000
    8    2         0.0708652104
    9    2         0.0000000308
   10    2        -0.0000001334
   11    2        -0.0002913101
   12    2         0.0000000008
   13    2        -0.0420855909
    3    3        -0.2492140450
    4    3        -0.0000000002
    5    3         0.0000000007
    6    3         0.0000041621
    7    3        -0.0000000000
    8    3         0.0000000839
    9    3        -0.1096443816
   10    3         0.0000001071
   11    3         0.0000000676
   12    3        -0.0000000762
   13    3        -0.0000010765
    4    4        -0.2316570482
    5    4         0.0000000000
    6    4         0.0000000891
    7    4        -0.0000057040
    8    4        -0.0000000310
    9    4         0.0000001233
   10    4        -0.0000000091
   11    4        -0.0000049664
   12    4        -0.0000253299
   13    4         0.0000264904
    5    5        -0.2316415253
    6    5         0.0000042190
    7    5         0.0000001396
    8    5        -0.0000002199
    9    5         0.0000001029
   10    5         0.0937236770
   11    5         0.0000005320
   12    5        -0.0000056248
   13    5         0.0000000422
    6    6        -0.1910264246
    7    6        -0.0000000000
    8    6        -0.0006052487
    9    6         0.0000076852
   10    6        -0.0000086271
   11    6         0.0426071763
   12    6        -0.0000001141
   13    6         0.0011104142
    7    7        -0.1894021423
    8    7        -0.0000000000
    9    7         0.0000000000
   10    7        -0.0000002737
   11    7        -0.0000000004
   12    7         0.0000014074
   13    7         0.0000000092
    8    8        -0.1818376855
    9    8         0.0000004301
   10    8         0.0000006275
   11    8         0.0001384834
   12    8        -0.0000000004
   13    8         0.0881271960
    9    9        -0.2156599128
   10    9         0.0000000061
   11    9        -0.0000035847
   12    9        -0.0000000192
   13    9        -0.0000040354
   10   10        -0.1843875420
   11   10         0.0000037312
   12   10         0.0000055393
   13   10        -0.0000007636
   11   11        -0.1015110092
   12   11        -0.0000000874
   13   11         0.0000671039
   12   12        -0.1347137108
   13   12        -0.0000000002
   13   13        -0.0839055163
 end_one_electron_integrals

 begin_two_electron_integrals
    1    1    1    1        0.7123954445
    1    1    2    1        0.0323173710
    1    1    3    1       -0.0000001551
    1    1    4    1       -0.0000000038
    1    1    5    1       -0.0000001411
    1    1    6    1       -0.0015897201
    1    1    7    1        0.0000000000
    1    1    8    1       -0.0480929684
    1    1    9    1        0.0000003255
    1    1   10    1        0.0000004675
    1    1   11    1        0.0010218815
    1    1   12    1       -0.0000000028
    1    1   13    1        0.0572328825
    1    1    2    2        0.1413296477
    1    1    3    2       -0.0000003692
    1    1    4    2        0.0000000042
    1    1    5    2        0.0000001808
    1    1    6    2       -0.0008008741
    1    1    7    2        0.0000000000
    1    1    8    2       -0.0371434303
    1    1    9    2       -0.0000001559
    1    1   10    2       -0.0000000589
    1    1   11    2        0.0001850341
    1    1   12    2       -0.0000000005
    1    1   13    2        0.0231456979
    1    1    3    3        0.1682663209
    1    1    4    3        0.0000000001
    1    1    5    3       -0.0000000003
    1    1    6    3       -0.0000020343
    1    1    7    3        0.0000000000
    1    1    8    3        0.0000000198
    1    1    9    3        0.0576292133
    1    1   10    3       -0.0000000560
    1    1   11    3       -0.0000000954
    1    1   12    3        0.0000000492
    1    1   13    3        0.0000006374
    1    1    4    4        0.1597036126
    1    1    5    4       -0.0000000000
    1    1    6    4       -0.0000000444
    1    1    7    4        0.0000028221
    1    1    8    4        0.0000000148
    1    1    9    4       -0.0000000634
    1    1   10    4        0.0000000047
    1    1   11    4        0.0000025568
    1    1   12    4        0.0000130422
    1    1   13    4       -0.0000136407
    1    1    5    5        0.1596956608
    1    1    6    5       -0.0000021119
    1    1    7    5       -0.0000000691
    1    1    8    5        0.0000000669
    1    1    9    5       -0.0000000530
    1    1   10    5       -0.0482506205
    1    1   11    5       -0.0000002795
    1    1   12    5        0.0000028890
    1    1   13    5       -0.0000000660
    1    1    6    6        0.1392659418
    1    1    7    6        0.0000000000
    1    1    8    6        0.0003900046
    1    1    9    6       -0.0000038046
    1    1   10    6        0.0000043390
    1    1   11    6       -0.0213601886
    1    1   12    6        0.0000000572
    1    1   13    6       -0.0006631162
    1    1    7    7        0.1386433037
    1    1    8    7        0.0000000000
    1    1    9    7       -0.0000000000
    1    1   10    7        0.0000001365
    1    1   11    7        0.0000000002
    1    1   12    7       -0.0000007052
    1    1   13    7       -0.0000000046
    1    1    8    8        0.1484057539
    1    1    9    8       -0.0000001525
    1    1   10    8       -0.0000002620
    1    1   11    8       -0.0001291798
    1    1   12    8        0.0000000003
    1    1   13    8       -0.0473075538
    1    1    9    9        0.1943517727
    1    1   10    9       -0.0000000009
    1    1   11    9        0.0000017241
    1    1   12    9        0.0000000067
    1    1   13    9        0.0000021895
    1    1   10   10        0.1798731052
    1    1   11   10       -0.0000018634
    1    1   12   10       -0.0000029201
    1    1   13   10        0.0000004665
    1    1   11   11        0.1383087217
    1    1   12   11        0.0000000439
    1    1   13   11        0.0000393298
    1    1   12   12        0.1549766043
    1    1   13   12       -0.0000000001
    1    1   13   13        0.1554941633
    2    1    2    1        0.0022409867
    2    1    3    1       -0.0000002160
    2    1    4    1        0.0000000043
    2    1    5    1        0.0000001800
    2    1    6    1       -0.0001165351
    2    1    7    1        0.0000000000
    2    1    8    1       -0.0034375049
    2    1    9    1       -0.0000002811
    2    1   10    1       -0.0000002513
    2    1   11    1        0.0000787691
    2    1   12    1       -0.0000000003
    2    1   13    1        0.0042030438
    2    1    2    2        0.0003357710
    2    1    3    2        0.0000013256
    2    1    4    2       -0.0000000408
    2    1    5    2       -0.0000016749
    2    1    6    2        0.0000061453
    2    1    7    2       -0.0000000000
    2    1    8    2       -0.0005119627
    2    1    9    2        0.0000001707
    2    1   10    2        0.0000003341
    2    1   11    2       -0.0000034156
    2    1   12    2        0.0000000015
    2    1   13    2        0.0006111773
    2    1    3    3        0.0007334191
    2    1    4    3        0.0000000000
    2    1    5    3        0.0000000013
    2    1    6    3       -0.0000007850
    2    1    7    3        0.0000000000
    2    1    8    3       -0.0000003227
    2    1    9    3        0.0011159485
    2    1   10    3       -0.0000000008
    2    1   11    3        0.0000003036
    2    1   12    3       -0.0000016749
    2    1   13    3        0.0000001770
    2    1    4    4        0.0004977378
    2    1    5    4       -0.0000000000
    2    1    6    4       -0.0000000117
    2    1    7    4        0.0000008314
    2    1    8    4        0.0000000091
    2    1    9    4       -0.0000000010
    2    1   10    4        0.0000000001
    2    1   11    4        0.0000000447
    2    1   12    4        0.0000000312
    2    1   13    4       -0.0000002185
    2    1    5    5        0.0004976184
    2    1    6    5       -0.0000004844
    2    1    7    5       -0.0000000203
    2    1    8    5        0.0000003635
    2    1    9    5       -0.0000000013
    2    1   10    5       -0.0007574136
    2    1   11    5        0.0000001820
    2    1   12    5        0.0000014321
    2    1   13    5       -0.0000001604
    2    1    6    6        0.0001064823
    2    1    7    6        0.0000000000
    2    1    8    6        0.0000033731
    2    1    9    6       -0.0000009740
    2    1   10    6        0.0000006160
    2    1   11    6       -0.0001009948
    2    1   12    6       -0.0000000026
    2    1   13    6       -0.0000191156
    2    1    7    7        0.0001150400
    2    1    8    7        0.0000000000
    2    1    9    7       -0.0000000000
    2    1   10    7        0.0000000284
    2    1   11    7        0.0000000001
    2    1   12    7       -0.0000000041
    2    1   13    7       -0.0000000003
    2    1    8    8        0.0008018249
    2    1    9    8       -0.0000010460
    2    1   10    8       -0.0000013920
    2    1   11    8        0.0000078613
    2    1   12    8        0.0000000004
    2    1   13    8       -0.0009876237
    2    1    9    9        0.0018420087
    2    1   10    9       -0.0000000009
    2    1   11    9        0.0000007693
    2    1   12    9        0.0000003365
    2    1   13    9        0.0000003782
    2    1   10   10        0.0012465503
    2    1   11   10       -0.0000005208
    2    1   12   10        0.0000000668
    2    1   13   10        0.0000003712
    2    1   11   11        0.0001343167
    2    1   12   11       -0.0000000008
    2    1   13   11       -0.0000010938
    2    1   12   12        0.0002580592
    2    1   13   12       -0.0000000001
    2    1   13   13        0.0012481348
    3    1    3    1        0.0033474969
    3    1    4    1        0.0000000000
    3    1    5    1       -0.0000000000
    3    1    6    1        0.0000000921
    3    1    7    1        0.0000000000
    3    1    8    1        0.0000001239
    3    1    9    1        0.0056200852
    3    1   10    1       -0.0000000049
    3    1   11    1       -0.0000001233
    3    1   12    1        0.0000000221
    3    1   13    1        0.0000001943
    3    1    2    2        0.0000488301
    3    1    3    2       -0.0035400882
    3    1    4    2       -0.0000000000
    3    1    5    2       -0.0000000015
    3    1    6    2       -0.0000600578
    3    1    7    2       -0.0000000000
    3    1    8    2        0.0000161418
    3    1    9    2       -0.0014207830
    3    1   10    2        0.0000000066
    3    1   11    2        0.0000142272
    3    1   12    2       -0.0000004550
    3    1   13    2       -0.0000176280
    3    1    3    3        0.0000003279
    3    1    4    3       -0.0000000056
    3    1    5    3       -0.0000002248
    3    1    6    3        0.0017986831
    3    1    7    3       -0.0000000000
    3    1    8    3        0.0022692812
    3    1    9    3        0.0000002875
    3    1   10    3        0.0000000232
    3    1   11    3       -0.0010645151
    3    1   12    3        0.0000000029
    3    1   13    3       -0.0019347774
    3    1    4    4        0.0000409175
    3    1    5    4        0.0000000002
    3    1    6    4        0.0000000000
    3    1    7    4       -0.0000000014
    3    1    8    4        0.0000000001
    3    1    9    4        0.0000000096
    3    1   10    4       -0.0000000007
    3    1   11    4       -0.0000000006
    3    1   12    4        0.0005157409
    3    1   13    4        0.0000000014
    3    1    5    5        0.0000409338
    3    1    6    5        0.0000000001
    3    1    7    5        0.0000000000
    3    1    8    5        0.0000000049
    3    1    9    5        0.0000003933
    3    1   10    5        0.0000338072
    3    1   11    5       -0.0000000202
    3    1   12    5       -0.0038857957
    3    1   13    5        0.0000000037
    3    1    6    6        0.0000909590
    3    1    7    6       -0.0000000000
    3    1    8    6        0.0000078635
    3    1    9    6        0.0026962049
    3    1   10    6       -0.0000000114
    3    1   11    6       -0.0000460726
    3    1   12    6        0.0000004350
    3    1   13    6        0.0000334515
    3    1    7    7        0.0000377923
    3    1    8    7        0.0000000000
    3    1    9    7        0.0000000000
    3    1   10    7       -0.0000000000
    3    1   11    7       -0.0000000007
    3    1   12    7        0.0000000459
    3    1   13    7       -0.0000000008
    3    1    8    8        0.0000524599
    3    1    9    8        0.0034428192
    3    1   10    8        0.0000000007
    3    1   11    8       -0.0000399692
    3    1   12    8        0.0000000129
    3    1   13    8        0.0000177815
    3    1    9    9        0.0000001184
    3    1   10    9        0.0000000415
    3    1   11    9       -0.0023642553
    3    1   12    9        0.0000000070
    3    1   13    9       -0.0027110249
    3    1   10   10        0.0000462400
    3    1   11   10        0.0000000035
    3    1   12   10        0.0013088613
    3    1   13   10        0.0000000070
    3    1   11   11        0.0000763321
    3    1   12   11        0.0000000966
    3    1   13   11        0.0000085546
    3    1   12   12        0.0000044993
    3    1   13   12       -0.0000001339
    3    1   13   13        0.0000621943
    4    1    4    1        0.0016467059
    4    1    5    1       -0.0000000000
    4    1    6    1        0.0000000003
    4    1    7    1       -0.0000000604
    4    1    8    1       -0.0000000013
    4    1    9    1       -0.0000000036
    4    1   10    1        0.0000000003
    4    1   11    1        0.0000001470
    4    1   12    1        0.0000007531
    4    1   13    1       -0.0000007878
    4    1    2    2       -0.0000013141
    4    1    3    2        0.0000000001
    4    1    4    2       -0.0027937838
    4    1    5    2       -0.0000000001
    4    1    6    2       -0.0000008209
    4    1    7    2        0.0000579411
    4    1    8    2       -0.0000004211
    4    1    9    2        0.0000000016
    4    1   10    2       -0.0000000003
    4    1   11    2        0.0000001191
    4    1   12    2       -0.0000003991
    4    1   13    2        0.0000008370
    4    1    3    3       -0.0000010204
    4    1    4    3        0.0000002925
    4    1    5    3        0.0000000001
    4    1    6    3        0.0000000000
    4    1    7    3       -0.0000000039
    4    1    8    3        0.0000000001
    4    1    9    3        0.0000009760
    4    1   10    3       -0.0000000005
    4    1   11    3        0.0000000011
    4    1   12    3        0.0004159224
    4    1   13    3       -0.0000000075
    4    1    4    4        0.0000005388
    4    1    5    4        0.0000222689
    4    1    6    4       -0.0006052580
    4    1    7    4        0.0000538728
    4    1    8    4        0.0017008726
    4    1    9    4        0.0000000111
    4    1   10    4        0.0000212975
    4    1   11    4        0.0003489325
    4    1   12    4        0.0000000327
    4    1   13    4       -0.0014094538
    4    1    5    5       -0.0000016494
    4    1    6    5       -0.0000000001
    4    1    7    5        0.0011050745
    4    1    8    5       -0.0000000002
    4    1    9    5        0.0000000001
    4    1   10    5       -0.0000015377
    4    1   11    5       -0.0000000016
    4    1   12    5       -0.0000000195
    4    1   13    5        0.0000000053
    4    1    6    6       -0.0000013826
    4    1    7    6        0.0000257932
    4    1    8    6        0.0000001079
    4    1    9    6        0.0000000012
    4    1   10    6       -0.0000000002
    4    1   11    6       -0.0000008378
    4    1   12    6       -0.0000009003
    4    1   13    6        0.0000007679
    4    1    7    7       -0.0000021103
    4    1    8    7       -0.0000073902
    4    1    9    7        0.0000000039
    4    1   10    7       -0.0018650620
    4    1   11    7       -0.0000479204
    4    1   12    7       -0.0000020097
    4    1   13    7       -0.0000319127
    4    1    8    8       -0.0000014323
    4    1    9    8       -0.0000000039
    4    1   10    8        0.0000000001
    4    1   11    8       -0.0000003843
    4    1   12    8        0.0000007897
    4    1   13    8       -0.0000013170
    4    1    9    9       -0.0000012948
    4    1   10    9       -0.0000000001
    4    1   11    9       -0.0000000009
    4    1   12    9        0.0001108971
    4    1   13    9        0.0000000007
    4    1   10   10       -0.0000020518
    4    1   11   10       -0.0000000015
    4    1   12   10        0.0000000469
    4    1   13   10        0.0000000075
    4    1   11   11       -0.0000019767
    4    1   12   11        0.0000001966
    4    1   13   11       -0.0000002460
    4    1   12   12       -0.0000079149
    4    1   13   12       -0.0000005793
    4    1   13   13       -0.0000005088
    5    1    5    1        0.0016463227
    5    1    6    1       -0.0000000048
    5    1    7    1        0.0000000014
    5    1    8    1       -0.0000000864
    5    1    9    1       -0.0000000030
    5    1   10    1       -0.0027785689
    5    1   11    1       -0.0000000271
    5    1   12    1        0.0000001526
    5    1   13    1       -0.0000000910
    5    1    2    2       -0.0000539293
    5    1    3    2        0.0000000025
    5    1    4    2       -0.0000000001
    5    1    5    2       -0.0027934207
    5    1    6    2       -0.0000336773
    5    1    7    2       -0.0000014115
    5    1    8    2       -0.0000172690
    5    1    9    2       -0.0000000044
    5    1   10    2        0.0013026608
    5    1   11    2        0.0000077263
    5    1   12    2        0.0000002975
    5    1   13    2        0.0000192479
    5    1    3    3       -0.0000418751
    5    1    4    3        0.0000000000
    5    1    5    3        0.0000002914
    5    1    6    3        0.0000000000
    5    1    7    3        0.0000000001
    5    1    8    3        0.0000000045
    5    1    9    3        0.0000400550
    5    1   10    3        0.0000001208
    5    1   11    3       -0.0000000122
    5    1   12    3       -0.0031331138
    5    1   13    3       -0.0000000013
    5    1    4    4       -0.0000224852
    5    1    5    4       -0.0000005592
    5    1    6    4       -0.0000000001
    5    1    7    4        0.0011048302
    5    1    8    4       -0.0000000001
    5    1    9    4       -0.0000000000
    5    1   10    4       -0.0000005241
    5    1   11    4        0.0000000007
    5    1   12    4       -0.0000000241
    5    1   13    4       -0.0000000052
    5    1    5    5       -0.0000231130
    5    1    6    5       -0.0006047896
    5    1    7    5       -0.0000538755
    5    1    8    5        0.0017004289
    5    1    9    5        0.0000000106
    5    1   10    5       -0.0000207438
    5    1   11    5        0.0003488498
    5    1   12    5       -0.0000000346
    5    1   13    5       -0.0014090940
    5    1    6    6       -0.0000567284
    5    1    7    6       -0.0000006281
    5    1    8    6        0.0000044181
    5    1    9    6       -0.0000000024
    5    1   10    6        0.0009572192
    5    1   11    6       -0.0000323769
    5    1   12    6       -0.0000035411
    5    1   13    6        0.0000185714
    5    1    7    7       -0.0000866072
    5    1    8    7        0.0000001805
    5    1    9    7       -0.0000000025
    5    1   10    7        0.0000909260
    5    1   11    7        0.0000012676
    5    1   12    7        0.0000002611
    5    1   13    7        0.0000002753
    5    1    8    8       -0.0000588424
    5    1    9    8       -0.0000000089
    5    1   10    8       -0.0028731011
    5    1   11    8       -0.0000220414
    5    1   12    8        0.0000002249
    5    1   13    8       -0.0000206648
    5    1    9    9       -0.0000531381
    5    1   10    9       -0.0000001006
    5    1   11    9       -0.0000000026
    5    1   12    9       -0.0008353800
    5    1   13    9        0.0000000010
    5    1   10   10       -0.0000283139
    5    1   11   10       -0.0008844324
    5    1   12   10       -0.0000000250
    5    1   13   10        0.0021288093
    5    1   11   11       -0.0000849935
    5    1   12   11       -0.0000001923
    5    1   13   11        0.0000046844
    5    1   12   12       -0.0000240844
    5    1   13   12       -0.0000001505
    5    1   13   13       -0.0000703028
    6    1    6    1        0.0000982321
    6    1    7    1       -0.0000000000
    6    1    8    1        0.0001782452
    6    1    9    1        0.0000000743
    6    1   10    1        0.0000000511
    6    1   11    1       -0.0001137453
    6    1   12    1        0.0000000003
    6    1   13    1       -0.0002183943
    6    1    2    2       -0.0000122378
    6    1    3    2       -0.0000020130
    6    1    4    2       -0.0000000290
    6    1    5    2       -0.0000011647
    6    1    6    2       -0.0005007367
    6    1    7    2        0.0000000000
    6    1    8    2        0.0000275185
    6    1    9    2       -0.0000002744
    6    1   10    2        0.0000002004
    6    1   11    2        0.0002619068
    6    1   12    2       -0.0000000021
    6    1   13    2       -0.0000318082
    6    1    3    3        0.0002334294
    6    1    4    3       -0.0000000000
    6    1    5    3       -0.0000000010
    6    1    6    3        0.0000011728
    6    1    7    3       -0.0000000000
    6    1    8    3        0.0000004764
    6    1    9    3        0.0005263099
    6    1   10    3       -0.0000000005
    6    1   11    3       -0.0000004900
    6    1   12    3       -0.0000010476
    6    1   13    3       -0.0000001247
    6    1    4    4       -0.0001239578
    6    1    5    4       -0.0000000001
    6    1    6    4       -0.0000000102
    6    1    7    4        0.0000005101
    6    1    8    4        0.0000000056
    6    1    9    4        0.0000000004
    6    1   10    4       -0.0000000000
    6    1   11    4       -0.0000000152
    6    1   12    4        0.0000000444
    6    1   13    4        0.0000000899
    6    1    5    5       -0.0001237815
    6    1    6    5       -0.0000004095
    6    1    7    5       -0.0000000122
    6    1    8    5        0.0000002156
    6    1    9    5        0.0000000009
    6    1   10    5        0.0002812151
    6    1   11    5       -0.0000000302
    6    1   12    5       -0.0000027841
    6    1   13    5        0.0000000261
    6    1    6    6        0.0001839113
    6    1    7    6        0.0000000000
    6    1    8    6        0.0003876920
    6    1    9    6        0.0000013491
    6    1   10    6        0.0000003328
    6    1   11    6       -0.0003929925
    6    1   12    6        0.0000000001
    6    1   13    6       -0.0000954093
    6    1    7    7       -0.0001766944
    6    1    8    7       -0.0000000000
    6    1    9    7       -0.0000000000
    6    1   10    7        0.0000000171
    6    1   11    7        0.0000000000
    6    1   12    7        0.0000000133
    6    1   13    7       -0.0000000001
    6    1    8    8       -0.0000460067
    6    1    9    8        0.0000015206
    6    1   10    8       -0.0000008875
    6    1   11    8       -0.0004378561
    6    1   12    8        0.0000000011
    6    1   13    8        0.0000517502
    6    1    9    9        0.0005981576
    6    1   10    9       -0.0000000006
    6    1   11    9       -0.0000011141
    6    1   12    9        0.0000004029
    6    1   13    9       -0.0000003676
    6    1   10   10       -0.0003784012
    6    1   11   10       -0.0000002982
    6    1   12   10       -0.0000001439
    6    1   13   10        0.0000001110
    6    1   11   11        0.0002510963
    6    1   12   11       -0.0000000011
    6    1   13   11        0.0003240004
    6    1   12   12        0.0000583302
    6    1   13   12       -0.0000000006
    6    1   13   13       -0.0000681681
    7    1    7    1        0.0000752571
    7    1    8    1       -0.0000000000
    7    1    9    1        0.0000000000
    7    1   10    1       -0.0000000008
    7    1   11    1       -0.0000000000
    7    1   12    1       -0.0000000030
    7    1   13    1       -0.0000000000
    7    1    2    2        0.0000000000
    7    1    3    2       -0.0000000000
    7    1    4    2        0.0000021356
    7    1    5    2       -0.0000000520
    7    1    6    2        0.0000000000
    7    1    7    2       -0.0004616998
    7    1    8    2        0.0000000000
    7    1    9    2       -0.0000000000
    7    1   10    2        0.0000000101
    7    1   11    2        0.0000000000
    7    1   12    2        0.0000000084
    7    1   13    2       -0.0000000001
    7    1    3    3        0.0000000000
    7    1    4    3       -0.0000000018
    7    1    5    3        0.0000000000
    7    1    6    3       -0.0000000000
    7    1    7    3        0.0000001035
    7    1    8    3        0.0000000000
    7    1    9    3        0.0000000000
    7    1   10    3        0.0000000000
    7    1   11    3       -0.0000000001
    7    1   12    3       -0.0000003188
    7    1   13    3       -0.0000000001
    7    1    4    4        0.0000080787
    7    1    5    4        0.0001657239
    7    1    6    4        0.0000005363
    7    1    7    4       -0.0000000262
    7    1    8    4       -0.0000004264
    7    1    9    4       -0.0000000000
    7    1   10    4       -0.0004251027
    7    1   11    4       -0.0000003147
    7    1   12    4       -0.0000004127
    7    1   13    4        0.0000000735
    7    1    5    5       -0.0000080817
    7    1    6    5       -0.0000000130
    7    1    7    5       -0.0000010765
    7    1    8    5        0.0000000105
    7    1    9    5       -0.0000000006
    7    1   10    5        0.0000207261
    7    1   11    5        0.0000000305
    7    1   12    5        0.0000000625
    7    1   13    5       -0.0000001167
    7    1    6    6        0.0000000000
    7    1    7    6       -0.0001544228
    7    1    8    6       -0.0000000000
    7    1    9    6       -0.0000000000
    7    1   10    6        0.0000000164
    7    1   11    6        0.0000000000
    7    1   12    6        0.0000000127
    7    1   13    6       -0.0000000002
    7    1    7    7        0.0000000000
    7    1    8    7        0.0003536580
    7    1    9    7       -0.0000000206
    7    1   10    7        0.0000013365
    7    1   11    7        0.0003596933
    7    1   12    7        0.0000000016
    7    1   13    7       -0.0000840215
    7    1    8    8        0.0000000000
    7    1    9    8        0.0000000000
    7    1   10    8       -0.0000000409
    7    1   11    8       -0.0000000001
    7    1   12    8       -0.0000000143
    7    1   13    8        0.0000000004
    7    1    9    9        0.0000000000
    7    1   10    9        0.0000000006
    7    1   11    9       -0.0000000000
    7    1   12    9        0.0000000851
    7    1   13    9       -0.0000000000
    7    1   10   10       -0.0000248952
    7    1   11   10       -0.0000000422
    7    1   12   10       -0.0000001382
    7    1   13   10        0.0000001506
    7    1   11   11       -0.0000000001
    7    1   12   11       -0.0000000080
    7    1   13   11        0.0000000001
    7    1   12   12       -0.0000373343
    7    1   13   12        0.0000000105
    7    1   13   13       -0.0000000001
    8    1    8    1        0.0052983582
    8    1    9    1        0.0000001247
    8    1   10    1        0.0000001038
    8    1   11    1       -0.0001204614
    8    1   12    1        0.0000000003
    8    1   13    1       -0.0065078311
    8    1    2    2       -0.0004047296
    8    1    3    2       -0.0000005555
    8    1    4    2        0.0000000165
    8    1    5    2        0.0000007206
    8    1    6    2       -0.0000014213
    8    1    7    2        0.0000000000
    8    1    8    2        0.0006258893
    8    1    9    2       -0.0000002003
    8    1   10    2       -0.0000003211
    8    1   11    2        0.0000019730
    8    1   12    2        0.0000000017
    8    1   13    2       -0.0007999155
    8    1    3    3       -0.0008490926
    8    1    4    3        0.0000000000
    8    1    5    3        0.0000000017
    8    1    6    3        0.0000004599
    8    1    7    3        0.0000000000
    8    1    8    3        0.0000002552
    8    1    9    3       -0.0013604268
    8    1   10    3        0.0000000014
    8    1   11    3       -0.0000002713
    8    1   12    3        0.0000007209
    8    1   13    3       -0.0000001400
    8    1    4    4       -0.0005360043
    8    1    5    4       -0.0000000000
    8    1    6    4        0.0000000070
    8    1    7    4       -0.0000004973
    8    1    8    4       -0.0000000073
    8    1    9    4        0.0000000011
    8    1   10    4       -0.0000000001
    8    1   11    4       -0.0000000497
    8    1   12    4       -0.0000001633
    8    1   13    4        0.0000002457
    8    1    5    5       -0.0005358781
    8    1    6    5        0.0000003019
    8    1    7    5        0.0000000126
    8    1    8    5       -0.0000003179
    8    1    9    5        0.0000000006
    8    1   10    5        0.0008588297
    8    1   11    5       -0.0000001745
    8    1   12    5       -0.0000006462
    8    1   13    5        0.0000001254
    8    1    6    6       -0.0000588280
    8    1    7    6        0.0000000000
    8    1    8    6       -0.0000101700
    8    1    9    6        0.0000005878
    8    1   10    6       -0.0000004051
    8    1   11    6        0.0000528894
    8    1   12    6        0.0000000005
    8    1   13    6        0.0000270139
    8    1    7    7       -0.0000697506
    8    1    8    7       -0.0000000000
    8    1    9    7        0.0000000000
    8    1   10    7       -0.0000000182
    8    1   11    7       -0.0000000001
    8    1   12    7        0.0000000026
    8    1   13    7        0.0000000002
    8    1    8    8       -0.0010236152
    8    1    9    8        0.0000004746
    8    1   10    8        0.0000006588
    8    1   11    8       -0.0000036023
    8    1   12    8        0.0000000003
    8    1   13    8        0.0012922337
    8    1    9    9       -0.0023162794
    8    1   10    9       -0.0000000005
    8    1   11    9       -0.0000005099
    8    1   12    9       -0.0000000584
    8    1   13    9       -0.0000002895
    8    1   10   10       -0.0014716763
    8    1   11   10        0.0000003658
    8    1   12   10        0.0000001126
    8    1   13   10       -0.0000002877
    8    1   11   11       -0.0000798971
    8    1   12   11       -0.0000000003
    8    1   13   11       -0.0000049631
    8    1   12   12       -0.0002351441
    8    1   13   12        0.0000000002
    8    1   13   13       -0.0016674850
    9    1    9    1        0.0095171414
    9    1   10    1       -0.0000000031
    9    1   11    1       -0.0000001374
    9    1   12    1       -0.0000000058
    9    1   13    1        0.0000003956
    9    1    2    2        0.0000694663
    9    1    3    2       -0.0050404603
    9    1    4    2        0.0000000050
    9    1    5    2       -0.0000000092
    9    1    6    2       -0.0000861489
    9    1    7    2       -0.0000000001
    9    1    8    2        0.0000216995
    9    1    9    2       -0.0022328470
    9    1   10    2       -0.0000000026
    9    1   11    2        0.0000217327
    9    1   12    2        0.0000002772
    9    1   13    2       -0.0000252889
    9    1    3    3        0.0000004875
    9    1    4    3        0.0000000144
    9    1    5    3        0.0000005952
    9    1    6    3        0.0027717167
    9    1    7    3        0.0000000000
    9    1    8    3        0.0034067347
    9    1    9    3        0.0000003912
    9    1   10    3       -0.0000001110
    9    1   11    3       -0.0017548452
    9    1   12    3        0.0000000085
    9    1   13    3       -0.0029699244
    9    1    4    4        0.0000582066
    9    1    5    4        0.0000000002
    9    1    6    4        0.0000000016
    9    1    7    4        0.0000000005
    9    1    8    4       -0.0000000035
    9    1    9    4        0.0000000089
    9    1   10    4       -0.0000000010
    9    1   11    4       -0.0000000015
    9    1   12    4        0.0007344041
    9    1   13    4        0.0000000048
    9    1    5    5        0.0000582296
    9    1    6    5        0.0000000128
    9    1    7    5       -0.0000000023
    9    1    8    5       -0.0000000042
    9    1    9    5        0.0000003672
    9    1   10    5        0.0000475452
    9    1   11    5       -0.0000000280
    9    1   12    5       -0.0055332898
    9    1   13    5        0.0000000102
    9    1    6    6        0.0001313094
    9    1    7    6       -0.0000000001
    9    1    8    6        0.0000124926
    9    1    9    6        0.0040661016
    9    1   10    6       -0.0000000113
    9    1   11    6       -0.0000681635
    9    1   12    6        0.0000006431
    9    1   13    6        0.0000475761
    9    1    7    7        0.0000532977
    9    1    8    7        0.0000000000
    9    1    9    7        0.0000000000
    9    1   10    7        0.0000000036
    9    1   11    7       -0.0000000009
    9    1   12    7        0.0000001479
    9    1   13    7       -0.0000000010
    9    1    8    8        0.0000738085
    9    1    9    8        0.0051143397
    9    1   10    8       -0.0000000070
    9    1   11    8       -0.0000575678
    9    1   12    8        0.0000000076
    9    1   13    8        0.0000245920
    9    1    9    9        0.0000001407
    9    1   10    9       -0.0000002952
    9    1   11    9       -0.0036981511
    9    1   12    9        0.0000000116
    9    1   13    9       -0.0041588391
    9    1   10   10        0.0000648515
    9    1   11   10        0.0000000107
    9    1   12   10        0.0020203350
    9    1   13   10        0.0000000021
    9    1   11   11        0.0001109255
    9    1   12   11        0.0000000027
    9    1   13   11        0.0000117982
    9    1   12   12        0.0000067789
    9    1   13   12       -0.0000001945
    9    1   13   13        0.0000872055
   10    1   10    1        0.0047403502
   10    1   11    1        0.0000000046
   10    1   12    1       -0.0000002959
   10    1   13    1        0.0000001714
   10    1    2    2        0.0000779177
   10    1    3    2        0.0000000120
   10    1    4    2       -0.0000000007
   10    1    5    2        0.0040265854
   10    1    6    2        0.0000490883
   10    1    7    2        0.0000020593
   10    1    8    2        0.0000232124
   10    1    9    2       -0.0000000032
   10    1   10    2       -0.0020939534
   10    1   11    2       -0.0000121806
   10    1   12    2        0.0000002762
   10    1   13    2       -0.0000281242
   10    1    3    3        0.0000605503
   10    1    4    3       -0.0000000002
   10    1    5    3        0.0000002561
   10    1    6    3       -0.0000000004
   10    1    7    3        0.0000000002
   10    1    8    3       -0.0000000015
   10    1    9    3       -0.0000572379
   10    1   10    3       -0.0000000900
   10    1   11    3        0.0000000144
   10    1   12    3        0.0045231307
   10    1   13    3        0.0000000020
   10    1    4    4        0.0000334262
   10    1    5    4        0.0000007625
   10    1    6    4       -0.0000000003
   10    1    7    4       -0.0017501643
   10    1    8    4        0.0000000002
   10    1    9    4       -0.0000000000
   10    1   10    4        0.0000007433
   10    1   11    4       -0.0000000011
   10    1   12    4        0.0000000399
   10    1   13    4        0.0000000073
   10    1    5    5        0.0000324839
   10    1    6    5        0.0009625895
   10    1    7    5        0.0000853421
   10    1    8    5       -0.0026187038
   10    1    9    5        0.0000000163
   10    1   10    5        0.0000296157
   10    1   11    5       -0.0006043487
   10    1   12    5        0.0000000615
   10    1   13    5        0.0022260043
   10    1    6    6        0.0000821407
   10    1    7    6        0.0000009406
   10    1    8    6       -0.0000072955
   10    1    9    6       -0.0000000046
   10    1   10    6       -0.0014821696
   10    1   11    6        0.0000451324
   10    1   12    6        0.0000045739
   10    1   13    6       -0.0000268383
   10    1    7    7        0.0001269115
   10    1    8    7       -0.0000002997
   10    1    9    7        0.0000000037
   10    1   10    7       -0.0001392237
   10    1   11    7       -0.0000018676
   10    1   12    7       -0.0000004040
   10    1   13    7       -0.0000003509
   10    1    8    8        0.0000839169
   10    1    9    8       -0.0000000043
   10    1   10    8        0.0043663815
   10    1   11    8        0.0000323299
   10    1   12    8       -0.0000003385
   10    1   13    8        0.0000288540
   10    1    9    9        0.0000756497
   10    1   10    9       -0.0000001413
   10    1   11    9        0.0000000058
   10    1   12    9        0.0013481706
   10    1   13    9       -0.0000000014
   10    1   10   10        0.0000398832
   10    1   11   10        0.0014282362
   10    1   12   10        0.0000000435
   10    1   13   10       -0.0033704446
   10    1   11   11        0.0001226813
   10    1   12   11        0.0000003597
   10    1   13   11       -0.0000065168
   10    1   12   12        0.0000338242
   10    1   13   12        0.0000002464
   10    1   13   13        0.0000998126
   11    1   11    1        0.0001369898
   11    1   12    1        0.0000000004
   11    1   13    1        0.0001479906
   11    1    2    2        0.0000061549
   11    1    3    2        0.0000015899
   11    1    4    2       -0.0000001906
   11    1    5    2        0.0000009581
   11    1    6    2        0.0004849540
   11    1    7    2        0.0000000045
   11    1    8    2       -0.0000169161
   11    1    9    2        0.0000003789
   11    1   10    2       -0.0000002840
   11    1   11    2       -0.0003345740
   11    1   12    2       -0.0000000033
   11    1   13    2        0.0000205394
   11    1    3    3       -0.0002710901
   11    1    4    3        0.0000000003
   11    1    5    3       -0.0000000042
   11    1    6    3       -0.0000010185
   11    1    7    3       -0.0000000001
   11    1    8    3       -0.0000005383
   11    1    9    3       -0.0006057584
   11    1   10    3        0.0000000020
   11    1   11    3        0.0000005448
   11    1   12    3        0.0000009370
   11    1   13    3        0.0000001925
   11    1    4    4        0.0001221321
   11    1    5    4        0.0000000016
   11    1    6    4       -0.0000000492
   11    1    7    4       -0.0000006211
   11    1    8    4        0.0000001322
   11    1    9    4       -0.0000000002
   11    1   10    4        0.0000000016
   11    1   11    4        0.0000000431
   11    1   12    4        0.0000000017
   11    1   13    4       -0.0000002078
   11    1    5    5        0.0001219648
   11    1    6    5        0.0000000710
   11    1    7    5        0.0000001083
   11    1    8    5       -0.0000002883
   11    1    9    5       -0.0000000017
   11    1   10    5       -0.0002881897
   11    1   11    5       -0.0000001613
   11    1   12    5        0.0000022833
   11    1   13    5        0.0000000482
   11    1    6    6       -0.0002499760
   11    1    7    6        0.0000000021
   11    1    8    6       -0.0004243407
   11    1    9    6       -0.0000011932
   11    1   10    6       -0.0000002981
   11    1   11    6        0.0004044601
   11    1   12    6        0.0000000006
   11    1   13    6        0.0001567470
   11    1    7    7        0.0002352230
   11    1    8    7       -0.0000000007
   11    1    9    7       -0.0000000000
   11    1   10    7       -0.0000001682
   11    1   11    7       -0.0000000038
   11    1   12    7       -0.0000000139
   11    1   13    7       -0.0000000023
   11    1    8    8        0.0000314778
   11    1    9    8       -0.0000012642
   11    1   10    8        0.0000007770
   11    1   11    8        0.0004873713
   11    1   12    8       -0.0000000002
   11    1   13    8       -0.0000350519
   11    1    9    9       -0.0007773791
   11    1   10    9        0.0000000039
   11    1   11    9        0.0000010449
   11    1   12    9       -0.0000001146
   11    1   13    9        0.0000003940
   11    1   10   10        0.0004190757
   11    1   11   10        0.0000002956
   11    1   12   10       -0.0000000212
   11    1   13   10       -0.0000001699
   11    1   11   11       -0.0003093570
   11    1   12   11        0.0000000011
   11    1   13   11       -0.0003318547
   11    1   12   12       -0.0000548238
   11    1   13   12        0.0000000001
   11    1   13   13        0.0000468067
   12    1   12    1        0.0002506781
   12    1   13    1       -0.0000000007
   12    1    2    2        0.0000001114
   12    1    3    2       -0.0000071233
   12    1    4    2       -0.0000018005
   12    1    5    2        0.0000051678
   12    1    6    2       -0.0000000743
   12    1    7    2        0.0000000565
   12    1    8    2        0.0000001653
   12    1    9    2        0.0000064548
   12    1   10    2        0.0000042393
   12    1   11    2       -0.0000001036
   12    1   12    2       -0.0008168383
   12    1   13    2        0.0000000051
   12    1    3    3       -0.0000000034
   12    1    4    3        0.0001289367
   12    1    5    3       -0.0009713789
   12    1    6    3       -0.0000022278
   12    1    7    3       -0.0000012987
   12    1    8    3       -0.0000030992
   12    1    9    3        0.0000000066
   12    1   10    3        0.0005973584
   12    1   11    3        0.0000031958
   12    1   12    3        0.0000006367
   12    1   13    3        0.0000024176
   12    1    4    4        0.0000000386
   12    1    5    4        0.0000000099
   12    1    6    4        0.0000004929
   12    1    7    4       -0.0000017330
   12    1    8    4        0.0000003851
   12    1    9    4        0.0000671280
   12    1   10    4        0.0000000371
   12    1   11    4        0.0000000872
   12    1   12    4       -0.0000001009
   12    1   13    4       -0.0000003532
   12    1    5    5        0.0000000431
   12    1    6    5       -0.0000065957
   12    1    7    5        0.0000007436
   12    1    8    5        0.0000025891
   12    1    9    5       -0.0005057056
   12    1   10    5        0.0000000859
   12    1   11    5        0.0000008018
   12    1   12    5       -0.0000034753
   12    1   13    5       -0.0000020081
   12    1    6    6        0.0000000493
   12    1    7    6        0.0000000027
   12    1    8    6       -0.0000000642
   12    1    9    6        0.0000034845
   12    1   10    6       -0.0000032559
   12    1   11    6        0.0000000741
   12    1   12    6        0.0001850663
   12    1   13    6        0.0000000819
   12    1    7    7        0.0000001677
   12    1    8    7        0.0000000027
   12    1    9    7        0.0000007991
   12    1   10    7       -0.0000008965
   12    1   11    7       -0.0000000535
   12    1   12    7       -0.0000930968
   12    1   13    7       -0.0000000274
   12    1    8    8        0.0000002984
   12    1    9    8        0.0000056855
   12    1   10    8        0.0000040387
   12    1   11    8       -0.0000001007
   12    1   12    8        0.0004948103
   12    1   13    8        0.0000001672
   12    1    9    9       -0.0000000037
   12    1   10    9        0.0007710993
   12    1   11    9        0.0000009911
   12    1   12    9        0.0000009256
   12    1   13    9        0.0000002848
   12    1   10   10        0.0000001763
   12    1   11   10       -0.0000010913
   12    1   12   10       -0.0000038691
   12    1   13   10        0.0000009633
   12    1   11   11        0.0000001076
   12    1   12   11       -0.0000306595
   12    1   13   11        0.0000001160
   12    1   12   12       -0.0000000060
   12    1   13   12       -0.0004296910
   12    1   13   13        0.0000004094
   13    1   13    1        0.0080297041
   13    1    2    2        0.0004096362
   13    1    3    2       -0.0000006449
   13    1    4    2        0.0000011546
   13    1    5    2        0.0000006823
   13    1    6    2       -0.0000012201
   13    1    7    2       -0.0000000238
   13    1    8    2       -0.0006632943
   13    1    9    2       -0.0000000884
   13    1   10    2       -0.0000000900
   13    1   11    2        0.0000002721
   13    1   12    2       -0.0000000011
   13    1   13    2        0.0008509902
   13    1    3    3        0.0007750651
   13    1    4    3       -0.0000000023
   13    1    5    3       -0.0000000015
   13    1    6    3        0.0000002800
   13    1    7    3       -0.0000000000
   13    1    8    3        0.0000001758
   13    1    9    3        0.0013328496
   13    1   10    3       -0.0000000007
   13    1   11    3       -0.0000000560
   13    1   12    3        0.0000005016
   13    1   13    3       -0.0000000482
   13    1    4    4        0.0004456261
   13    1    5    4       -0.0000000091
   13    1    6    4        0.0000002803
   13    1    7    4       -0.0000002497
   13    1    8    4       -0.0000007428
   13    1    9    4       -0.0000000022
   13    1   10    4       -0.0000000084
   13    1   11    4       -0.0000001301
   13    1   12    4        0.0000003053
   13    1   13    4        0.0000004071
   13    1    5    5        0.0004455144
   13    1    6    5        0.0000001325
   13    1    7    5       -0.0000004867
   13    1    8    5       -0.0000001098
   13    1    9    5       -0.0000000011
   13    1   10    5       -0.0007845401
   13    1   11    5        0.0000000042
   13    1   12    5       -0.0000005805
   13    1   13    5       -0.0000000004
   13    1    6    6        0.0000268245
   13    1    7    6       -0.0000000109
   13    1    8    6        0.0000139307
   13    1    9    6        0.0000003047
   13    1   10    6       -0.0000001036
   13    1   11    6       -0.0000224136
   13    1   12    6        0.0000000020
   13    1   13    6       -0.0000311680
   13    1    7    7        0.0000372084
   13    1    8    7        0.0000000034
   13    1    9    7       -0.0000000000
   13    1   10    7        0.0000008000
   13    1   11    7        0.0000000198
   13    1   12    7       -0.0000000002
   13    1   13    7        0.0000000131
   13    1    8    8        0.0010771743
   13    1    9    8        0.0000004832
   13    1   10    8        0.0000004918
   13    1   11    8       -0.0000001207
   13    1   12    8       -0.0000000002
   13    1   13    8       -0.0013946953
   13    1    9    9        0.0023177210
   13    1   10    9        0.0000000002
   13    1   11    9       -0.0000002506
   13    1   12    9       -0.0000002122
   13    1   13    9       -0.0000001263
   13    1   10   10        0.0013753087
   13    1   11   10        0.0000000933
   13    1   12   10       -0.0000001292
   13    1   13   10       -0.0000000980
   13    1   11   11        0.0000458687
   13    1   12   11        0.0000000008
   13    1   13   11        0.0000085578
   13    1   12   12        0.0001272496
   13    1   13   12        0.0000000003
   13    1   13   13        0.0018057914
    2    2    2    2        0.1195944487
    2    2    3    2       -0.0004464855
    2    2    4    2        0.0000152393
    2    2    5    2        0.0006254991
    2    2    6    2       -0.0002715342
    2    2    7    2       -0.0000000000
    2    2    8    2       -0.0100294928
    2    2    9    2        0.0000251506
    2    2   10    2       -0.0000074965
    2    2   11    2        0.0000027971
    2    2   12    2       -0.0000036680
    2    2   13    2        0.0021008236
    2    2    3    3        0.1251876819
    2    2    4    3       -0.0000000829
    2    2    5    3       -0.0000034039
    2    2    6    3        0.0001930796
    2    2    7    3        0.0000000000
    2    2    8    3        0.0000301098
    2    2    9    3        0.0093950325
    2    2   10    3       -0.0000006858
    2    2   11    3       -0.0000331254
    2    2   12    3        0.0006163300
    2    2   13    3       -0.0000320328
    2    2    4    4        0.1242773637
    2    2    5    4        0.0000001178
    2    2    6    4        0.0000031643
    2    2    7    4       -0.0002262161
    2    2    8    4       -0.0000006647
    2    2    9    4        0.0000000132
    2    2   10    4        0.0000000303
    2    2   11    4        0.0000000282
    2    2   12    4        0.0000625607
    2    2   13    4       -0.0000016953
    2    2    5    5        0.1242806896
    2    2    6    5        0.0001297317
    2    2    7    5        0.0000055127
    2    2    8    5       -0.0000273400
    2    2    9    5        0.0000010267
    2    2   10    5       -0.0091426717
    2    2   11    5       -0.0000188184
    2    2   12    5       -0.0004525699
    2    2   13    5        0.0000364295
    2    2    6    6        0.1203548501
    2    2    7    6       -0.0000000001
    2    2    8    6       -0.0000152070
    2    2    9    6        0.0002418080
    2    2   10    6       -0.0001550034
    2    2   11    6       -0.0064257578
    2    2   12    6        0.0000017122
    2    2   13    6       -0.0000668964
    2    2    7    7        0.1201997781
    2    2    8    7       -0.0000000001
    2    2    9    7        0.0000000004
    2    2   10    7       -0.0000078631
    2    2   11    7       -0.0000000175
    2    2   12    7       -0.0000004116
    2    2   13    7        0.0000000833
    2    2    8    8        0.1153932444
    2    2    9    8        0.0003472401
    2    2   10    8        0.0005062691
    2    2   11    8       -0.0000488550
    2    2   12    8       -0.0000009769
    2    2   13    8       -0.0103522397
    2    2    9    9        0.1232574735
    2    2   10    9        0.0000018847
    2    2   11    9       -0.0001650712
    2    2   12    9       -0.0001847787
    2    2   13    9       -0.0000514147
    2    2   10   10        0.1225485350
    2    2   11   10        0.0001194426
    2    2   12   10       -0.0001001966
    2    2   13   10       -0.0000524756
    2    2   11   11        0.1186264763
    2    2   12   11        0.0000007394
    2    2   13   11       -0.0000242379
    2    2   12   12        0.1255426649
    2    2   13   12       -0.0000002119
    2    2   13   13        0.1145799366
    3    2    3    2        0.0245673854
    3    2    4    2       -0.0000000731
    3    2    5    2       -0.0000030014
    3    2    6    2        0.0004994361
    3    2    7    2        0.0000000000
    3    2    8    2       -0.0002326071
    3    2    9    2       -0.0013946763
    3    2   10    2       -0.0000028765
    3    2   11    2       -0.0000407122
    3    2   12    2        0.0002057364
    3    2   13    2        0.0001297304
    3    2    3    3       -0.0000012426
    3    2    4    3        0.0000047154
    3    2    5    3        0.0001935398
    3    2    6    3       -0.0064575958
    3    2    7    3       -0.0000000000
    3    2    8    3       -0.0046745303
    3    2    9    3       -0.0000019133
    3    2   10    3        0.0000059924
    3    2   11    3        0.0013003028
    3    2   12    3       -0.0000000473
    3    2   13    3        0.0034770466
    3    2    4    4       -0.0003715615
    3    2    5    4       -0.0000000016
    3    2    6    4        0.0000000700
    3    2    7    4        0.0000010605
    3    2    8    4       -0.0000000621
    3    2    9    4       -0.0000016979
    3    2   10    4        0.0000000036
    3    2   11    4        0.0000000233
    3    2   12    4       -0.0034034816
    3    2   13    4       -0.0000000368
    3    2    5    5       -0.0003717380
    3    2    6    5        0.0000028732
    3    2    7    5       -0.0000000259
    3    2    8    5       -0.0000025502
    3    2    9    5       -0.0000696835
    3    2   10    5       -0.0003418488
    3    2   11    5        0.0000006892
    3    2   12    5        0.0256462569
    3    2   13    5        0.0000003026
    3    2    6    6       -0.0007095156
    3    2    7    6        0.0000000001
    3    2    8    6        0.0000067176
    3    2    9    6       -0.0135792191
    3    2   10    6        0.0000019275
    3    2   11    6        0.0002686788
    3    2   12    6        0.0000018945
    3    2   13    6       -0.0002951630
    3    2    7    7       -0.0003680896
    3    2    8    7       -0.0000000000
    3    2    9    7       -0.0000000001
    3    2   10    7        0.0000000083
    3    2   11    7        0.0000000061
    3    2   12    7        0.0000134367
    3    2   13    7        0.0000000065
    3    2    8    8       -0.0005573712
    3    2    9    8       -0.0178896875
    3    2   10    8       -0.0000038320
    3    2   11    8        0.0003280296
    3    2   12    8        0.0000309601
    3    2   13    8       -0.0002282416
    3    2    9    9       -0.0000003375
    3    2   10    9       -0.0000929749
    3    2   11    9        0.0065153124
    3    2   12    9       -0.0000001486
    3    2   13    9        0.0059629329
    3    2   10   10       -0.0004891502
    3    2   11   10        0.0000009922
    3    2   12   10        0.0016424428
    3    2   13   10       -0.0000016556
    3    2   11   11       -0.0005655779
    3    2   12   11       -0.0000136924
    3    2   13   11       -0.0000958024
    3    2   12   12       -0.0000183163
    3    2   13   12        0.0000074264
    3    2   13   13       -0.0006596468
    4    2    4    2        0.0248918340
    4    2    5    2        0.0000001063
    4    2    6    2        0.0000087306
    4    2    7    2       -0.0006131983
    4    2    8    2        0.0000078262
    4    2    9    2        0.0000000794
    4    2   10    2        0.0000001114
    4    2   11    2       -0.0000006423
    4    2   12    2        0.0000204625
    4    2   13    2       -0.0000043089
    4    2    3    3        0.0000117007
    4    2    4    3       -0.0001459001
    4    2    5    3       -0.0000000016
    4    2    6    3       -0.0000000149
    4    2    7    3        0.0000031007
    4    2    8    3       -0.0000000611
    4    2    9    3       -0.0000121840
    4    2   10    3        0.0000000035
    4    2   11    3        0.0000000185
    4    2   12    3       -0.0033815372
    4    2   13    3        0.0000000579
    4    2    4    4       -0.0000112055
    4    2    5    4       -0.0002577949
    4    2    6    4        0.0028340377
    4    2    7    4       -0.0002503871
    4    2    8    4       -0.0038681809
    4    2    9    4        0.0000188516
    4    2   10    4       -0.0002904152
    4    2   11    4       -0.0004602647
    4    2   12    4        0.0000010058
    4    2   13    4        0.0029355453
    4    2    5    5        0.0000239007
    4    2    6    5        0.0000000850
    4    2    7    5       -0.0051387925
    4    2    8    5        0.0000000882
    4    2    9    5        0.0000000006
    4    2   10    5        0.0000202659
    4    2   11    5        0.0000000731
    4    2   12    5       -0.0000002953
    4    2   13    5       -0.0000000737
    4    2    6    6        0.0000155661
    4    2    7    6       -0.0002134144
    4    2    8    6        0.0000001729
    4    2    9    6        0.0000000239
    4    2   10    6        0.0000000378
    4    2   11    6        0.0000115578
    4    2   12    6        0.0000010525
    4    2   13    6       -0.0000072147
    4    2    7    7        0.0000215514
    4    2    8    7       -0.0000136685
    4    2    9    7       -0.0000020680
    4    2   10    7        0.0126823770
    4    2   11    7        0.0004812893
    4    2   12    7        0.0000519853
    4    2   13    7        0.0003555795
    4    2    8    8        0.0000192302
    4    2    9    8        0.0000001210
    4    2   10    8        0.0000001377
    4    2   11    8        0.0000045678
    4    2   12    8       -0.0000020498
    4    2   13    8        0.0000135447
    4    2    9    9        0.0000170537
    4    2   10    9       -0.0000000000
    4    2   11    9        0.0000000167
    4    2   12    9        0.0004785670
    4    2   13    9        0.0000000372
    4    2   10   10        0.0000294293
    4    2   11   10        0.0000000316
    4    2   12   10       -0.0000005550
    4    2   13   10       -0.0000000485
    4    2   11   11        0.0000236598
    4    2   12   11       -0.0000000087
    4    2   13   11       -0.0000005197
    4    2   12   12        0.0000968912
    4    2   13   12        0.0000021665
    4    2   13   13        0.0000199971
    5    2    5    2        0.0248968642
    5    2    6    2        0.0003583053
    5    2    7    2        0.0000149405
    5    2    8    2        0.0003212289
    5    2    9    2        0.0000032584
    5    2   10    2        0.0000806120
    5    2   11    2       -0.0000262172
    5    2   12    2       -0.0001545686
    5    2   13    2       -0.0001777969
    5    2    3    3        0.0004802560
    5    2    4    3       -0.0000000011
    5    2    5    3       -0.0001459633
    5    2    6    3       -0.0000006069
    5    2    7    3       -0.0000000756
    5    2    8    3       -0.0000025046
    5    2    9    3       -0.0005000862
    5    2   10    3       -0.0000370829
    5    2   11    3        0.0000011444
    5    2   12    3        0.0254807123
    5    2   13    3        0.0000003506
    5    2    4    4        0.0000568976
    5    2    5    4        0.0000162360
    5    2    6    4        0.0000000850
    5    2    7    4       -0.0051346200
    5    2    8    4        0.0000000880
    5    2    9    4        0.0000000011
    5    2   10    4        0.0000089852
    5    2   11    4        0.0000000481
    5    2   12    4       -0.0000000312
    5    2   13    4        0.0000000460
    5    2    5    5        0.0004643330
    5    2    6    5        0.0028323357
    5    2    7    5        0.0002505137
    5    2    8    5       -0.0038622440
    5    2    9    5        0.0000188855
    5    2   10    5        0.0003004526
    5    2   11    5       -0.0004583957
    5    2   12    5       -0.0000021528
    5    2   13    5        0.0029340590
    5    2    6    6        0.0006388057
    5    2    7    6        0.0000051976
    5    2    8    6        0.0000071376
    5    2    9    6        0.0000012909
    5    2   10    6       -0.0060759151
    5    2   11    6        0.0004619603
    5    2   12    6        0.0000947026
    5    2   13    6       -0.0002056514
    5    2    7    7        0.0008845827
    5    2    8    7        0.0000003299
    5    2    9    7        0.0000000672
    5    2   10    7       -0.0006184326
    5    2   11    7       -0.0000124121
    5    2   12    7       -0.0000061763
    5    2   13    7       -0.0000053537
    5    2    8    8        0.0007897183
    5    2    9    8        0.0000039635
    5    2   10    8        0.0189589074
    5    2   11    8        0.0002288000
    5    2   12    8       -0.0000258964
    5    2   13    8        0.0003357127
    5    2    9    9        0.0006999481
    5    2   10    9        0.0000738013
    5    2   11    9        0.0000006129
    5    2   12    9       -0.0036113674
    5    2   13    9        0.0000013568
    5    2   10   10        0.0004642294
    5    2   11   10        0.0030483929
    5    2   12   10       -0.0000025944
    5    2   13   10       -0.0052830767
    5    2   11   11        0.0009847008
    5    2   12   11        0.0000088980
    5    2   13   11       -0.0000648598
    5    2   12   12        0.0004792923
    5    2   13   12       -0.0000049316
    5    2   13   13        0.0009436385
    6    2    6    2        0.0131483483
    6    2    7    2       -0.0000000000
    6    2    8    2        0.0000417515
    6    2    9    2        0.0000199015
    6    2   10    2       -0.0000331923
    6    2   11    2       -0.0006712352
    6    2   12    2        0.0000021205
    6    2   13    2       -0.0000075895
    6    2    3    3       -0.0014484105
    6    2    4    3        0.0000000443
    6    2    5    3        0.0000018191
    6    2    6    3       -0.0002485737
    6    2    7    3        0.0000000000
    6    2    8    3       -0.0000788366
    6    2    9    3       -0.0076529031
    6    2   10    3        0.0000001526
    6    2   11    3        0.0000643073
    6    2   12    3        0.0003499660
    6    2   13    3        0.0000353248
    6    2    4    4       -0.0000028820
    6    2    5    4        0.0000001342
    6    2    6    4        0.0000040425
    6    2    7    4       -0.0001005828
    6    2    8    4       -0.0000011530
    6    2    9    4       -0.0000000134
    6    2   10    4        0.0000000205
    6    2   11    4        0.0000009101
    6    2   12    4       -0.0000626287
    6    2   13    4       -0.0000007076
    6    2    5    5       -0.0000015992
    6    2    6    5        0.0001658269
    6    2    7    5        0.0000024503
    6    2    8    5       -0.0000472937
    6    2    9    5       -0.0000003875
    6    2   10    5       -0.0031977845
    6    2   11    5        0.0000308348
    6    2   12    5        0.0005276513
    6    2   13    5        0.0000189203
    6    2    6    6       -0.0012780513
    6    2    7    6       -0.0000000000
    6    2    8    6       -0.0046384178
    6    2    9    6       -0.0002974647
    6    2   10    6       -0.0000933533
    6    2   11    6        0.0103492084
    6    2   12    6       -0.0000000456
    6    2   13    6       -0.0045372460
    6    2    7    7        0.0006991049
    6    2    8    7       -0.0000000000
    6    2    9    7        0.0000000003
    6    2   10    7       -0.0000049612
    6    2   11    7       -0.0000000108
    6    2   12    7       -0.0000002274
    6    2   13    7        0.0000000533
    6    2    8    8       -0.0000685182
    6    2    9    8       -0.0003783974
    6    2   10    8        0.0002854676
    6    2   11    8        0.0077853737
    6    2   12    8        0.0000002315
    6    2   13    8        0.0002394710
    6    2    9    9       -0.0013279963
    6    2   10    9       -0.0000008262
    6    2   11    9        0.0002241030
    6    2   12    9       -0.0001314944
    6    2   13    9        0.0000907481
    6    2   10   10        0.0004790906
    6    2   11   10        0.0000864503
    6    2   12   10        0.0000863506
    6    2   13   10       -0.0000553726
    6    2   11   11       -0.0013191465
    6    2   12   11        0.0000000107
    6    2   13   11       -0.0071057100
    6    2   12   12       -0.0004397543
    6    2   13   12       -0.0000001491
    6    2   13   13       -0.0000685365
    7    2    7    2        0.0130789251
    7    2    8    2       -0.0000000000
    7    2    9    2        0.0000000001
    7    2   10    2       -0.0000016551
    7    2   11    2       -0.0000000037
    7    2   12    2       -0.0000005767
    7    2   13    2        0.0000000178
    7    2    3    3       -0.0000000000
    7    2    4    3        0.0000033361
    7    2    5    3       -0.0000000813
    7    2    6    3        0.0000000000
    7    2    7    3       -0.0000766412
    7    2    8    3       -0.0000000000
    7    2    9    3       -0.0000000000
    7    2   10    3       -0.0000000076
    7    2   11    3        0.0000000035
    7    2   12    3        0.0000959126
    7    2   13    3        0.0000000023
    7    2    4    4       -0.0000292562
    7    2    5    4       -0.0006010379
    7    2    6    4       -0.0000983439
    7    2    7    4        0.0000068600
    7    2    8    4        0.0000804247
    7    2    9    4       -0.0000006575
    7    2   10    4        0.0067972267
    7    2   11    4        0.0000629468
    7    2   12    4        0.0000146929
    7    2   13    4       -0.0000335972
    7    2    5    5        0.0000293534
    7    2    6    5        0.0000023931
    7    2    7    5        0.0002816060
    7    2    8    5       -0.0000019602
    7    2    9    5        0.0000000250
    7    2   10    5       -0.0003314128
    7    2   11    5       -0.0000019016
    7    2   12    5       -0.0000008424
    7    2   13    5        0.0000025890
    7    2    6    6       -0.0000000001
    7    2    7    6        0.0008899843
    7    2    8    6        0.0000000000
    7    2    9    6        0.0000000002
    7    2   10    6       -0.0000042329
    7    2   11    6       -0.0000000088
    7    2   12    6       -0.0000003875
    7    2   13    6        0.0000000590
    7    2    7    7       -0.0000000000
    7    2    8    7       -0.0044289971
    7    2    9    7        0.0000134660
    7    2   10    7       -0.0003458483
    7    2   11    7       -0.0101535646
    7    2   12    7       -0.0000021578
    7    2   13    7       -0.0045584192
    7    2    8    8        0.0000000002
    7    2    9    8       -0.0000000006
    7    2   10    8        0.0000118573
    7    2   11    8        0.0000000259
    7    2   12    8        0.0000003235
    7    2   13    8       -0.0000001367
    7    2    9    9        0.0000000000
    7    2   10    9        0.0000000361
    7    2   11    9       -0.0000000007
    7    2   12    9       -0.0000204372
    7    2   13    9       -0.0000000006
    7    2   10   10        0.0000511824
    7    2   11   10        0.0000034572
    7    2   12   10        0.0000074252
    7    2   13   10       -0.0000025164
    7    2   11   11        0.0000000152
    7    2   12   11        0.0000000978
    7    2   13   11       -0.0000000400
    7    2   12   12        0.0001193441
    7    2   13   12       -0.0000002772
    7    2   13   13        0.0000000513
[...]
   10    7   10   10        0.0000020104
   10    7   11   10       -0.0001194095
   10    7   12   10       -0.0000001511
   10    7   13   10        0.0002247723
   10    7   11   11       -0.0000126315
   10    7   12   11       -0.0000013035
   10    7   13   11        0.0000015258
   10    7   12   12        0.0000356202
   10    7   13   12        0.0000017171
   10    7   13   13       -0.0000131058
   11    7   11    7        0.0091711667
   11    7   12    7        0.0000024682
   11    7   13    7        0.0036108282
   11    7    8    8       -0.0000000203
   11    7    9    8       -0.0000000032
   11    7   10    8       -0.0000099870
   11    7   11    8       -0.0000000280
   11    7   12    8       -0.0000002664
   11    7   13    8        0.0000001000
   11    7    9    9       -0.0000000174
   11    7   10    9       -0.0000000404
   11    7   11    9        0.0000000020
   11    7   12    9        0.0000098531
   11    7   13    9        0.0000000019
   11    7   10   10       -0.0000577979
   11    7   11   10       -0.0000032113
   11    7   12   10       -0.0000053192
   11    7   13   10        0.0000027007
   11    7   11   11       -0.0000000410
   11    7   12   11       -0.0000001309
   11    7   13   11        0.0000000380
   11    7   12   12       -0.0000855640
   11    7   13   12        0.0000002308
   11    7   13   13       -0.0000000747
   12    7   12    7        0.0050858450
   12    7   13    7        0.0000024464
   12    7    8    8       -0.0000006251
   12    7    9    8       -0.0000056454
   12    7   10    8       -0.0000012245
   12    7   11    8       -0.0000000608
   12    7   12    8       -0.0006007488
   12    7   13    8        0.0000001050
   12    7    9    9       -0.0000002883
   12    7   10    9       -0.0000896524
   12    7   11    9        0.0000025185
   12    7   12    9        0.0000002219
   12    7   13    9        0.0000020738
   12    7   10   10       -0.0000002989
   12    7   11   10       -0.0000015646
   12    7   12   10       -0.0000035487
   12    7   13   10        0.0000003064
   12    7   11   11       -0.0000004783
   12    7   12   11       -0.0001056683
   12    7   13   11       -0.0000000443
   12    7   12   12       -0.0000001778
   12    7   13   12        0.0001690420
   12    7   13   13       -0.0000007291
   13    7   13    7        0.0051153202
   13    7    8    8        0.0000000950
   13    7    9    8       -0.0000000034
   13    7   10    8       -0.0000030507
   13    7   11    8        0.0000000237
   13    7   12    8       -0.0000001069
   13    7   13    8        0.0000001101
   13    7    9    9        0.0000000828
   13    7   10    9       -0.0000000229
   13    7   11    9        0.0000000021
   13    7   12    9        0.0000090980
   13    7   13    9        0.0000000019
   13    7   10   10        0.0001368640
   13    7   11   10       -0.0000009073
   13    7   12   10       -0.0000070650
   13    7   13   10       -0.0000007224
   13    7   11   11        0.0000001238
   13    7   12   11        0.0000000301
   13    7   13   11        0.0000000135
   13    7   12   12        0.0000896798
   13    7   13   12        0.0000001038
   13    7   13   13        0.0000000781
    8    8    8    8        0.1183907609
    8    8    9    8        0.0004951563
    8    8   10    8        0.0007226895
    8    8   11    8        0.0001362260
    8    8   12    8       -0.0000042193
    8    8   13    8       -0.0061173884
    8    8    9    9        0.1230316392
    8    8   10    9        0.0000067133
    8    8   11    9       -0.0001454588
    8    8   12    9       -0.0002918071
    8    8   13    9        0.0000170471
    8    8   10   10        0.1222859315
    8    8   11   10        0.0001076816
    8    8   12   10       -0.0001763402
    8    8   13   10        0.0000467747
    8    8   11   11        0.1133465064
    8    8   12   11        0.0000010003
    8    8   13   11       -0.0000404492
    8    8   12   12        0.1201105032
    8    8   13   12       -0.0000016626
    8    8   13   13        0.1147417754
    9    8    9    8        0.0170943243
    9    8   10    8        0.0000065512
    9    8   11    8       -0.0002641809
    9    8   12    8       -0.0000994152
    9    8   13    8        0.0002433654
    9    8    9    9        0.0000000658
    9    8   10    9        0.0001465641
    9    8   11    9       -0.0057026075
    9    8   12    9        0.0000001812
    9    8   13    9       -0.0045997610
    9    8   10   10        0.0003922572
    9    8   11   10       -0.0000015679
    9    8   12   10       -0.0013399594
    9    8   13   10        0.0000033842
    9    8   11   11        0.0004492603
    9    8   12   11       -0.0000195503
    9    8   13   11        0.0000556178
    9    8   12   12        0.0000151090
    9    8   13   12       -0.0000335299
    9    8   13   13        0.0005411900
   10    8   10    8        0.0187347319
   10    8   11    8        0.0001957937
   10    8   12    8       -0.0000753016
   10    8   13    8        0.0003613549
   10    8    9    9        0.0005757758
   10    8   10    9        0.0001112495
   10    8   11    9        0.0000015079
   10    8   12    9       -0.0025393940
   10    8   13    9        0.0000030967
   10    8   10   10        0.0004513398
   10    8   11   10        0.0030234203
   10    8   12   10       -0.0000051373
   10    8   13   10       -0.0045005839
   10    8   11   11        0.0007512234
   10    8   12   11        0.0000192540
   10    8   13   11       -0.0000377657
   10    8   12   12        0.0004410830
   10    8   13   12       -0.0000245020
   10    8   13   13        0.0007981511
   11    8   11    8        0.0065508347
   11    8   12    8        0.0000005679
   11    8   13    8        0.0000261067
   11    8    9    9       -0.0023421447
   11    8   10    9       -0.0000013611
   11    8   11    9        0.0001549729
   11    8   12    9       -0.0000941738
   11    8   13    9        0.0000561371
   11    8   10   10        0.0013355747
   11    8   11   10        0.0000659017
   11    8   12   10        0.0000593690
   11    8   13   10       -0.0000341069
   11    8   11   11       -0.0025108192
   11    8   12   11       -0.0000001573
   11    8   13   11       -0.0039755762
   11    8   12   12        0.0000013064
   11    8   13   12       -0.0000000266
   11    8   13   13        0.0000498324
   12    8   12    8        0.0040408145
   12    8   13    8       -0.0000038001
   12    8    9    9       -0.0000000234
   12    8   10    9       -0.0000451909
   12    8   11    9       -0.0000512876
   12    8   12    9        0.0000030602
   12    8   13    9       -0.0000474618
   12    8   10   10       -0.0000035330
   12    8   11   10        0.0000232835
   12    8   12   10        0.0000677698
   12    8   13   10       -0.0000341044
   12    8   11   11       -0.0000004318
   12    8   12   11        0.0000718636
   12    8   13   11       -0.0000000257
   12    8   12   12        0.0000000976
   12    8   13   12       -0.0009348432
   12    8   13   13       -0.0000045814
   13    8   13    8        0.0136886477
   13    8    9    9       -0.0161915839
   13    8   10    9        0.0000052555
   13    8   11    9       -0.0000279072
   13    8   12    9       -0.0001529671
   13    8   13    9        0.0000560511
   13    8   10   10       -0.0151026204
   13    8   11   10        0.0000226440
   13    8   12   10       -0.0000946728
   13    8   13   10        0.0000888514
   13    8   11   11       -0.0127542574
   13    8   12   11        0.0000001632
   13    8   13   11        0.0000291161
   13    8   12   12       -0.0141063193
   13    8   13   12       -0.0000018608
   13    8   13   13       -0.0083420922
    9    9    9    9        0.1463620128
    9    9   10    9       -0.0000000138
    9    9   11    9        0.0000002950
    9    9   12    9       -0.0002971893
    9    9   13    9        0.0000005354
    9    9   10   10        0.1308777871
    9    9   11   10        0.0001119660
    9    9   12   10        0.0000022175
    9    9   13   10       -0.0000102153
    9    9   11   11        0.1256490077
    9    9   12   11        0.0000004851
    9    9   13   11        0.0007742282
    9    9   12   12        0.1324953741
    9    9   13   12       -0.0000001007
    9    9   13   13        0.1216825032
   10    9   10    9        0.0050957039
   10    9   11    9        0.0000602924
   10    9   12    9        0.0000053040
   10    9   13    9        0.0000505282
   10    9   10   10        0.0000055802
   10    9   11   10       -0.0000316512
   10    9   12   10       -0.0001143700
   10    9   13   10        0.0000410712
   10    9   11   11        0.0000013258
   10    9   12   11       -0.0002216113
   10    9   13   11        0.0000009894
   10    9   12   12       -0.0000001284
   10    9   13   12       -0.0019117416
   10    9   13   13        0.0000080998
   11    9   11    9        0.0091635053
   11    9   12    9        0.0000001130
   11    9   13    9        0.0047106830
   11    9   10   10       -0.0001318483
   11    9   11   10       -0.0000003818
   11    9   12   10       -0.0016474704
   11    9   13   10        0.0000008320
   11    9   11   11       -0.0003198418
   11    9   12   11       -0.0000409531
   11    9   13   11       -0.0000262816
   11    9   12   12       -0.0000183347
   11    9   13   12       -0.0000082386
   11    9   13   13       -0.0001713396
   12    9   12    9        0.0074568678
   12    9   13    9        0.0000000080
   12    9   10   10       -0.0002098059
   12    9   11   10        0.0001731188
   12    9   12   10       -0.0000000357
   12    9   13   10       -0.0028217953
   12    9   11   11       -0.0003116799
   12    9   12   11       -0.0000081706
   12    9   13   11        0.0000816731
   12    9   12   12       -0.0003142169
   12    9   13   12        0.0000008783
   12    9   13   13       -0.0003194981
   13    9   13    9        0.0067489453
   13    9   10   10       -0.0000157847
   13    9   11   10       -0.0000006959
   13    9   12   10       -0.0031879113
   13    9   13   10        0.0000019234
   13    9   11   11       -0.0001371216
   13    9   12   11       -0.0000037319
   13    9   13   11       -0.0000176549
   13    9   12   12       -0.0000081064
   13    9   13   12       -0.0000280009
   13    9   13   13       -0.0000069261
   10   10   10   10        0.1397224410
   10   10   11   10        0.0000287185
   10   10   12   10       -0.0002063759
   10   10   13   10        0.0000519357
   10   10   11   11        0.1184716141
   10   10   12   11        0.0000009814
   10   10   13   11       -0.0004798276
   10   10   12   12        0.1353291139
   10   10   13   12       -0.0000009128
   10   10   13   13        0.1204905508
   11   10   11   10        0.0026749995
   11   10   12   10        0.0000016993
   11   10   13   10       -0.0022850341
   11   10   11   11        0.0002022819
   11   10   12   11       -0.0000066329
   11   10   13   11       -0.0000133907
   11   10   12   12        0.0000302583
   11   10   13   12        0.0000041365
   11   10   13   13        0.0001263349
   12   10   12   10        0.0066147759
   12   10   13   10       -0.0000024683
   12   10   11   11       -0.0000651843
   12   10   12   11       -0.0000051815
   12   10   13   11       -0.0000203827
   12   10   12   12       -0.0000077723
   12   10   13   12        0.0000133679
   12   10   13   13       -0.0001834168
   13   10   13   10        0.0067719788
   13   10   11   11       -0.0001195809
   13   10   12   11        0.0000018607
   13   10   13   11        0.0000162920
   13   10   12   12        0.0000195497
   13   10   13   12       -0.0000203216
   13   10   13   13        0.0000231139
   11   11   11   11        0.1276224377
   11   11   12   11        0.0000011956
   11   11   13   11       -0.0012713439
   11   11   12   12        0.1222173535
   11   11   13   12        0.0000000025
   11   11   13   13        0.1142280023
   12   11   12   11        0.0016498817
   12   11   13   11        0.0000003083
   12   11   12   12        0.0000005163
   12   11   13   12        0.0002424879
   12   11   13   13        0.0000016026
   13   11   13   11        0.0067556659
   13   11   12   12        0.0003320098
   13   11   13   12        0.0000006034
   13   11   13   13       -0.0000948057
   12   12   12   12        0.1514621836
   12   12   13   12       -0.0000002927
   12   12   13   13        0.1184613374
   13   12   13   12        0.0018773701
   13   12   13   13       -0.0000015019
   13   13   13   13        0.1167042708
 end_two_electron_integrals


 output epsi filename:./pspw_hf_H2.emovecs

 Total PSPW energy     :  -0.1123735751E+01


=== Spin Contamination ===

 <Sexact^2> =    0.0000000000000000     
 <S^2>      =    0.0000000000000000     



== Center of Charge ==

spin up     (    0.0000,    0.0000,    0.0000 )
spin down   (    0.0000,    0.0000,    0.0000 )
     total  (    0.0000,    0.0000,    0.0000 )
ionic       (    0.0000,    0.0000,    0.0000 )


== Molecular Dipole wrt Center of Mass ==

mu   =  (   -0.0000,   -0.0000,   -0.0000 ) au
|mu| =     0.0000 au,       0.0000 Debye

 output psi filename:./pspw_hf_H2.movecs

 Writing Crystallographic Information File:./H2.cif
   - cell not shifted (nwpw:cif_shift_cell .false.)


== Timing ==

cputime in seconds
  prologue    :   0.666302E+01
  main loop   :   0.269668E+03
  epilogue    :   0.978782E-02
  total       :   0.276341E+03
  cputime/step:   0.313567E+01       (      86 evalulations,      39 linesearches)


Time spent doing                        total          step       percent
  total time                 :   0.276341E+03  0.321327E+01       100.0 %
  i/o time                   :   0.164030E+00  0.190732E-02         0.1 %
  FFTs                       :   0.239489E+03  0.278475E+01        86.7 %
  dot products               :   0.317437E+00  0.369113E-02         0.1 %
  geodesic                   :   0.463600E-01  0.539070E-03         0.0 %
  ffm_dgemm                  :   0.475757E-02  0.553205E-04         0.0 %
  fmf_dgemm                  :   0.234030E-01  0.272128E-03         0.0 %
  mmm_dgemm                  :   0.978723E-03  0.113805E-04         0.0 %
  m_diagonalize              :   0.521268E-03  0.606126E-05         0.0 %
  local pseudopotentials     :   0.946123E-02  0.110014E-03         0.0 %
  non-local pseudopotentials :   0.673672E+00  0.783340E-02         0.2 %
  structure factors          :   0.311185E+00  0.361843E-02         0.1 %
  phase factors              :   0.573900E-05  0.667326E-07         0.0 %
  masking and packing        :   0.542495E+01  0.630809E-01         2.0 %
  queue fft                  :   0.879931E+00  0.102318E-01         0.3 %
  queue fft (serial)         :   0.513873E+00  0.597526E-02         0.2 %
  queue fft (message passing):   0.331477E+00  0.385438E-02         0.1 %
  HFX potential              :   0.175286E+03  0.203821E+01        63.4 %
  non-local psp FFM          :   0.359202E+00  0.417677E-02         0.1 %
  non-local psp FMF          :   0.832371E-01  0.967874E-03         0.0 %
  non-local psp FFM A        :   0.959785E-01  0.111603E-02         0.0 %
  non-local psp FFM B        :   0.674580E-01  0.784396E-03         0.0 %

== HFX Counters ==
  HFX Evalulations         =    86
  Lin ACE HFX Evalulations =     0


     >>>  JOB COMPLETED     AT Thu May  1 19:53:34 2025  <<<

 Task  times  cpu:      276.1s     wall:      276.3s
 Summary of allocated global arrays
-----------------------------------
  No active global arrays


MA_summarize_allocated_blocks: starting scan ...
MA_summarize_allocated_blocks: scan completed: 0 heap blocks, 0 stack blocks
MA usage statistics:

	allocation statistics:
					      heap	     stack
					      ----	     -----
	current number of blocks	         0	         0
	maximum number of blocks	       313	        17
	current total bytes		         0	         0
	maximum total bytes		 369662368	  89294088
	maximum total K-bytes		    369663	     89295
	maximum total M-bytes		       370	        90


                                NWChem Input Module
                                -------------------




                                     CITATION
                                     --------
                Please cite the following reference when publishing
                           results obtained with NWChem:

          E. Apra, E. J. Bylaska, W. A. de Jong, N. Govind, K. Kowalski,
       T. P. Straatsma, M. Valiev, H. J. J. van Dam, Y. Alexeev, J. Anchell,
       V. Anisimov, F. W. Aquino, R. Atta-Fynn, J. Autschbach, N. P. Bauman,
     J. C. Becca, D. E. Bernholdt, K. Bhaskaran-Nair, S. Bogatko, P. Borowski,
         J. Boschen, J. Brabec, A. Bruner, E. Cauet, Y. Chen, G. N. Chuev,
      C. J. Cramer, J. Daily, M. J. O. Deegan, T. H. Dunning Jr., M. Dupuis,
   K. G. Dyall, G. I. Fann, S. A. Fischer, A. Fonari, H. Fruchtl, L. Gagliardi,
      J. Garza, N. Gawande, S. Ghosh, K. Glaesemann, A. W. Gotz, J. Hammond,
       V. Helms, E. D. Hermes, K. Hirao, S. Hirata, M. Jacquelin, L. Jensen,
   B. G. Johnson, H. Jonsson, R. A. Kendall, M. Klemm, R. Kobayashi, V. Konkov,
      S. Krishnamoorthy, M. Krishnan, Z. Lin, R. D. Lins, R. J. Littlefield,
      A. J. Logsdail, K. Lopata, W. Ma, A. V. Marenich, J. Martin del Campo,
   D. Mejia-Rodriguez, J. E. Moore, J. M. Mullin, T. Nakajima, D. R. Nascimento,
    J. A. Nichols, P. J. Nichols, J. Nieplocha, A. Otero-de-la-Roza, B. Palmer,
    A. Panyala, T. Pirojsirikul, B. Peng, R. Peverati, J. Pittner, L. Pollack,
   R. M. Richard, P. Sadayappan, G. C. Schatz, W. A. Shelton, D. W. Silverstein,
   D. M. A. Smith, T. A. Soares, D. Song, M. Swart, H. L. Taylor, G. S. Thomas,
            V. Tipparaju, D. G. Truhlar, K. Tsemekhman, T. Van Voorhis,
      A. Vazquez-Mayagoitia, P. Verma, O. Villa, A. Vishnu, K. D. Vogiatzis,
        D. Wang, J. H. Weare, M. J. Williamson, T. L. Windus, K. Wolinski,
        A. T. Wong, Q. Wu, C. Yang, Q. Yu, M. Zacharias, Z. Zhang, Y. Zhao,
                                and R. J. Harrison
                        "NWChem: Past, present, and future
                         J. Chem. Phys. 152, 184102 (2020)
                               doi:10.1063/5.0004997

                                      AUTHORS
                                      -------
  E. Apra, E. J. Bylaska, N. Govind, K. Kowalski, M. Valiev, D. Mejia-Rodriguez,
       A. Kunitsa, N. P. Bauman, A. Panyala, W. A. de Jong, T. P. Straatsma,
   H. J. J. van Dam, D. Wang, T. L. Windus, J. Hammond, J. Autschbach, A. Woods,
    K. Bhaskaran-Nair, J. Brabec, K. Lopata, S. A. Fischer, S. Krishnamoorthy,
     M. Jacquelin, W. Ma, M. Klemm, O. Villa, Y. Chen, V. Anisimov, F. Aquino,
     S. Hirata, M. T. Hackler, E. Hermes, L. Jensen, J. E. Moore, J. C. Becca,
      V. Konjkov, T. Risthaus, M. Malagoli, A. Marenich, A. Otero-de-la-Roza,
        J. Mullin, P. Nichols, R. Peverati, J. Pittner, Y. Zhao, P.-D. Fan,
        A. Fonari, M. J. Williamson, R. J. Harrison, J. R. Rehr, M. Dupuis,
     D. Silverstein, D. M. A. Smith, J. Nieplocha, V. Tipparaju, M. Krishnan,
     B. E. Van Kuiken, A. Vazquez-Mayagoitia, M. Swart, Q. Wu, T. Van Voorhis,
     A. A. Auer, M. Nooijen, L. D. Crosby, E. Brown, G. Cisneros, G. I. Fann,
   H. Fruchtl, J. Garza, K. Hirao, R. A. Kendall, J. A. Nichols, K. Tsemekhman,
    K. Wolinski, J. Anchell, D. E. Bernholdt, P. Borowski, T. Clark, D. Clerc,
   H. Dachsel, M. J. O. Deegan, K. Dyall, D. Elwood, E. Glendening, M. Gutowski,
   A. C. Hess, J. Jaffe, B. G. Johnson, J. Ju, R. Kobayashi, R. Kutteh, Z. Lin,
   R. Littlefield, X. Long, B. Meng, T. Nakajima, S. Niu, L. Pollack, M. Rosing,
   K. Glaesemann, G. Sandrone, M. Stave, H. Taylor, G. Thomas, J. H. van Lenthe,
                               A. T. Wong, Z. Zhang.

 Total times  cpu:      276.3s     wall:      276.4s
