 argument  1 = H2-1.5.nw



============================== echo of input deck ==============================
title "swnc: e theory=pspw4 xc=hf formula=H2 charge=0 mult=1"
#machinejob:expert

echo

start pspw_hf_H2

memory heap 1200 mb stack 1200 mb global 10 mb

charge 0

geometry
H    0.00000    0.00000   -0.75000
H    0.00000    0.00000    0.75000
end

nwpw
  ### pseudopotential block begin ###
  ### pseudopotential block end   ###
  simulation_cell
     SC 15.0000
     boundary_conditions aperiodic
  end

  cutoff 50.0
  mult 1
  xc hf
  lmbfgs
  tolerances 1.0e-9 1.0e-9

  virtual 12
end
set nwpw:cif_filename H2

#set nwpw:CI_maxit_orb 15
#set nwpw:CI_maxit_linesearch 15
set pspw:HFX_screening_radius 14.0


set nwpw:2qintegrals .true.
#set nwpw:3x3_virtual .true.

task pspw energy

================================================================================


                                         
                                         


             Northwest Computational Chemistry Package (NWChem) 7.2.2
             --------------------------------------------------------


                    Environmental Molecular Sciences Laboratory
                       Pacific Northwest National Laboratory
                                Richland, WA 99352

                              Copyright (c) 1994-2022
                       Pacific Northwest National Laboratory
                            Battelle Memorial Institute

             NWChem is an open-source computational chemistry package
                        distributed under the terms of the
                      Educational Community License (ECL) 2.0
             A copy of the license is included with this distribution
                              in the LICENSE.TXT file

                                  ACKNOWLEDGMENT
                                  --------------

            This software and its documentation were developed at the
            EMSL at Pacific Northwest National Laboratory, a multiprogram
            national laboratory, operated for the U.S. Department of Energy
            by Battelle under Contract Number DE-AC05-76RL01830. Support
            for this work was provided by the Department of Energy Office
            of Biological and Environmental Research, Office of Basic
            Energy Sciences, and the Office of Advanced Scientific Computing.


           Job information
           ---------------

    hostname        = LAPTOP-JJQSTSEL
    program         = nwchem
    date            = Thu May  1 18:52:49 2025

    compiled        = Fri_Jun_07_07:50:04_2024
    source          = /home/conda/feedstock_root/build_artifacts/nwchem_1717738148552/work
    nwchem branch   = 7.2.2
    nwchem revision = 64ba0f0
    ga revision     = 5.8.0
    use scalapack   = T
    input           = H2-1.5.nw
    prefix          = pspw_hf_H2.
    data base       = ./pspw_hf_H2.db
    status          = startup
    nproc           =        1
    time left       =     -1s



           Memory information
           ------------------

    heap     =  157286400 doubles =   1200.0 Mbytes
    stack    =  157286397 doubles =   1200.0 Mbytes
    global   =    1310720 doubles =     10.0 Mbytes (distinct from heap & stack)
    total    =  315883517 doubles =   2410.0 Mbytes
    verify   = yes
    hardfail = no 


           Directory information
           ---------------------

  0 permanent = .
  0 scratch   = .




                                NWChem Input Module
                                -------------------


               swnc: e theory=pspw4 xc=hf formula=H2 charge=0 mult=1
               -----------------------------------------------------

 Scaling coordinates for geometry "geometry" by  1.889725989
 (inverse scale =  0.529177249)

 ORDER OF PRIMARY AXIS IS BEING SET TO 4
 D4H symmetry detected

          ------
          auto-z
          ------
     1 autoz failed with cvr_scaling = 1.2 changing to 1.3
     2 autoz failed with cvr_scaling = 1.3 changing to 1.4
     3 autoz failed with cvr_scaling = 1.4 changing to 1.5
     4 autoz failed with cvr_scaling = 1.5 changing to 1.6
     5 autoz failed with cvr_scaling = 1.6 changing to 1.7

 AUTOZ failed to generate good internal coordinates.
 Cartesian coordinates will be used in optimizations.



                             Geometry "geometry" -> ""
                             -------------------------

 Output coordinates in angstroms (scale by  1.889725989 to convert to a.u.)

  No.       Tag          Charge          X              Y              Z
 ---- ---------------- ---------- -------------- -------------- --------------
    1 H                    1.0000     0.00000000     0.00000000    -0.75000000
    2 H                    1.0000     0.00000000     0.00000000     0.75000000

      Atomic Mass 
      ----------- 

      H                  1.007825


 Effective nuclear repulsion energy (a.u.)       0.3527848327

            Nuclear Dipole moment (a.u.) 
            ----------------------------
        X                 Y               Z
 ---------------- ---------------- ----------------
     0.0000000000     0.0000000000     0.0000000000

      Symmetry information
      --------------------

 Group name             D4h       
 Group number             28
 Group order              16
 No. of unique centers     1

      Symmetry unique atoms

     1


            XYZ format geometry
            -------------------
     2
 geometry
 H                     0.00000000     0.00000000    -0.75000000
 H                     0.00000000     0.00000000     0.75000000

          ****************************************************
          *                                                  *
          *               NWPW PSPW Calculation              *
          *                                                  *
          * [ (Grassmann/Stiefel manifold implementation)  ] *
          *                                                  *
          *      [ NorthWest Chemistry implementation ]      *
          *                                                  *
          *            version #5.10   06/12/02              *
          *                                                  *
          *    This code was developed by Eric J. Bylaska,   *
          *    and was based upon algorithms and code        *
          *    developed by the group of Prof. John H. Weare *
          *                                                  *
          ****************************************************
     >>>  JOB STARTED       AT Thu May  1 18:52:49 2025  <<<
          ================ input data ========================

 input psi filename:./pspw_hf_H2.movecs

 number of processors used:         1
 processor grid           :   1 x   1
 parallel mapping         :2d-hilbert
 parallel mapping         :  balanced
 number of threads        :         1
 parallel io              :       off

 options:
      boundary conditions  = aperiodic   (version4)
      electron spin        = restricted
      exchange-correlation = Hartree-Fock
      - HFX relaxed
      - HFX restricted orbitals :    1
      - HFX free-space coulomb solver


 elements involved in the cluster:
      1: H   valence charge:  1.0000  lmax=  1
             comment    : Parameterized (Chem.Phys.Lett., vol 322, page 447) Hamman psp
             pseudpotential type            :   0
             highest angular component      :   1
             local potential used           :   1
             number of non-local projections:   1
             aperiodic cutoff radius        :  1.000
             cutoff =   0.800   0.800


 total charge:   0.000

 atomic composition:
     H   :    2

 number of electrons: spin up=     1 (   1 per task)  down=     1 (   1 per task) (Fourier space)
 number of orbitals : spin up=     1 (   1 per task)  down=     1 (   1 per task) (Fourier space)

 supercell:
      cell_name:  cell_default                                      
      lattice:    a1=<  15.000   0.000   0.000 >
                  a2=<   0.000  15.000   0.000 >
                  a3=<   0.000   0.000  15.000 >
      reciprocal: b1=<   0.419   0.000   0.000 >
                  b2=<   0.000   0.419   0.000 >
                  b3=<   0.000   0.000   0.419 >
      lattice:    a=      15.000 b=     15.000 c=      15.000
                  alpha=  90.000 beta=  90.000 gamma=  90.000
                  omega=      3375.0

      density cutoff=100.000  fft= 70x 70x 70(    80618 waves    80618 per task)
      wavefnc cutoff= 50.000  fft= 70x 70x 70(    28526 waves    28526 per task)

 technical parameters:
      time step=      5.80     fictitious mass=  400000.0
      tolerance=0.100E-08 (energy)   0.100E-08 (density)
      maximum iterations =      1000 (   10 inner    100 outer )





== Energy Calculation ==


          ============ Grassmann lmbfgs iteration ============
     >>>  ITERATION STARTED AT Thu May  1 18:52:54 2025  <<<
    iter.           Energy         DeltaE       DeltaRho 
    ------------------------------------------------------
      10   -0.1001040326E+01   -0.13048E-02    0.12052E-01
     -  10 steepest descent iterations performed
      20   -0.1004162930E+01   -0.48495E-04    0.39526E-04
      30   -0.1004256477E+01   -0.18504E-05    0.20899E-05
      40   -0.1004260865E+01   -0.59214E-07    0.46774E-07
      50   -0.1004261033E+01   -0.22456E-08    0.16575E-09
      60   -0.1004261037E+01   -0.95269E-09    0.15397E-10
  *** tolerance ok. iteration terminated
     >>>  ITERATION ENDED   AT Thu May  1 18:53:31 2025  <<<


==  Summary Of Results  ==

 number of electrons: spin up=    1.00000  down=    1.00000 (real space)

 total     energy    :  -0.1004261037E+01 (   -0.50213E+00/ion)
 total orbital energy:  -0.8821304008E+00 (   -0.88213E+00/electron)
 hartree   energy    :   0.9498309378E+00 (    0.94983E+00/electron)
 exc-corr  energy    :   0.0000000000E+00 (    0.00000E+00/electron)
 HF exchange energy  :  -0.4749154689E+00 (   -0.47492E+00/electron)
 ion-ion   energy    :   0.3527848327E+00 (    0.17639E+00/ion)

 kinetic (planewave) :   0.6931189026E+00 (    0.69312E+00/electron)
 V_local (planewave) :  -0.2351183154E+01 (   -0.23512E+01/electron)
 V_nl    (planewave) :  -0.1738970876E+00 (   -0.17390E+00/electron)
 V_Coul  (planewave) :   0.1899661876E+01 (    0.18997E+01/electron)
 V_xc.   (planewave) :   0.0000000000E+00 (    0.00000E+00/electron)
 K.S. HFX energy     :  -0.9498309378E+00 (   -0.94983E+00/electron)
 Virial Coefficient  :  -0.9023247862E+00

 orbital energies:
    -0.4410652E+00 ( -12.002eV)


== Virtual Orbital Calculation ==


 input epsi filename:./pspw_hf_H2.emovecs
     orbital   1 current e= 0.972E-02 (error=0.887E-09) iterations  66(  41 preconditioned, Ep,Sp= 20.0  200.0)
     orbital   2 current e= 0.212E-01 (error=0.970E-09) iterations  72(  54 preconditioned, Ep,Sp= 20.0  200.0)
     orbital   3 current e= 0.840E-01 (error=0.752E-09) iterations  54(  29 preconditioned, Ep,Sp= 20.0  200.0)
     orbital   4 current e= 0.840E-01 (error=0.967E-09) iterations  54(  31 preconditioned, Ep,Sp= 20.0  200.0)
     orbital   5 current e= 0.860E-01 (error=0.907E-09) iterations  80(  23 preconditioned, Ep,Sp= 20.0  200.0)
     orbital   6 current e= 0.881E-01 (error=0.796E-09) iterations  39(   4 preconditioned, Ep,Sp= 20.0  200.0)
     orbital   7 current e= 0.119E+00 (error=0.986E-09) iterations  87(  44 preconditioned, Ep,Sp= 20.0  200.0)
     orbital   8 current e= 0.112E+00 (error=0.903E-09) iterations  69(  45 preconditioned, Ep,Sp= 20.0  200.0)
     orbital   9 current e= 0.168E+00 (error=0.831E-09) iterations  97(  72 preconditioned, Ep,Sp= 20.0  200.0)
     orbital  10 current e= 0.173E+00 (error=0.863E-09) iterations  68(  31 preconditioned, Ep,Sp= 20.0  200.0)
     orbital  11 current e= 0.173E+00 (error=0.818E-09) iterations  55(  33 preconditioned, Ep,Sp= 20.0  200.0)
     orbital  12 current e= 0.232E+00 (error=0.923E-09) iterations 108(  56 preconditioned, Ep,Sp= 20.0  200.0)

 virtual orbital energies:
     0.2322157E+00 (   6.319eV)
     0.1732060E+00 (   4.713eV)
     0.1728435E+00 (   4.703eV)
     0.1675620E+00 (   4.560eV)
     0.1187399E+00 (   3.231eV)
     0.1121894E+00 (   3.053eV)
     0.8810395E-01 (   2.397eV)
     0.8601533E-01 (   2.341eV)
     0.8402599E-01 (   2.286eV)
     0.8402599E-01 (   2.286eV)
     0.2118748E-01 (   0.577eV)
     0.9723781E-02 (   0.265eV)


 == Generating One-Electron and Two-Electron Integrals ==

 begin_one_electron_integrals
    1    1        -0.9159806693
    2    1         0.0331147979
    3    1         0.0000073268
    4    1        -0.0000041711
    5    1         0.0000003121
    6    1         0.0052635551
    7    1        -0.0000000000
    8    1         0.0000472415
    9    1        -0.0391074063
   10    1        -0.0000034664
   11    1        -0.0036742520
   12    1         0.0000001622
   13    1        -0.0374578511
    2    2        -0.2610050486
    3    2         0.0000837582
    4    2         0.0000001530
    5    2        -0.0000000131
    6    2        -0.0036802641
    7    2         0.0000000000
    8    2        -0.0000403639
    9    2         0.0612097114
   10    2         0.0000008865
   11    2         0.0013219987
   12    2        -0.0000000602
   13    2         0.0328272990
    3    3        -0.5766847436
    4    3        -0.0000000349
    5    3        -0.0000000024
    6    3        -0.0000476571
    7    3         0.0000000001
    8    3        -0.1303296101
    9    3        -0.0001183123
   10    3         0.0000050368
   11    3         0.0000238242
   12    3         0.0000008654
   13    3         0.0001249686
    4    4        -0.2357727683
    5    4         0.0000000013
    6    4        -0.0000263367
    7    4        -0.0000020813
    8    4         0.0000007747
    9    4        -0.0000034013
   10    4        -0.0896272583
   11    4        -0.0000158225
   12    4         0.0000126306
   13    4         0.0000012940
    5    5        -0.2358118340
    6    5         0.0000019811
    7    5        -0.0000278523
    8    5        -0.0000000013
    9    5         0.0000002633
   10    5         0.0000000743
   11    5         0.0000051648
   12    5         0.0000141790
   13    5        -0.0000258084
    6    6        -0.1966231098
    7    6         0.0000000000
    8    6        -0.0000216580
    9    6         0.0018780875
   10    6        -0.0000538309
   11    6         0.0465214872
   12    6        -0.0000019950
   13    6         0.0007846555
    7    7        -0.1870139147
    8    7         0.0000000001
    9    7        -0.0000000000
   10    7        -0.0000036953
   11    7         0.0000000004
   12    7        -0.0000014642
   13    7        -0.0000000210
    8    8        -0.2013756455
    9    8        -0.0000467912
   10    8         0.0000054954
   11    8         0.0000185027
   12    8         0.0000002074
   13    8         0.0001914525
    9    9        -0.1551010324
   10    9        -0.0000038402
   11    9        -0.0014065736
   12    9         0.0000000621
   13    9        -0.0682240496
   10   10        -0.1755346548
   11   10         0.0000134394
   12   10         0.0000162531
   13   10        -0.0000035500
   11   11        -0.1059641637
   12   11        -0.0000015722
   13   11        -0.0004501358
   12   12        -0.1409364545
   13   12         0.0000000280
   13   13        -0.0410789143
 end_one_electron_integrals

 begin_two_electron_integrals
    1    1    1    1        0.4749154689
    1    1    2    1       -0.0331106467
    1    1    3    1       -0.0000073197
    1    1    4    1        0.0000041762
    1    1    5    1       -0.0000003125
    1    1    6    1       -0.0052738414
    1    1    7    1        0.0000000000
    1    1    8    1       -0.0000472493
    1    1    9    1        0.0391074839
    1    1   10    1        0.0000034641
    1    1   11    1        0.0036721919
    1    1   12    1       -0.0000001621
    1    1   13    1        0.0374508226
    1    1    2    2        0.1372712467
    1    1    3    2       -0.0000550182
    1    1    4    2        0.0000008299
    1    1    5    2       -0.0000000604
    1    1    6    2        0.0021759750
    1    1    7    2       -0.0000000000
    1    1    8    2        0.0000168931
    1    1    9    2       -0.0329786881
    1    1   10    2        0.0000007590
    1    1   11    2       -0.0009204041
    1    1   12    2        0.0000000424
    1    1   13    2       -0.0187879639
    1    1    3    3        0.3444341772
    1    1    4    3        0.0000000278
    1    1    5    3        0.0000000011
    1    1    6    3        0.0000227542
    1    1    7    3       -0.0000000001
    1    1    8    3        0.0850611325
    1    1    9    3        0.0000821593
    1    1   10    3       -0.0000034668
    1    1   11    3       -0.0000104585
    1    1   12    3       -0.0000006153
    1    1   13    3       -0.0000852035
    1    1    4    4        0.1619644791
    1    1    5    4       -0.0000000007
    1    1    6    4        0.0000134886
    1    1    7    4        0.0000010098
    1    1    8    4       -0.0000004040
    1    1    9    4        0.0000014184
    1    1   10    4        0.0477236654
    1    1   11    4        0.0000082802
    1    1   12    4       -0.0000065259
    1    1   13    4       -0.0000001630
    1    1    5    5        0.1619853098
    1    1    6    5       -0.0000010149
    1    1    7    5        0.0000135070
    1    1    8    5        0.0000000006
    1    1    9    5       -0.0000001105
    1    1   10    5       -0.0000000403
    1    1   11    5       -0.0000027399
    1    1   12    5       -0.0000075934
    1    1   13    5        0.0000137026
    1    1    6    6        0.1417097923
    1    1    7    6       -0.0000000000
    1    1    8    6        0.0000117244
    1    1    9    6       -0.0013657808
    1    1   10    6        0.0000277963
    1    1   11    6       -0.0236887199
    1    1   12    6        0.0000010166
    1    1   13    6       -0.0008020312
    1    1    7    7        0.1377043715
    1    1    8    7       -0.0000000001
    1    1    9    7        0.0000000000
    1    1   10    7        0.0000018364
    1    1   11    7       -0.0000000002
    1    1   12    7        0.0000007379
    1    1   13    7        0.0000000105
    1    1    8    8        0.1657169574
    1    1    9    8        0.0000256745
    1    1   10    8       -0.0000034664
    1    1   11    8       -0.0000095209
    1    1   12    8        0.0000000755
    1    1   13    8       -0.0001097196
    1    1    9    9        0.1399174149
    1    1   10    9        0.0000014489
    1    1   11    9        0.0010364283
    1    1   12    9       -0.0000000445
    1    1   13    9        0.0371450247
    1    1   10   10        0.1757741619
    1    1   11   10       -0.0000065600
    1    1   12   10       -0.0000089739
    1    1   13   10        0.0000022356
    1    1   11   11        0.1398872939
    1    1   12   11        0.0000008004
    1    1   13   11        0.0005510988
    1    1   12   12        0.1577142570
    1    1   13   12       -0.0000000274
    1    1   13   13        0.1397528752
    2    1    2    1        0.0038136636
    2    1    3    1       -0.0000297150
    2    1    4    1        0.0000018005
    2    1    5    1       -0.0000001328
    2    1    6    1        0.0006851135
    2    1    7    1       -0.0000000000
    2    1    8    1       -0.0000066032
    2    1    9    1       -0.0047468525
    2    1   10    1        0.0000024054
    2    1   11    1       -0.0005218702
    2    1   12    1        0.0000000246
    2    1   13    1       -0.0047429788
    2    1    2    2       -0.0009185328
    2    1    3    2       -0.0000015791
    2    1    4    2        0.0000096338
    2    1    5    2       -0.0000007130
    2    1    6    2        0.0000266459
    2    1    7    2        0.0000000000
    2    1    8    2        0.0000122905
    2    1    9    2        0.0012007639
    2    1   10    2        0.0000004227
    2    1   11    2        0.0000219625
    2    1   12    2        0.0000000180
    2    1   13    2        0.0011828329
    2    1    3    3       -0.0174845543
    2    1    4    3       -0.0000000010
    2    1    5    3       -0.0000000002
    2    1    6    3       -0.0000102570
    2    1    7    3        0.0000000000
    2    1    8    3       -0.0077127735
    2    1    9    3       -0.0000043400
    2    1   10    3        0.0000003885
    2    1   11    3        0.0000078399
    2    1   12    3       -0.0000054003
    2    1   13    3        0.0000112172
    2    1    4    4       -0.0017079163
    2    1    5    4       -0.0000000011
    2    1    6    4       -0.0000033121
    2    1    7    4       -0.0000003935
    2    1    8    4        0.0000000354
    2    1    9    4       -0.0000023315
    2    1   10    4       -0.0022284453
    2    1   11    4        0.0000009066
    2    1   12    4        0.0000162741
    2    1   13    4       -0.0000012180
    2    1    5    5       -0.0017089445
    2    1    6    5        0.0000002461
    2    1    7    5       -0.0000053104
    2    1    8    5       -0.0000000013
    2    1    9    5        0.0000001728
    2    1   10    5        0.0000000011
    2    1   11    5        0.0000000157
    2    1   12    5       -0.0000032889
    2    1   13    5       -0.0000005448
    2    1    6    6       -0.0005531665
    2    1    7    6        0.0000000000
    2    1    8    6       -0.0000002018
    2    1    9    6        0.0000171469
    2    1   10    6       -0.0000037781
    2    1   11    6        0.0004791477
    2    1   12    6        0.0000000100
    2    1   13    6        0.0000742064
    2    1    7    7       -0.0004997280
    2    1    8    7        0.0000000000
    2    1    9    7       -0.0000000000
    2    1   10    7       -0.0000005471
    2    1   11    7        0.0000000004
    2    1   12    7       -0.0000000207
    2    1   13    7       -0.0000000023
    2    1    8    8       -0.0038675172
    2    1    9    8       -0.0000016917
    2    1   10    8        0.0000002352
    2    1   11    8        0.0000039428
    2    1   12    8        0.0000087707
    2    1   13    8        0.0000067920
    2    1    9    9       -0.0016072108
    2    1   10    9       -0.0000076415
    2    1   11    9        0.0000261428
    2    1   12    9        0.0000000135
    2    1   13    9       -0.0016914355
    2    1   10   10       -0.0032811509
    2    1   11   10        0.0000033305
    2    1   12   10        0.0000014912
    2    1   13   10       -0.0000024442
    2    1   11   11       -0.0006591698
    2    1   12   11       -0.0000000202
    2    1   13   11        0.0000435650
    2    1   12   12       -0.0011511605
    2    1   13   12       -0.0000000023
    2    1   13   13       -0.0018337342
    3    1    3    1        0.0909961353
    3    1    4    1        0.0000000163
    3    1    5    1       -0.0000000002
    3    1    6    1       -0.0000018204
    3    1    7    1       -0.0000000000
    3    1    8    1        0.0397863300
    3    1    9    1        0.0000460443
    3    1   10    1       -0.0000019564
    3    1   11    1        0.0000029555
    3    1   12    1       -0.0000003569
    3    1   13    1       -0.0000454996
    3    1    2    2       -0.0002505146
    3    1    3    2        0.0018623057
    3    1    4    2        0.0000002157
    3    1    5    2       -0.0000000164
    3    1    6    2       -0.0002971560
    3    1    7    2        0.0000000001
    3    1    8    2       -0.0129387045
    3    1    9    2       -0.0000682858
    3    1   10    2        0.0000006227
    3    1   11    2        0.0000635573
    3    1   12    2       -0.0000013343
    3    1   13    2       -0.0000459019
    3    1    3    3       -0.0000068583
    3    1    4    3       -0.0000081630
    3    1    5    3        0.0000006116
    3    1    6    3        0.0114420696
    3    1    7    3       -0.0000000000
    3    1    8    3       -0.0000033075
    3    1    9    3       -0.0005329544
    3    1   10    3       -0.0000024569
    3    1   11    3       -0.0113794293
    3    1   12    3        0.0000004795
    3    1   13    3        0.0001533553
    3    1    4    4       -0.0001915564
    3    1    5    4       -0.0000000003
    3    1    6    4        0.0000001745
    3    1    7    4       -0.0000000014
    3    1    8    4       -0.0000016037
    3    1    9    4       -0.0000000779
    3    1   10    4        0.0001401473
    3    1   11    4       -0.0000008371
    3    1   12    4       -0.0186753359
    3    1   13    4        0.0000000291
    3    1    5    5       -0.0001914639
    3    1    6    5       -0.0000000132
    3    1    7    5       -0.0000000170
    3    1    8    5        0.0000001230
    3    1    9    5        0.0000000059
    3    1   10    5       -0.0000001712
    3    1   11    5        0.0000002099
    3    1   12    5        0.0043767497
    3    1   13    5        0.0000000445
    3    1    6    6       -0.0004416138
    3    1    7    6       -0.0000000003
    3    1    8    6        0.0014052933
    3    1    9    6        0.0000922339
    3    1   10    6        0.0000006536
    3    1   11    6        0.0002211971
    3    1   12    6       -0.0000139616
    3    1   13    6       -0.0000751865
    3    1    7    7       -0.0001819047
    3    1    8    7        0.0000000000
    3    1    9    7        0.0000000002
    3    1   10    7        0.0000000017
    3    1   11    7        0.0000003218
    3    1   12    7        0.0000018851
    3    1   13    7       -0.0000000089
    3    1    8    8       -0.0000116073
    3    1    9    8        0.0043642689
    3    1   10    8       -0.0000008158
    3    1   11    8       -0.0050147486
    3    1   12    8        0.0000002907
    3    1   13    8        0.0034384566
    3    1    9    9       -0.0002628802
    3    1   10    9       -0.0000009391
    3    1   11    9       -0.0002171650
    3    1   12    9       -0.0000003276
    3    1   13    9        0.0000379025
    3    1   10   10       -0.0002003888
    3    1   11   10       -0.0000003987
    3    1   12   10       -0.0072755752
    3    1   13   10       -0.0000003904
    3    1   11   11       -0.0003583379
    3    1   12   11        0.0000062423
    3    1   13   11       -0.0001386906
    3    1   12   12       -0.0000228180
    3    1   13   12       -0.0000000939
    3    1   13   13       -0.0003381151
    4    1    4    1        0.0041302014
    4    1    5    1        0.0000000000
    4    1    6    1        0.0000006105
    4    1    7    1       -0.0000000587
    4    1    8    1       -0.0000000440
    4    1    9    1       -0.0000004912
    4    1   10    1        0.0058253472
    4    1   11    1        0.0000007332
    4    1   12    1       -0.0000004100
    4    1   13    1        0.0000009584
    4    1    2    2        0.0001210477
    4    1    3    2        0.0000000353
    4    1    4    2        0.0051890091
    4    1    5    2       -0.0000000008
    4    1    6    2       -0.0000680368
    4    1    7    2       -0.0000090042
    4    1    8    2        0.0000000056
    4    1    9    2        0.0000322018
    4    1   10    2        0.0011384377
    4    1   11    2        0.0000112845
    4    1   12    2        0.0000040538
    4    1   13    2        0.0000343036
    4    1    3    3        0.0000068743
    4    1    4    3       -0.0000001837
    4    1    5    3       -0.0000000001
    4    1    6    3       -0.0000000194
    4    1    7    3       -0.0000000022
    4    1    8    3       -0.0000302110
    4    1    9    3       -0.0000000389
    4    1   10    3        0.0000004635
    4    1   11    3       -0.0000002471
    4    1   12    3       -0.0052277652
    4    1   13    3       -0.0000000002
    4    1    4    4        0.0000479706
    4    1    5    4       -0.0000032843
    4    1    6    4       -0.0011596562
    4    1    7    4       -0.0003361859
    4    1    8    4        0.0000054890
    4    1    9    4       -0.0028503793
    4    1   10    4       -0.0000468014
    4    1   11    4        0.0007614789
    4    1   12    4       -0.0000001077
    4    1   13    4       -0.0021835396
    4    1    5    5        0.0000453367
    4    1    6    5        0.0000000012
    4    1    7    5       -0.0022593218
    4    1    8    5        0.0000000000
    4    1    9    5       -0.0000000027
    4    1   10    5        0.0000040140
    4    1   11    5        0.0000000110
    4    1   12    5       -0.0000000410
    4    1   13    5       -0.0000000137
    4    1    6    6        0.0001133098
    4    1    7    6        0.0000037601
    4    1    8    6       -0.0000000278
    4    1    9    6        0.0000169713
    4    1   10    6       -0.0016315015
    4    1   11    6        0.0000690268
    4    1   12    6        0.0000088770
    4    1   13    6       -0.0000254691
    4    1    7    7        0.0001792864
    4    1    8    7       -0.0000000021
    4    1    9    7        0.0000020658
    4    1   10    7       -0.0005496137
    4    1   11    7       -0.0000064990
    4    1   12    7       -0.0000003022
    4    1   13    7       -0.0000048528
    4    1    8    8        0.0001475666
    4    1    9    8        0.0000000952
    4    1   10    8        0.0000037976
    4    1   11    8        0.0000002250
    4    1   12    8        0.0035587999
    4    1   13    8        0.0000001432
    4    1    9    9        0.0001380725
    4    1   10    9       -0.0043318927
    4    1   11    9       -0.0000475308
    4    1   12    9        0.0000049268
    4    1   13    9       -0.0000339236
    4    1   10   10        0.0000696713
    4    1   11   10        0.0018435729
    4    1   12   10       -0.0000001338
    4    1   13   10       -0.0029394337
    4    1   11   11        0.0001765563
    4    1   12   11        0.0000001356
    4    1   13   11       -0.0000288420
    4    1   12   12        0.0000505556
    4    1   13   12       -0.0000015804
    4    1   13   13        0.0001673502
    5    1    5    1        0.0041327951
    5    1    6    1       -0.0000000478
    5    1    7    1       -0.0000008142
    5    1    8    1       -0.0000000001
    5    1    9    1        0.0000000354
    5    1   10    1       -0.0000000050
    5    1   11    1       -0.0000003147
    5    1   12    1       -0.0000010049
    5    1   13    1        0.0000016007
    5    1    2    2       -0.0000089612
    5    1    3    2       -0.0000000026
    5    1    4    2       -0.0000000008
    5    1    5    2        0.0051904849
    5    1    6    2        0.0000050342
    5    1    7    2       -0.0001217088
    5    1    8    2       -0.0000000013
    5    1    9    2       -0.0000023839
    5    1   10    2        0.0000000027
    5    1   11    2       -0.0000008913
    5    1   12    2       -0.0000011367
    5    1   13    2       -0.0000022116
    5    1    3    3       -0.0000005087
    5    1    4    3       -0.0000000000
    5    1    5    3       -0.0000001842
    5    1    6    3        0.0000000014
    5    1    7    3       -0.0000000278
    5    1    8    3        0.0000022374
    5    1    9    3        0.0000000028
    5    1   10    3       -0.0000000485
    5    1   11    3        0.0000000539
    5    1   12    3        0.0012254838
    5    1   13    3        0.0000000038
    5    1    4    4       -0.0000096635
    5    1    5    4       -0.0000408244
    5    1    6    4        0.0000000012
    5    1    7    4       -0.0022593991
    5    1    8    4       -0.0000000001
    5    1    9    4       -0.0000000027
    5    1   10    4        0.0000111075
    5    1   11    4       -0.0000000038
    5    1   12    4       -0.0000000205
    5    1   13    4        0.0000000168
    5    1    5    5        0.0000027532
    5    1    6    5       -0.0011607740
    5    1    7    5        0.0003363671
    5    1    8    5        0.0000054900
    5    1    9    5       -0.0028521451
    5    1   10    5        0.0000520353
    5    1   11    5        0.0007621825
    5    1   12    5        0.0000000300
    5    1   13    5       -0.0021848248
    5    1    6    6       -0.0000083853
    5    1    7    6        0.0000508031
    5    1    8    6        0.0000000029
    5    1    9    6       -0.0000012553
    5    1   10    6       -0.0000000386
    5    1   11    6       -0.0000054846
    5    1   12    6        0.0000009846
    5    1   13    6        0.0000015422
    5    1    7    7       -0.0000132748
    5    1    8    7       -0.0000000613
    5    1    9    7        0.0000279276
    5    1   10    7       -0.0036938571
    5    1   11    7       -0.0000932030
    5    1   12    7       -0.0000048352
    5    1   13    7       -0.0000502327
    5    1    8    8       -0.0000109259
    5    1    9    8       -0.0000000043
    5    1   10    8        0.0000000327
    5    1   11    8       -0.0000000395
    5    1   12    8       -0.0008342068
    5    1   13    8       -0.0000000102
    5    1    9    9       -0.0000102210
    5    1   10    9        0.0000000058
    5    1   11    9        0.0000036979
    5    1   12    9       -0.0000002415
    5    1   13    9        0.0000012726
    5    1   10   10       -0.0000150364
    5    1   11   10        0.0000000054
    5    1   12   10       -0.0000000973
    5    1   13   10       -0.0000000211
    5    1   11   11       -0.0000132806
    5    1   12   11       -0.0000001827
    5    1   13   11        0.0000027868
    5    1   12   12        0.0000107299
    5    1   13   12        0.0000010265
    5    1   13   13       -0.0000140677
    6    1    6    1        0.0007811415
    6    1    7    1        0.0000000000
    6    1    8    1        0.0000019558
    6    1    9    1       -0.0008555558
    6    1   10    1        0.0000017634
    6    1   11    1       -0.0008442265
    6    1   12    1        0.0000000377
    6    1   13    1       -0.0008304319
    6    1    2    2       -0.0001562786
    6    1    3    2       -0.0000091197
    6    1    4    2       -0.0000047359
    6    1    5    2        0.0000003478
    6    1    6    2        0.0015853058
    6    1    7    2        0.0000000001
    6    1    8    2        0.0000115484
    6    1    9    2        0.0002100950
    6    1   10    2       -0.0000000092
    6    1   11    2       -0.0006499098
    6    1   12    2        0.0000000435
    6    1   13    2        0.0002168754
    6    1    3    3        0.0002358426
    6    1    4    3       -0.0000000021
    6    1    5    3        0.0000000001
    6    1    6    3       -0.0000080406
    6    1    7    3       -0.0000000000
    6    1    8    3       -0.0001092285
    6    1    9    3        0.0000062294
    6    1   10    3        0.0000000570
    6    1   11    3        0.0000057899
    6    1   12    3        0.0000001489
    6    1   13    3        0.0000051005
    6    1    4    4       -0.0005993863
    6    1    5    4        0.0000000015
    6    1    6    4        0.0000011707
    6    1    7    4        0.0000001293
    6    1    8    4        0.0000000155
    6    1    9    4        0.0000010578
    6    1   10    4       -0.0010139422
    6    1   11    4        0.0000000893
    6    1   12    4        0.0000184538
    6    1   13    4       -0.0000000080
    6    1    5    5       -0.0006000596
    6    1    6    5       -0.0000000848
    6    1    7    5        0.0000017255
    6    1    8    5       -0.0000000006
    6    1    9    5       -0.0000000771
    6    1   10    5       -0.0000000135
    6    1   11    5       -0.0000001186
    6    1   12    5       -0.0000031719
    6    1   13    5       -0.0000002460
    6    1    6    6        0.0005871461
    6    1    7    6       -0.0000000000
    6    1    8    6        0.0000034682
    6    1    9    6       -0.0012962606
    6    1   10    6       -0.0000003556
    6    1   11    6       -0.0013006375
    6    1   12    6        0.0000000688
    6    1   13    6       -0.0004461975
    6    1    7    7       -0.0006271725
    6    1    8    7        0.0000000000
    6    1    9    7       -0.0000000000
    6    1   10    7        0.0000001479
    6    1   11    7       -0.0000000007
    6    1   12    7       -0.0000000518
    6    1   13    7        0.0000000004
    6    1    8    8       -0.0006052994
    6    1    9    8        0.0000023836
    6    1   10    8        0.0000000017
    6    1   11    8        0.0000010714
    6    1   12    8       -0.0000039127
    6    1   13    8        0.0000024424
    6    1    9    9       -0.0003285574
    6    1   10    9        0.0000029569
    6    1   11    9        0.0013218932
    6    1   12    9       -0.0000000615
    6    1   13    9       -0.0003257329
    6    1   10   10       -0.0014381717
    6    1   11   10       -0.0000008337
    6    1   12   10       -0.0000013968
    6    1   13   10        0.0000003309
    6    1   11   11        0.0006973832
    6    1   12   11       -0.0000000402
    6    1   13   11        0.0012727897
    6    1   12   12       -0.0000301285
    6    1   13   12       -0.0000000527
    6    1   13   13       -0.0004044086
    7    1    7    1        0.0002908780
    7    1    8    1       -0.0000000000
    7    1    9    1        0.0000000000
    7    1   10    1       -0.0000000217
    7    1   11    1        0.0000000000
    7    1   12    1        0.0000000113
    7    1   13    1       -0.0000000000
    7    1    2    2        0.0000000000
    7    1    3    2        0.0000000000
    7    1    4    2       -0.0000007948
    7    1    5    2       -0.0000107601
    7    1    6    2       -0.0000000000
    7    1    7    2        0.0011864932
    7    1    8    2        0.0000000000
    7    1    9    2        0.0000000000
    7    1   10    2       -0.0000000542
    7    1   11    2        0.0000000001
    7    1   12    2        0.0000000191
    7    1   13    2       -0.0000000001
    7    1    3    3        0.0000000000
    7    1    4    3        0.0000000004
    7    1    5    3        0.0000000057
    7    1    6    3       -0.0000000000
    7    1    7    3       -0.0000000864
    7    1    8    3       -0.0000000000
    7    1    9    3        0.0000000000
    7    1   10    3        0.0000000001
    7    1   11    3        0.0000000178
    7    1   12    3       -0.0000006555
    7    1   13    3       -0.0000000005
    7    1    4    4       -0.0000611005
    7    1    5    4       -0.0004106870
    7    1    6    4        0.0000001847
    7    1    7    4        0.0000055887
    7    1    8    4       -0.0000000001
    7    1    9    4        0.0000001881
    7    1   10    4       -0.0001543834
    7    1   11    4        0.0000000073
    7    1   12    4       -0.0000000794
    7    1   13    4       -0.0000002793
    7    1    5    5        0.0000611504
    7    1    6    5        0.0000024976
    7    1    7    5       -0.0000004151
    7    1    8    5       -0.0000000107
    7    1    9    5        0.0000025527
    7    1   10    5       -0.0010375127
    7    1   11    5       -0.0000013691
    7    1   12    5       -0.0000012095
    7    1   13    5        0.0000005342
    7    1    6    6        0.0000000000
    7    1    7    6       -0.0003584504
    7    1    8    6        0.0000000000
    7    1    9    6        0.0000000000
    7    1   10    6        0.0000001490
    7    1   11    6        0.0000000008
    7    1   12    6       -0.0000000399
    7    1   13    6        0.0000000002
    7    1    7    7        0.0000000001
    7    1    8    7        0.0000020271
    7    1    9    7       -0.0008896374
    7    1   10    7        0.0000061148
    7    1   11    7        0.0009457980
    7    1   12    7       -0.0000000233
    7    1   13    7       -0.0001999621
    7    1    8    8        0.0000000001
    7    1    9    8       -0.0000000000
    7    1   10    8        0.0000000009
    7    1   11    8       -0.0000000264
    7    1   12    8        0.0000014907
    7    1   13    8        0.0000000007
    7    1    9    9        0.0000000001
    7    1   10    9        0.0000005811
    7    1   11    9       -0.0000000004
    7    1   12    9       -0.0000000358
    7    1   13    9        0.0000000021
    7    1   10   10       -0.0001393203
    7    1   11   10       -0.0000001809
    7    1   12   10        0.0000002119
    7    1   13   10       -0.0000001274
    7    1   11   11        0.0000000011
    7    1   12   11        0.0000000233
    7    1   13   11       -0.0000000010
    7    1   12   12        0.0001034163
    7    1   13   12       -0.0000000357
    7    1   13   13        0.0000000008
    8    1    8    1        0.0178688229
    8    1    9    1        0.0000132965
    8    1   10    1       -0.0000009778
    8    1   11    1       -0.0000008561
    8    1   12    1        0.0000003059
    8    1   13    1       -0.0000277751
    8    1    2    2       -0.0000683317
    8    1    3    2       -0.0007603336
    8    1    4    2        0.0000000616
    8    1    5    2       -0.0000000084
    8    1    6    2       -0.0000830166
    8    1    7    2        0.0000000001
    8    1    8    2       -0.0040278191
    8    1    9    2       -0.0000145913
    8    1   10    2        0.0000001741
    8    1   11    2        0.0000216212
    8    1   12    2        0.0000032419
    8    1   13    2       -0.0000097502
    8    1    3    3       -0.0000248208
    8    1    4    3       -0.0000046071
    8    1    5    3        0.0000003441
    8    1    6    3        0.0039934147
    8    1    7    3       -0.0000000000
    8    1    8    3       -0.0000126714
    8    1    9    3        0.0011828302
    8    1   10    3       -0.0000015811
    8    1   11    3       -0.0043087601
    8    1   12    3        0.0000002368
    8    1   13    3        0.0012581580
    8    1    4    4       -0.0000538690
    8    1    5    4       -0.0000000001
    8    1    6    4        0.0000001088
    8    1    7    4        0.0000000019
    8    1    8    4        0.0000026585
    8    1    9    4        0.0000000395
    8    1   10    4        0.0000344342
    8    1   11    4       -0.0000002505
    8    1   12    4       -0.0054852204
    8    1   13    4        0.0000000414
    8    1    5    5       -0.0000538455
    8    1    6    5       -0.0000000071
    8    1    7    5       -0.0000000010
    8    1    8    5       -0.0000001956
    8    1    9    5       -0.0000000005
    8    1   10    5       -0.0000000504
    8    1   11    5        0.0000000612
    8    1   12    5        0.0012855500
    8    1   13    5        0.0000000107
    8    1    6    6       -0.0001255081
    8    1    7    6       -0.0000000001
    8    1    8    6        0.0005051891
    8    1    9    6        0.0000292181
    8    1   10    6        0.0000001746
    8    1   11    6        0.0000670237
    8    1   12    6       -0.0000041121
    8    1   13    6       -0.0000182729
    8    1    7    7       -0.0000485506
    8    1    8    7        0.0000000000
    8    1    9    7        0.0000000000
    8    1   10    7        0.0000000056
    8    1   11    7        0.0000000824
    8    1   12    7        0.0000008775
    8    1   13    7       -0.0000000022
    8    1    8    8       -0.0000104352
    8    1    9    8        0.0021252138
    8    1   10    8       -0.0000006851
    8    1   11    8       -0.0016922002
    8    1   12    8        0.0000000708
    8    1   13    8        0.0018170880
    8    1    9    9       -0.0000695615
    8    1   10    9       -0.0000003237
    8    1   11    9       -0.0000618609
    8    1   12    9       -0.0000003101
    8    1   13    9        0.0000053539
    8    1   10   10       -0.0000556926
    8    1   11   10       -0.0000001917
    8    1   12   10       -0.0027672511
    8    1   13   10       -0.0000001286
    8    1   11   11       -0.0001035505
    8    1   12   11        0.0000026276
    8    1   13   11       -0.0000386403
    8    1   12   12       -0.0000081945
    8    1   13   12       -0.0000001206
    8    1   13   13       -0.0000940634
    9    1    9    1        0.0059939210
    9    1   10    1       -0.0000009371
    9    1   11    1        0.0006607300
    9    1   12    1       -0.0000000266
    9    1   13    1        0.0060637373
    9    1    2    2        0.0008586134
    9    1    3    2       -0.0000028107
    9    1    4    2       -0.0000035734
    9    1    5    2        0.0000002640
    9    1    6    2       -0.0000055173
    9    1    7    2        0.0000000000
    9    1    8    2       -0.0000087237
    9    1    9    2       -0.0010717450
    9    1   10    2       -0.0000013965
    9    1   11    2       -0.0000174749
    9    1   12    2        0.0000000233
    9    1   13    2       -0.0012046132
    9    1    3    3        0.0195181158
    9    1    4    3       -0.0000000152
    9    1    5    3        0.0000000014
    9    1    6    3        0.0000099368
    9    1    7    3       -0.0000000000
    9    1    8    3        0.0089414860
    9    1    9    3        0.0000082470
    9    1   10    3       -0.0000004746
    9    1   11    3       -0.0000088579
    9    1   12    3        0.0000022389
    9    1   13    3       -0.0000110821
    9    1    4    4        0.0014195563
    9    1    5    4       -0.0000000016
    9    1    6    4        0.0000023240
    9    1    7    4        0.0000002373
    9    1    8    4        0.0000000013
    9    1    9    4        0.0000020865
    9    1   10    4        0.0019847593
    9    1   11    4       -0.0000010002
    9    1   12    4       -0.0000116207
    9    1   13    4        0.0000009356
    9    1    5    5        0.0014204437
    9    1    6    5       -0.0000001729
    9    1    7    5        0.0000031973
    9    1    8    5       -0.0000000013
    9    1    9    5       -0.0000001544
    9    1   10    5       -0.0000000001
    9    1   11    5        0.0000000007
    9    1   12    5        0.0000022539
    9    1   13    5        0.0000004964
    9    1    6    6        0.0002147624
    9    1    7    6       -0.0000000000
    9    1    8    6        0.0000009274
    9    1    9    6       -0.0000368625
    9    1   10    6        0.0000028496
    9    1   11    6       -0.0001784842
    9    1   12    6       -0.0000000023
    9    1   13    6       -0.0000887127
    9    1    7    7        0.0002182878
    9    1    8    7       -0.0000000000
    9    1    9    7       -0.0000000000
    9    1   10    7        0.0000003240
    9    1   11    7       -0.0000000001
    9    1   12    7        0.0000000116
    9    1   13    7        0.0000000013
    9    1    8    8        0.0044020059
    9    1    9    8        0.0000050630
    9    1   10    8       -0.0000002710
    9    1   11    8       -0.0000033035
    9    1   12    8       -0.0000030857
    9    1   13    8       -0.0000058293
    9    1    9    9        0.0015699302
    9    1   10    9        0.0000031368
    9    1   11    9       -0.0000130311
    9    1   12    9       -0.0000000008
    9    1   13    9        0.0016491574
    9    1   10   10        0.0030922674
    9    1   11   10       -0.0000022457
    9    1   12   10       -0.0000038151
    9    1   13   10        0.0000019378
    9    1   11   11        0.0003046430
    9    1   12   11        0.0000000303
    9    1   13   11       -0.0000160072
    9    1   12   12        0.0008492497
    9    1   13   12        0.0000000001
    9    1   13   13        0.0018872122
   10    1   10    1        0.0084517060
   10    1   11    1        0.0000001916
   10    1   12    1       -0.0000014523
   10    1   13    1        0.0000008714
   10    1    2    2        0.0001378753
   10    1    3    2        0.0000001718
   10    1    4    2        0.0057961606
   10    1    5    2        0.0000000003
   10    1    6    2       -0.0000785449
   10    1    7    2       -0.0000104686
   10    1    8    2        0.0000000663
   10    1    9    2        0.0000299411
   10    1   10    2        0.0017940364
   10    1   11    2        0.0000160124
   10    1   12    2       -0.0000000541
   10    1   13    2        0.0000392896
   10    1    3    3        0.0000089174
   10    1    4    3        0.0000024862
   10    1    5    3       -0.0000000233
   10    1    6    3       -0.0000001543
   10    1    7    3       -0.0000000043
   10    1    8    3       -0.0000343832
   10    1    9    3       -0.0000001756
   10    1   10    3        0.0000013386
   10    1   11    3       -0.0000001366
   10    1   12    3       -0.0064909099
   10    1   13    3       -0.0000001259
   10    1    4    4        0.0000498572
   10    1    5    4       -0.0000029498
   10    1    6    4       -0.0016541626
   10    1    7    4       -0.0004556710
   10    1    8    4        0.0000030367
   10    1    9    4       -0.0036310982
   10    1   10    4       -0.0000519341
   10    1   11    4        0.0012011136
   10    1   12    4       -0.0000000062
   10    1   13    4       -0.0029015942
   10    1    5    5        0.0000573307
   10    1    6    5       -0.0000000093
   10    1    7    5       -0.0030623700
   10    1    8    5        0.0000000099
   10    1    9    5        0.0000000049
   10    1   10    5        0.0000043114
   10    1   11    5        0.0000000093
   10    1   12    5       -0.0000000983
   10    1   13    5       -0.0000000121
   10    1    6    6        0.0001302267
   10    1    7    6        0.0000046090
   10    1    8    6       -0.0000000367
   10    1    9    6        0.0000221414
   10    1   10    6       -0.0022222190
   10    1   11    6        0.0000733754
   10    1   12    6        0.0000073562
   10    1   13    6       -0.0000283162
   10    1    7    7        0.0002104761
   10    1    8    7        0.0000000047
   10    1    9    7        0.0000027816
   10    1   10    7       -0.0006877552
   10    1   11    7       -0.0000076676
   10    1   12    7       -0.0000002889
   10    1   13    7       -0.0000055102
   10    1    8    8        0.0001670936
   10    1    9    8       -0.0000000774
   10    1   10    8        0.0000064989
   10    1   11    8        0.0000002716
   10    1   12    8        0.0036839323
   10    1   13    8        0.0000000328
   10    1    9    9        0.0001536367
   10    1   10    9       -0.0052721074
   10    1   11    9       -0.0000555418
   10    1   12    9        0.0000055215
   10    1   13    9       -0.0000336005
   10    1   10   10        0.0000750563
   10    1   11   10        0.0026036626
   10    1   12   10       -0.0000000089
   10    1   13   10       -0.0039065111
   10    1   11   11        0.0002011138
   10    1   12   11        0.0000003397
   10    1   13   11       -0.0000324745
   10    1   12   12        0.0000524045
   10    1   13   12       -0.0000014051
   10    1   13   13        0.0001847495
   11    1   11    1        0.0009669290
   11    1   12    1        0.0000000173
   11    1   13    1        0.0006374581
   11    1    2    2        0.0001098833
   11    1    3    2        0.0000071510
   11    1    4    2        0.0000044687
   11    1    5    2       -0.0000006012
   11    1    6    2       -0.0013717811
   11    1    7    2        0.0000000066
   11    1    8    2       -0.0000072110
   11    1    9    2       -0.0001298289
   11    1   10    2        0.0000010413
   11    1   11    2        0.0008806474
   11    1   12    2        0.0000000728
   11    1   13    2       -0.0001409604
   11    1    3    3       -0.0017198256
   11    1    4    3       -0.0000001217
   11    1    5    3        0.0000000265
   11    1    6    3        0.0000065381
   11    1    7    3        0.0000000108
   11    1    8    3       -0.0005639264
   11    1    9    3       -0.0000059506
   11    1   10    3       -0.0000001293
   11    1   11    3       -0.0000052675
   11    1   12    3       -0.0000013380
   11    1   13    3       -0.0000039446
   11    1    4    4        0.0005242344
   11    1    5    4        0.0000000049
   11    1    6    4        0.0000003660
   11    1    7    4       -0.0000000322
   11    1    8    4        0.0000000561
   11    1    9    4       -0.0000020847
   11    1   10    4        0.0009326705
   11    1   11    4        0.0000013240
   11    1   12    4       -0.0000133731
   11    1   13    4       -0.0000010266
   11    1    5    5        0.0005248863
   11    1    6    5       -0.0000000291
   11    1    7    5       -0.0000027809
   11    1    8    5       -0.0000000125
   11    1    9    5        0.0000003181
   11    1   10    5        0.0000000078
   11    1   11    5       -0.0000000460
   11    1   12    5        0.0000021658
   11    1   13    5        0.0000004350
   11    1    6    6       -0.0008452742
   11    1    7    6       -0.0000000026
   11    1    8    6       -0.0000029373
   11    1    9    6        0.0013234204
   11    1   10    6       -0.0000003172
   11    1   11    6        0.0012807113
   11    1   12    6       -0.0000000338
   11    1   13    6        0.0006853997
   11    1    7    7        0.0007816643
   11    1    8    7       -0.0000000145
   11    1    9    7       -0.0000000016
   11    1   10    7        0.0000000309
   11    1   11    7        0.0000000061
   11    1   12    7        0.0000000589
   11    1   13    7        0.0000000022
   11    1    8    8        0.0002636293
   11    1    9    8       -0.0000011440
   11    1   10    8       -0.0000000304
   11    1   11    8        0.0000000824
   11    1   12    8        0.0000032522
   11    1   13    8       -0.0000013897
   11    1    9    9        0.0002298915
   11    1   10    9       -0.0000031488
   11    1   11    9       -0.0013895501
   11    1   12    9        0.0000000143
   11    1   13    9        0.0002312284
   11    1   10   10        0.0014284928
   11    1   11   10        0.0000009969
   11    1   12   10       -0.0000001316
   11    1   13   10       -0.0000010902
   11    1   11   11       -0.0009527632
   11    1   12   11        0.0000000470
   11    1   13   11       -0.0011642652
   11    1   12   12       -0.0000021866
   11    1   13   12        0.0000000100
   11    1   13   13        0.0003181618
   12    1   12    1        0.0012860589
   12    1   13    1       -0.0000000266
   12    1    2    2        0.0000003995
   12    1    3    2       -0.0000062677
   12    1    4    2        0.0000175826
   12    1    5    2       -0.0000051470
   12    1    6    2        0.0000003042
   12    1    7    2        0.0000001182
   12    1    8    2        0.0000284515
   12    1    9    2        0.0000005928
   12    1   10    2       -0.0000120706
   12    1   11    2        0.0000003875
   12    1   12    2        0.0021335091
   12    1   13    2        0.0000000722
   12    1    3    3        0.0000000648
   12    1    4    3       -0.0024980871
   12    1    5    3        0.0005855407
   12    1    6    3       -0.0000001226
   12    1    7    3       -0.0000009613
   12    1    8    3        0.0000000581
   12    1    9    3       -0.0000013035
   12    1   10    3       -0.0022934786
   12    1   11    3       -0.0000023013
   12    1   12    3       -0.0000010611
   12    1   13    3       -0.0000023573
   12    1    4    4        0.0000000824
   12    1    5    4        0.0000000169
   12    1    6    4        0.0000206951
   12    1    7    4        0.0000008320
   12    1    8    4        0.0010650796
   12    1    9    4        0.0000073506
   12    1   10    4       -0.0000003621
   12    1   11    4       -0.0000021646
   12    1   12    4        0.0000100789
   12    1   13    4        0.0000040535
   12    1    5    5        0.0000000921
   12    1    6    5       -0.0000040755
   12    1    7    5       -0.0000057481
   12    1    8    5       -0.0002495755
   12    1    9    5       -0.0000010414
   12    1   10    5       -0.0000000738
   12    1   11    5        0.0000001979
   12    1   12    5       -0.0000007331
   12    1   13    5       -0.0000003853
   12    1    6    6        0.0000002070
   12    1    7    6        0.0000000119
   12    1    8    6       -0.0000092131
   12    1    9    6        0.0000001098
   12    1   10    6       -0.0000085499
   12    1   11    6        0.0000001729
   12    1   12    6        0.0005575544
   12    1   13    6        0.0000002709
   12    1    7    7        0.0000005013
   12    1    8    7        0.0000045604
   12    1    9    7        0.0000000206
   12    1   10    7        0.0000010645
   12    1   11    7        0.0000001279
   12    1   12    7        0.0002651509
   12    1   13    7        0.0000000702
   12    1    8    8       -0.0000000547
   12    1    9    8        0.0000128917
   12    1   10    8       -0.0005089734
   12    1   11    8        0.0000078126
   12    1   12    8        0.0000013289
   12    1   13    8        0.0000068178
   12    1    9    9        0.0000010118
   12    1   10    9       -0.0000127057
   12    1   11    9        0.0000003135
   12    1   12    9       -0.0011506777
   12    1   13    9       -0.0000005172
   12    1   10   10        0.0000004226
   12    1   11   10       -0.0000044201
   12    1   12   10       -0.0000127500
   12    1   13   10        0.0000024421
   12    1   11   11        0.0000003906
   12    1   12   11       -0.0000725647
   12    1   13   11        0.0000004243
   12    1   12   12       -0.0000000108
   12    1   13   12       -0.0009080475
   12    1   13   13        0.0000013968
   13    1   13    1        0.0062111378
   13    1    2    2        0.0007040050
   13    1    3    2       -0.0000023085
   13    1    4    2        0.0000021219
   13    1    5    2        0.0000015093
   13    1    6    2        0.0000638396
   13    1    7    2       -0.0000000405
   13    1    8    2        0.0000035740
   13    1    9    2       -0.0009216098
   13    1   10    2       -0.0000003440
   13    1   11    2       -0.0000402349
   13    1   12    2        0.0000000162
   13    1   13    2       -0.0009883300
   13    1    3    3        0.0178331624
   13    1    4    3       -0.0000000022
   13    1    5    3        0.0000000028
   13    1    6    3       -0.0000009082
   13    1    7    3       -0.0000000003
   13    1    8    3        0.0084169925
   13    1    9    3        0.0000056283
   13    1   10    3       -0.0000004565
   13    1   11    3        0.0000018012
   13    1   12    3       -0.0000006909
   13    1   13    3       -0.0000137517
   13    1    4    4        0.0009096410
   13    1    5    4       -0.0000000142
   13    1    6    4        0.0000004043
   13    1    7    4       -0.0000009089
   13    1    8    4       -0.0000000006
   13    1    9    4       -0.0000000119
   13    1   10    4        0.0014242951
   13    1   11    4       -0.0000003818
   13    1   12    4        0.0000045455
   13    1   13    4        0.0000004880
   13    1    5    5        0.0009102833
   13    1    6    5       -0.0000004849
   13    1    7    5       -0.0000001518
   13    1    8    5       -0.0000000006
   13    1    9    5       -0.0000010418
   13    1   10    5        0.0000000157
   13    1   11    5        0.0000003118
   13    1   12    5       -0.0000013774
   13    1   13    5       -0.0000004613
   13    1    6    6        0.0000698675
   13    1    7    6        0.0000000177
   13    1    8    6        0.0000005375
   13    1    9    6       -0.0000924298
   13    1   10    6        0.0000009345
   13    1   11    6       -0.0000249111
   13    1   12    6        0.0000000145
   13    1   13    6       -0.0001109410
   13    1    7    7        0.0000707388
   13    1    8    7        0.0000000004
   13    1    9    7        0.0000000106
   13    1   10    7       -0.0000013212
   13    1   11    7       -0.0000000315
   13    1   12    7        0.0000000004
   13    1   13    7       -0.0000000161
   13    1    8    8        0.0040657154
   13    1    9    8        0.0000005942
   13    1   10    8       -0.0000002419
   13    1   11    8        0.0000011429
   13    1   12    8        0.0000016951
   13    1   13    8       -0.0000087756
   13    1    9    9        0.0012668078
   13    1   10    9       -0.0000010082
   13    1   11    9        0.0000480165
   13    1   12    9       -0.0000000015
   13    1   13    9        0.0014238951
   13    1   10   10        0.0022621384
   13    1   11   10       -0.0000001293
   13    1   12   10        0.0000016044
   13    1   13   10        0.0000000111
   13    1   11   11        0.0001362909
   13    1   12   11        0.0000000158
   13    1   13   11        0.0000567782
   13    1   12   12        0.0004217759
   13    1   13   12        0.0000000002
   13    1   13   13        0.0016334689
    2    2    2    2        0.1173827433
    2    2    3    2       -0.0002368658
    2    2    4    2        0.0006484299
    2    2    5    2       -0.0000479897
    2    2    6    2        0.0003585343
    2    2    7    2        0.0000000002
    2    2    8    2        0.0004354173
    2    2    9    2       -0.0084211802
    2    2   10    2       -0.0000707726
    2    2   11    2        0.0000409593
    2    2   12    2        0.0000042862
    2    2   13    2       -0.0017076489
    2    2    3    3        0.1337870036
    2    2    4    3       -0.0000015276
    2    2    5    3        0.0000001132
    2    2    6    3       -0.0001926177
    2    2    7    3        0.0000000000
    2    2    8    3        0.0043896776
    2    2    9    3        0.0001201937
    2    2   10    3       -0.0000002886
    2    2   11    3        0.0001123922
    2    2   12    3       -0.0003293144
    2    2   13    3        0.0000714132
    2    2    4    4        0.1230024571
    2    2    5    4       -0.0000003762
    2    2    6    4       -0.0001331196
    2    2    7    4       -0.0000180124
    2    2    8    4        0.0000036188
    2    2    9    4       -0.0000555074
    2    2   10    4        0.0076984436
    2    2   11    4        0.0000278989
    2    2   12    4        0.0004912496
    2    2   13    4       -0.0000506858
    2    2    5    5        0.1230007044
    2    2    6    5        0.0000098542
    2    2    7    5       -0.0002434447
    2    2    8    5       -0.0000002727
    2    2    9    5        0.0000041150
    2    2   10    5        0.0000001326
    2    2   11    5       -0.0000024173
    2    2   12    5       -0.0001165635
    2    2   13    5        0.0000059620
    2    2    6    6        0.1192641452
    2    2    7    6        0.0000000001
    2    2    8    6        0.0000350959
    2    2    9    6        0.0000612456
    2    2   10    6       -0.0001070880
    2    2   11    6       -0.0056744070
    2    2   12    6        0.0000024192
    2    2   13    6        0.0000804764
    2    2    7    7        0.1187159478
    2    2    8    7        0.0000000002
    2    2    9    7       -0.0000000000
    2    2   10    7       -0.0000254616
    2    2   11    7        0.0000000346
    2    2   12    7        0.0000003458
    2    2   13    7       -0.0000001061
    2    2    8    8        0.1188638384
    2    2    9    8        0.0001416555
    2    2   10    8       -0.0000016970
    2    2   11    8        0.0001013559
    2    2   12    8        0.0005991445
    2    2   13    8        0.0000182620
    2    2    9    9        0.1132608835
    2    2   10    9       -0.0005029573
    2    2   11    9        0.0000399074
    2    2   12    9        0.0000016256
    2    2   13    9        0.0084752706
    2    2   10   10        0.1206346166
    2    2   11   10        0.0001435822
    2    2   12   10       -0.0000957340
    2    2   13   10       -0.0000769899
    2    2   11   11        0.1171718868
    2    2   12   11        0.0000010202
    2    2   13   11        0.0000270386
    2    2   12   12        0.1241830223
    2    2   13   12       -0.0000002148
    2    2   13   13        0.1123574918
    3    2    3    2        0.0063609643
    3    2    4    2       -0.0000004660
    3    2    5    2        0.0000000340
    3    2    6    2       -0.0002562067
    3    2    7    2        0.0000000001
    3    2    8    2       -0.0086706155
    3    2    9    2       -0.0000825994
    3    2   10    2        0.0000008861
    3    2   11    2        0.0000260773
    3    2   12    2       -0.0000562264
    3    2   13    2       -0.0000462779
    3    2    3    3       -0.0000409273
    3    2    4    3        0.0000221968
    3    2    5    3       -0.0000016401
    3    2    6    3        0.0043713082
    3    2    7    3        0.0000000000
    3    2    8    3       -0.0000113410
    3    2    9    3       -0.0047583435
    3    2   10    3        0.0000073118
    3    2   11    3       -0.0028031766
    3    2   12    3        0.0000000092
    3    2   13    3       -0.0035934831
    3    2    4    4       -0.0001818960
    3    2    5    4       -0.0000000001
    3    2    6    4       -0.0000007033
    3    2    7    4        0.0000000166
    3    2    8    4       -0.0000498913
    3    2    9    4       -0.0000007067
    3    2   10    4        0.0001312478
    3    2   11    4       -0.0000006655
    3    2   12    4       -0.0118386923
    3    2   13    4       -0.0000001272
    3    2    5    5       -0.0001818087
    3    2    6    5        0.0000000518
    3    2    7    5        0.0000002271
    3    2    8    5        0.0000036947
    3    2    9    5        0.0000000522
    3    2   10    5       -0.0000001083
    3    2   11    5        0.0000001463
    3    2   12    5        0.0027742005
    3    2   13    5        0.0000000494
    3    2    6    6       -0.0003686147
    3    2    7    6       -0.0000000003
    3    2    8    6        0.0003896374
    3    2    9    6        0.0000544840
    3    2   10    6        0.0000009192
    3    2   11    6        0.0001571800
    3    2   12    6       -0.0000091829
    3    2   13    6       -0.0000824106
    3    2    7    7       -0.0001788592
    3    2    8    7       -0.0000000000
    3    2    9    7        0.0000000002
    3    2   10    7        0.0000000019
    3    2   11    7        0.0000002792
    3    2   12    7       -0.0000030247
    3    2   13    7       -0.0000000077
    3    2    8    8       -0.0000051130
    3    2    9    8       -0.0015626147
    3    2   10    8        0.0000125944
    3    2   11    8       -0.0021533603
    3    2   12    8        0.0000002992
    3    2   13    8       -0.0012474219
    3    2    9    9       -0.0002761445
    3    2   10    9        0.0000003198
    3    2   11    9       -0.0001796657
    3    2   12    9       -0.0000027436
    3    2   13    9        0.0000563504
    3    2   10   10       -0.0002137168
    3    2   11   10        0.0000003429
    3    2   12   10       -0.0000172014
    3    2   13   10       -0.0000003109
    3    2   11   11       -0.0002905520
    3    2   12   11       -0.0000029920
    3    2   13   11       -0.0001209577
    3    2   12   12       -0.0000204301
    3    2   13   12        0.0000015087
    3    2   13   13       -0.0003225924
    4    2    4    2        0.0231238946
    4    2    5    2       -0.0000003023
    4    2    6    2       -0.0003396808
    4    2    7    2       -0.0000443054
    4    2    8    2        0.0000037575
    4    2    9    2        0.0002937352
    4    2   10    2       -0.0031478700
    4    2   11    2        0.0000019402
    4    2   12    2        0.0001619576
    4    2   13    2        0.0001618436
    4    2    3    3        0.0000317399
    4    2    4    3       -0.0000736946
    4    2    5    3       -0.0000000001
    4    2    6    3        0.0000001075
    4    2    7    3        0.0000000537
    4    2    8    3       -0.0001580782
    4    2    9    3       -0.0000007013
    4    2   10    3       -0.0000096775
    4    2   11    3       -0.0000011129
    4    2   12    3       -0.0132681099
    4    2   13    3       -0.0000003299
    4    2    4    4        0.0004260381
    4    2    5    4       -0.0000450866
    4    2    6    4       -0.0025283897
    4    2    7    4       -0.0007664298
    4    2    8    4        0.0001355344
    4    2    9    4       -0.0041931500
    4    2   10    4       -0.0003173526
    4    2   11    4        0.0006687818
    4    2   12    4        0.0000017070
    4    2   13    4       -0.0029546082
    4    2    5    5        0.0000469324
    4    2    6    5        0.0000002304
    4    2    7    5       -0.0051496878
    4    2    8    5       -0.0000000017
    4    2    9    5       -0.0000002391
    4    2   10    5        0.0000308903
    4    2   11    5        0.0000002088
    4    2   12    5       -0.0000002127
    4    2   13    5       -0.0000001017
    4    2    6    6        0.0005891250
    4    2    7    6        0.0000148003
    4    2    8    6       -0.0000010160
    4    2    9    6        0.0000358349
    4    2   10    6       -0.0039770531
    4    2   11    6        0.0004417905
    4    2   12    6        0.0000957332
    4    2   13    6       -0.0001485401
    4    2    7    7        0.0008473568
    4    2    8    7       -0.0000002751
    4    2    9    7        0.0000040427
    4    2   10    7       -0.0018538352
    4    2   11    7       -0.0000305923
    4    2   12    7       -0.0000000509
    4    2   13    7       -0.0000250659
    4    2    8    8        0.0008033800
    4    2    9    8        0.0000036196
    4    2   10    8       -0.0000555855
    4    2   11    8        0.0000019548
    4    2   12    8        0.0200282681
    4    2   13    8        0.0000010610
    4    2    9    9        0.0008283074
    4    2   10    9       -0.0162389220
    4    2   11    9       -0.0002267692
    4    2   12    9        0.0000404928
    4    2   13    9       -0.0002894852
    4    2   10   10        0.0004769293
    4    2   11   10        0.0032430020
    4    2   12   10       -0.0000028836
    4    2   13   10       -0.0047313456
    4    2   11   11        0.0009439322
    4    2   12   11        0.0000109518
    4    2   13   11       -0.0001518121
    4    2   12   12        0.0004517199
    4    2   13   12       -0.0000114263
    4    2   13   13        0.0009990999
    5    2    5    2        0.0231183547
    5    2    6    2        0.0000251331
    5    2    7    2       -0.0005986665
    5    2    8    2       -0.0000002758
    5    2    9    2       -0.0000217378
    5    2   10    2        0.0000003982
    5    2   11    2       -0.0000000037
    5    2   12    2       -0.0000373518
    5    2   13    2       -0.0000128811
    5    2    3    3       -0.0000023457
    5    2    4    3        0.0000000000
    5    2    5    3       -0.0000736736
    5    2    6    3       -0.0000000083
    5    2    7    3        0.0000007321
    5    2    8    3        0.0000117030
    5    2    9    3        0.0000000516
    5    2   10    3       -0.0000001228
    5    2   11    3        0.0000001764
    5    2   12    3        0.0031092931
    5    2   13    3        0.0000000297
    5    2    4    4       -0.0000649208
    5    2    5    4       -0.0002209997
    5    2    6    4        0.0000002302
    5    2    7    4       -0.0051512417
    5    2    8    4       -0.0000000022
    5    2    9    4       -0.0000002394
    5    2   10    4        0.0000656638
    5    2   11    4        0.0000001441
    5    2   12    4        0.0000000365
    5    2   13    4        0.0000000454
    5    2    5    5        0.0000299047
    5    2    6    5       -0.0025286909
    5    2    7    5        0.0007667302
    5    2    8    5        0.0001354596
    5    2    9    5       -0.0042008994
    5    2   10    5        0.0003087398
    5    2   11    5        0.0006716208
    5    2   12    5       -0.0000009875
    5    2   13    5       -0.0029564543
    5    2    6    6       -0.0000435931
    5    2    7    6        0.0001999549
    5    2    8    6        0.0000000768
    5    2    9    6       -0.0000026540
    5    2   10    6       -0.0000003373
    5    2   11    6       -0.0000346340
    5    2   12    6       -0.0000086486
    5    2   13    6        0.0000104411
    5    2    7    7       -0.0000627189
    5    2    8    7       -0.0000038287
    5    2    9    7        0.0000546327
    5    2   10    7       -0.0124543983
    5    2   11    7       -0.0004364642
    5    2   12    7       -0.0000553320
    5    2   13    7       -0.0002855112
    5    2    8    8       -0.0000594670
    5    2    9    8       -0.0000002576
    5    2   10    8        0.0000001863
    5    2   11    8       -0.0000002703
    5    2   12    8       -0.0046927173
    5    2   13    8       -0.0000001051
    5    2    9    9       -0.0000612984
    5    2   10    9        0.0000004241
    5    2   11    9        0.0000174403
    5    2   12    9       -0.0000059574
    5    2   13    9        0.0000167874
    5    2   10   10       -0.0000942851
    5    2   11   10       -0.0000000662
    5    2   12   10       -0.0000001917
    5    2   13   10       -0.0000002249
    5    2   11   11       -0.0000709329
    5    2   12   11       -0.0000006238
    5    2   13   11        0.0000124642
    5    2   12   12        0.0000435431
    5    2   13   12        0.0000037644
    5    2   13   13       -0.0000766433
    6    2    6    2        0.0127954009
    6    2    7    2        0.0000000003
    6    2    8    2        0.0004181570
    6    2    9    2       -0.0000986886
    6    2   10    2        0.0000152658
    6    2   11    2        0.0002529643
    6    2   12    2        0.0000022293
    6    2   13    2       -0.0000431890
    6    2    3    3        0.0060260031
    6    2    4    3       -0.0000009055
    6    2    5    3        0.0000000669
    6    2    6    3       -0.0002334052
    6    2    7    3       -0.0000000001
    6    2    8    3        0.0018202711
    6    2    9    3        0.0001522328
    6    2   10    3       -0.0000000381
    6    2   11    3        0.0001519037
    6    2   12    3        0.0001643807
    6    2   13    3        0.0000911615
    6    2    4    4        0.0002541568
    6    2    5    4        0.0000003861
    6    2    6    4        0.0001616326
    6    2    7    4        0.0000075458
    6    2    8    4        0.0000016301
    6    2    9    4        0.0000644059
    6    2   10    4       -0.0020133611
    6    2   11    4        0.0000250737
    6    2   12    4        0.0005381061
    6    2   13    4        0.0000283541
    6    2    5    5        0.0002565968
    6    2    6    5       -0.0000119610
    6    2    7    5        0.0001019386
    6    2    8    5       -0.0000001200
    6    2    9    5       -0.0000047723
    6    2   10    5       -0.0000001949
    6    2   11    5       -0.0000029456
    6    2   12    5       -0.0001184945
    6    2   13    5       -0.0000023494
    6    2    6    6        0.0015588308
    6    2    7    6       -0.0000000001
    6    2    8    6        0.0000552357
    6    2    9    6       -0.0058771945
    6    2   10    6        0.0000530321
    6    2   11    6       -0.0101922106
    6    2   12    6        0.0000008783
    6    2   13    6        0.0026594377
    6    2    7    7       -0.0004765654
    6    2    8    7        0.0000000001
    6    2    9    7       -0.0000000000
    6    2   10    7        0.0000146571
    6    2   11    7       -0.0000000338
    6    2   12    7       -0.0000002738
    6    2   13    7        0.0000000590
    6    2    8    8       -0.0034564732
    6    2    9    8        0.0000957453
    6    2   10    8       -0.0000012520
    6    2   11    8        0.0000976016
    6    2   12    8       -0.0003154536
    6    2   13    8        0.0000471360
    6    2    9    9       -0.0000198494
    6    2   10    9        0.0002550193
    6    2   11    9        0.0072750365
    6    2   12    9       -0.0000005882
    6    2   13    9        0.0002263844
    6    2   10   10       -0.0003474767
    6    2   11   10       -0.0001006347
    6    2   12   10       -0.0000704510
    6    2   13   10        0.0000753037
    6    2   11   11        0.0008170098
    6    2   12   11       -0.0000001789
    6    2   13   11        0.0095057325
    6    2   12   12        0.0006463517
    6    2   13   12       -0.0000002383
    6    2   13   13        0.0000046133
    7    2    7    2        0.0128168868
    7    2    8    2       -0.0000000001
    7    2    9    2        0.0000000001
    7    2   10    2       -0.0000001886
    7    2   11    2        0.0000000031
    7    2   12    2        0.0000005694
    7    2   13    2       -0.0000000021
    7    2    3    3        0.0000000000
    7    2    4    3        0.0000001170
    7    2    5    3        0.0000015838
    7    2    6    3       -0.0000000001
    7    2    7    3       -0.0000303953
    7    2    8    3       -0.0000000001
    7    2    9    3        0.0000000001
    7    2   10    3        0.0000000309
    7    2   11    3        0.0000001397
    7    2   12    3       -0.0000499667
    7    2   13    3       -0.0000000040
    7    2    4    4       -0.0001399889
    7    2    5    4       -0.0009414619
    7    2    6    4        0.0000072735
    7    2    7    4        0.0002899343
    7    2    8    4       -0.0000002356
    7    2    9    4        0.0000080906
    7    2   10    4       -0.0010382074
    7    2   11    4       -0.0000041586
    7    2   12    4       -0.0000011320
    7    2   13    4        0.0000011391
    7    2    5    5        0.0001402603
    7    2    6    5        0.0000983451
    7    2    7    5       -0.0000214651
    7    2    8    5       -0.0000032458
    7    2    9    5        0.0001094027
    7    2   10    5       -0.0069760773
    7    2   11    5       -0.0000690226
    7    2   12    5       -0.0000170389
    7    2   13    5        0.0000451640
    7    2    6    6       -0.0000000001
    7    2    7    6       -0.0007711477
    7    2    8    6        0.0000000003
    7    2    9    6       -0.0000000001
    7    2   10    6        0.0000093219
    7    2   11    6        0.0000000442
    7    2   12    6       -0.0000004241
    7    2   13    6        0.0000000202
    7    2    7    7        0.0000000005
    7    2    8    7        0.0000872934
    7    2    9    7       -0.0052920203
    7    2   10    7        0.0003446362
    7    2   11    7        0.0098030025
    7    2   12    7        0.0000018945
    7    2   13    7        0.0035453029
    7    2    8    8        0.0000000004
    7    2    9    8       -0.0000000005
    7    2   10    8        0.0000000417
    7    2   11    8       -0.0000003063
    7    2   12    8        0.0000836951
    7    2   13    8        0.0000000090
    7    2    9    9        0.0000000002
    7    2   10    9        0.0000332073
    7    2   11    9       -0.0000000186
    7    2   12    9       -0.0000002195
    7    2   13    9        0.0000001268
    7    2   10   10       -0.0000224717
    7    2   11   10       -0.0000113344
    7    2   12   10        0.0000040846
    7    2   13   10        0.0000081416
    7    2   11   11        0.0000000479
    7    2   12   11        0.0000000686
    7    2   13   11       -0.0000000502
    7    2   12   12        0.0002217517
    7    2   13   12       -0.0000004054
    7    2   13   13        0.0000000576
    8    2    8    2        0.0198554962
    8    2    9    2        0.0002379290
    8    2   10    2       -0.0000038705
    8    2   11    2        0.0000238156
    8    2   12    2        0.0002785385
    8    2   13    2        0.0000763083
    8    2    3    3        0.0000147796
    8    2    4    3       -0.0001167349
    8    2    5    3        0.0000086382
    8    2    6    3       -0.0046958599
    8    2    7    3       -0.0000000000
    8    2    8    3        0.0000019238
    8    2    9    3        0.0035818842
    8    2   10    3       -0.0000292369
    8    2   11    3        0.0025199874
[...]
   10    7   10   10        0.0000087409
   10    7   11   10       -0.0003861459
   10    7   12   10        0.0000003575
   10    7   13   10        0.0006815220
   10    7   11   11       -0.0000366734
   10    7   12   11       -0.0000000025
   10    7   13   11        0.0000052485
   10    7   12   12       -0.0000636616
   10    7   13   12       -0.0000012947
   10    7   13   13       -0.0000333041
   11    7   11    7        0.0087546000
   11    7   12    7        0.0000023379
   11    7   13    7        0.0025919075
   11    7    8    8        0.0000000571
   11    7    9    8       -0.0000000410
   11    7   10    8        0.0000000551
   11    7   11    8       -0.0000004221
   11    7   12    8        0.0000605947
   11    7   13    8       -0.0000000705
   11    7    9    9        0.0000000420
   11    7   10    9        0.0000232293
   11    7   11    9       -0.0000000384
   11    7   12    9       -0.0000002265
   11    7   13    9        0.0000000796
   11    7   10   10       -0.0001087762
   11    7   11   10       -0.0000085905
   11    7   12   10        0.0000028844
   11    7   13   10        0.0000061505
   11    7   11   11        0.0000000856
   11    7   12   11        0.0000001150
   11    7   13   11       -0.0000000447
   11    7   12   12        0.0001786278
   11    7   13   12       -0.0000003572
   11    7   13   13        0.0000000989
   12    7   12    7        0.0051305947
   12    7   13    7        0.0000027591
   12    7    8    8        0.0000002481
   12    7    9    8        0.0000031384
   12    7   10    8        0.0001944051
   12    7   11    8        0.0000105623
   12    7   12    8        0.0000026769
   12    7   13    8        0.0000069230
   12    7    9    9        0.0000005713
   12    7   10    9        0.0000012255
   12    7   11    9       -0.0000001161
   12    7   12    9       -0.0006202849
   12    7   13    9        0.0000001691
   12    7   10   10        0.0000007534
   12    7   11   10        0.0000002316
   12    7   12   10       -0.0000030168
   12    7   13   10        0.0000004368
   12    7   11   11        0.0000004111
   12    7   12   11        0.0001342722
   12    7   13   11       -0.0000000433
   12    7   12   12        0.0000001494
   12    7   13   12       -0.0001904032
   12    7   13   13        0.0000007125
   13    7   13    7        0.0058609835
   13    7    8    8       -0.0000001296
   13    7    9    8        0.0000000006
   13    7   10    8        0.0000000471
   13    7   11    8       -0.0000000771
   13    7   12    8        0.0000359362
   13    7   13    8        0.0000000047
   13    7    9    9       -0.0000001277
   13    7   10    9        0.0000162989
   13    7   11    9        0.0000000355
   13    7   12    9        0.0000000041
   13    7   13    9        0.0000000897
   13    7   10   10        0.0005000796
   13    7   11   10       -0.0000044076
   13    7   12   10        0.0000033298
   13    7   13   10        0.0000047196
   13    7   11   11       -0.0000001364
   13    7   12   11       -0.0000000870
   13    7   13   11        0.0000000092
   13    7   12   12       -0.0000748918
   13    7   13   12       -0.0000001317
   13    7   13   13       -0.0000001390
    8    8    8    8        0.1268111831
    8    8    9    8       -0.0000009433
    8    8   10    8        0.0000003582
    8    8   11    8        0.0000055802
    8    8   12    8        0.0007651895
    8    8   13    8       -0.0000202803
    8    8    9    9        0.1153392417
    8    8   10    9       -0.0006180430
    8    8   11    9       -0.0024544216
    8    8   12    9        0.0000009661
    8    8   13    9        0.0095202863
    8    8   10   10        0.1244194069
    8    8   11   10        0.0001794831
    8    8   12   10        0.0000097034
    8    8   13   10       -0.0000911076
    8    8   11   11        0.1177000966
    8    8   12   11        0.0000010124
    8    8   13   11       -0.0018533497
    8    8   12   12        0.1277040591
    8    8   13   12        0.0000001070
    8    8   13   13        0.1136109524
    9    8    9    8        0.0057629522
    9    8   10    8       -0.0001226475
    9    8   11    8       -0.0013926233
    9    8   12    8        0.0000000628
    9    8   13    8       -0.0006248240
    9    8    9    9        0.0002765581
    9    8   10    9       -0.0000053273
    9    8   11    9        0.0000741395
    9    8   12    9        0.0000809481
    9    8   13    9       -0.0001411243
    9    8   10   10        0.0001779933
    9    8   11   10       -0.0000016635
    9    8   12   10       -0.0037800564
    9    8   13   10        0.0000021623
    9    8   11   11        0.0000924227
    9    8   12   11       -0.0000188728
    9    8   13   11        0.0000335653
    9    8   12   12        0.0000090576
    9    8   13   12       -0.0000231127
    9    8   13   13        0.0002481051
   10    8   10    8        0.0048784853
   10    8   11    8        0.0000538770
   10    8   12    8        0.0000203871
   10    8   13    8        0.0000325348
   10    8    9    9       -0.0000064973
   10    8   10    9        0.0001074673
   10    8   11    9       -0.0000013700
   10    8   12    9       -0.0022604484
   10    8   13    9        0.0000041835
   10    8   10   10       -0.0000052251
   10    8   11   10        0.0000433404
   10    8   12   10        0.0001134392
   10    8   13   10       -0.0000336312
   10    8   11   11       -0.0000006186
   10    8   12   11        0.0003101127
   10    8   13   11       -0.0000008633
   10    8   12   12       -0.0000003210
   10    8   13   12        0.0002478359
   10    8   13   13       -0.0000064401
   11    8   11    8        0.0040751279
   11    8   12    8        0.0000012133
   11    8   13    8        0.0006669283
   11    8    9    9        0.0000972621
   11    8   10    9       -0.0000006255
   11    8   11    9        0.0000652913
   11    8   12    9       -0.0000489858
   11    8   13    9       -0.0000141379
   11    8   10   10        0.0000940157
   11    8   11   10        0.0000002776
   11    8   12   10        0.0007119510
   11    8   13   10       -0.0000004854
   11    8   11   11        0.0001074260
   11    8   12   11        0.0000524132
   11    8   13   11        0.0000583957
   11    8   12   12        0.0000068029
   11    8   13   12        0.0000062782
   11    8   13   13        0.0001514438
   12    8   12    8        0.0204437450
   12    8   13    8        0.0000009262
   12    8    9    9        0.0007703457
   12    8   10    9       -0.0137014516
   12    8   11    9       -0.0002173841
   12    8   12    9        0.0000205710
   12    8   13    9       -0.0002767057
   12    8   10   10        0.0004664350
   12    8   11   10        0.0027233678
   12    8   12   10        0.0000001116
   12    8   13   10       -0.0031578019
   12    8   11   11        0.0008735979
   12    8   12   11        0.0000093527
   12    8   13   11       -0.0001473772
   12    8   12   12        0.0004669748
   12    8   13   12       -0.0000041099
   12    8   13   13        0.0009091109
   13    8   13    8        0.0023785727
   13    8    9    9       -0.0000336555
   13    8   10    9        0.0000004547
   13    8   11    9        0.0000237942
   13    8   12    9       -0.0000363346
   13    8   13    9        0.0000281027
   13    8   10   10       -0.0000147658
   13    8   11   10        0.0000002802
   13    8   12   10       -0.0001639281
   13    8   13   10       -0.0000008940
   13    8   11   11        0.0000330528
   13    8   12   11        0.0000128367
   13    8   13   11        0.0000405034
   13    8   12   12       -0.0000286013
   13    8   13   12        0.0000245427
   13    8   13   13        0.0000282297
    9    9    9    9        0.1165336191
    9    9   10    9       -0.0007399340
    9    9   11    9       -0.0002097257
    9    9   12    9        0.0000051291
    9    9   13    9        0.0039238063
    9    9   10   10        0.1196092319
    9    9   11   10        0.0001424200
    9    9   12   10       -0.0001771320
    9    9   13   10        0.0000082677
    9    9   11   11        0.1121750014
    9    9   12   11        0.0000012190
    9    9   13   11       -0.0002059407
    9    9   12   12        0.1185280522
    9    9   13   12       -0.0000016378
    9    9   13   13        0.1113253715
   10    9   10    9        0.0153139146
   10    9   11    9        0.0001851254
   10    9   12    9       -0.0000829739
   10    9   13    9        0.0003115821
   10    9   10   10       -0.0004434772
   10    9   11   10       -0.0028792919
   10    9   12   10        0.0000052530
   10    9   13   10        0.0032129795
   10    9   11   11       -0.0006826023
   10    9   12   11       -0.0000184028
   10    9   13   11        0.0001016586
   10    9   12   12       -0.0004011791
   10    9   13   12        0.0000231960
   10    9   13   13       -0.0007972168
   11    9   11    9        0.0064883402
   11    9   12    9       -0.0000000534
   11    9   13    9       -0.0000417257
   11    9   10   10       -0.0014323117
   11    9   11   10       -0.0000763186
   11    9   12   10       -0.0000468148
   11    9   13   10        0.0000507965
   11    9   11   11        0.0026503869
   11    9   12   11       -0.0000000364
   11    9   13   11        0.0053846262
   11    9   12   12       -0.0000791394
   11    9   13   12       -0.0000001915
   11    9   13   13       -0.0001575840
   12    9   12    9        0.0037049976
   12    9   13    9       -0.0000037188
   12    9   10   10        0.0000034795
   12    9   11   10       -0.0000150317
   12    9   12   10       -0.0000593894
   12    9   13   10        0.0000210802
   12    9   11   11        0.0000011964
   12    9   12   11       -0.0001490602
   12    9   13   11       -0.0000006109
   12    9   12   12        0.0000005606
   12    9   13   12        0.0009098904
   12    9   13   13        0.0000045932
   13    9   13    9        0.0118129705
   13    9   10   10        0.0129208824
   13    9   11   10       -0.0000125714
   13    9   12   10        0.0000861860
   13    9   13   10       -0.0000871352
   13    9   11   11        0.0124606314
   13    9   12   11       -0.0000001700
   13    9   13   11       -0.0000955702
   13    9   12   12        0.0131888176
   13    9   13   12        0.0000016045
   13    9   13   13        0.0060356575
   10   10   10   10        0.1381759652
   10   10   11   10        0.0000550760
   10   10   12   10       -0.0001805004
   10   10   13   10        0.0000171539
   10   10   11   11        0.1186164011
   10   10   12   11        0.0000015829
   10   10   13   11       -0.0008786114
   10   10   12   12        0.1351612846
   10   10   13   12       -0.0000004258
   10   10   13   13        0.1168874340
   11   10   11   10        0.0030451731
   11   10   12   10        0.0000019813
   11   10   13   10       -0.0022658206
   11   10   11   11        0.0002386287
   11   10   12   11       -0.0000047131
   11   10   13   11       -0.0000609069
   11   10   12   12        0.0000562556
   11   10   13   12        0.0000022216
   11   10   13   13        0.0001805409
   12   10   12   10        0.0067849381
   12   10   13   10       -0.0000015928
   12   10   11   11       -0.0000437506
   12   10   12   11       -0.0000050259
   12   10   13   11       -0.0000273850
   12   10   12   12       -0.0000078676
   12   10   13   12        0.0000094131
   12   10   13   13       -0.0001637373
   13   10   13   10        0.0052568273
   13   10   11   11       -0.0001598601
   13   10   12   11       -0.0000001137
   13   10   13   11        0.0000582804
   13   10   12   12       -0.0000192257
   13   10   13   12       -0.0000119405
   13   10   13   13       -0.0000383748
   11   11   11   11        0.1274361947
   11   11   12   11        0.0000009907
   11   11   13   11       -0.0008646274
   11   11   12   12        0.1227428909
   11   11   13   12        0.0000000680
   11   11   13   13        0.1139835860
   12   11   12   11        0.0016580781
   12   11   13   11        0.0000003561
   12   11   12   12        0.0000016249
   12   11   13   12        0.0001833438
   12   11   13   13        0.0000019409
   13   11   13   11        0.0099677847
   13   11   12   12        0.0002609331
   13   11   13   12        0.0000002138
   13   11   13   13       -0.0002283082
   12   12   12   12        0.1524516994
   12   12   13   12       -0.0000001309
   12   12   13   13        0.1163834242
   13   12   13   12        0.0016187730
   13   12   13   13       -0.0000009916
   13   13   13   13        0.1136371047
 end_two_electron_integrals


 output epsi filename:./pspw_hf_H2.emovecs

 Total PSPW energy     :  -0.1004261037E+01


=== Spin Contamination ===

 <Sexact^2> =    0.0000000000000000     
 <S^2>      =    0.0000000000000000     



== Center of Charge ==

spin up     (    0.0000,    0.0000,    0.0000 )
spin down   (    0.0000,    0.0000,    0.0000 )
     total  (    0.0000,    0.0000,    0.0000 )
ionic       (    0.0000,    0.0000,    0.0000 )


== Molecular Dipole wrt Center of Mass ==

mu   =  (   -0.0000,   -0.0000,   -0.0000 ) au
|mu| =     0.0000 au,       0.0000 Debye

 output psi filename:./pspw_hf_H2.movecs

 Writing Crystallographic Information File:./H2.cif
   - cell not shifted (nwpw:cif_shift_cell .false.)


== Timing ==

cputime in seconds
  prologue    :   0.539627E+01
  main loop   :   0.322119E+03
  epilogue    :   0.525306E-02
  total       :   0.327521E+03
  cputime/step:   0.249705E+01       (     129 evalulations,      53 linesearches)


Time spent doing                        total          step       percent
  total time                 :   0.327521E+03  0.253892E+01       100.0 %
  i/o time                   :   0.905223E-01  0.701724E-03         0.0 %
  FFTs                       :   0.286877E+03  0.222385E+01        87.6 %
  dot products               :   0.415786E+00  0.322315E-02         0.1 %
  geodesic                   :   0.554690E-01  0.429992E-03         0.0 %
  ffm_dgemm                  :   0.660044E-02  0.511662E-04         0.0 %
  fmf_dgemm                  :   0.271855E-01  0.210741E-03         0.0 %
  mmm_dgemm                  :   0.118575E-02  0.919183E-05         0.0 %
  m_diagonalize              :   0.677082E-03  0.524870E-05         0.0 %
  local pseudopotentials     :   0.982568E-02  0.761681E-04         0.0 %
  non-local pseudopotentials :   0.857135E+00  0.664446E-02         0.3 %
  structure factors          :   0.408342E+00  0.316544E-02         0.1 %
  phase factors              :   0.640900E-05  0.496822E-07         0.0 %
  masking and packing        :   0.516294E+01  0.400228E-01         1.6 %
  queue fft                  :   0.120827E+01  0.936646E-02         0.4 %
  queue fft (serial)         :   0.711981E+00  0.551923E-02         0.2 %
  queue fft (message passing):   0.453052E+00  0.351203E-02         0.1 %
  HFX potential              :   0.225552E+03  0.174847E+01        68.9 %
  non-local psp FFM          :   0.465675E+00  0.360988E-02         0.1 %
  non-local psp FMF          :   0.104292E+00  0.808467E-03         0.0 %
  non-local psp FFM A        :   0.120768E+00  0.936186E-03         0.0 %
  non-local psp FFM B        :   0.867131E-01  0.672195E-03         0.0 %

== HFX Counters ==
  HFX Evalulations         =   129
  Lin ACE HFX Evalulations =     0


     >>>  JOB COMPLETED     AT Thu May  1 18:58:16 2025  <<<

 Task  times  cpu:      327.5s     wall:      327.5s
 Summary of allocated global arrays
-----------------------------------
  No active global arrays


MA_summarize_allocated_blocks: starting scan ...
MA_summarize_allocated_blocks: scan completed: 0 heap blocks, 0 stack blocks
MA usage statistics:

	allocation statistics:
					      heap	     stack
					      ----	     -----
	current number of blocks	         0	         0
	maximum number of blocks	       313	        17
	current total bytes		         0	         0
	maximum total bytes		 369662368	  89294088
	maximum total K-bytes		    369663	     89295
	maximum total M-bytes		       370	        90


                                NWChem Input Module
                                -------------------




                                     CITATION
                                     --------
                Please cite the following reference when publishing
                           results obtained with NWChem:

          E. Apra, E. J. Bylaska, W. A. de Jong, N. Govind, K. Kowalski,
       T. P. Straatsma, M. Valiev, H. J. J. van Dam, Y. Alexeev, J. Anchell,
       V. Anisimov, F. W. Aquino, R. Atta-Fynn, J. Autschbach, N. P. Bauman,
     J. C. Becca, D. E. Bernholdt, K. Bhaskaran-Nair, S. Bogatko, P. Borowski,
         J. Boschen, J. Brabec, A. Bruner, E. Cauet, Y. Chen, G. N. Chuev,
      C. J. Cramer, J. Daily, M. J. O. Deegan, T. H. Dunning Jr., M. Dupuis,
   K. G. Dyall, G. I. Fann, S. A. Fischer, A. Fonari, H. Fruchtl, L. Gagliardi,
      J. Garza, N. Gawande, S. Ghosh, K. Glaesemann, A. W. Gotz, J. Hammond,
       V. Helms, E. D. Hermes, K. Hirao, S. Hirata, M. Jacquelin, L. Jensen,
   B. G. Johnson, H. Jonsson, R. A. Kendall, M. Klemm, R. Kobayashi, V. Konkov,
      S. Krishnamoorthy, M. Krishnan, Z. Lin, R. D. Lins, R. J. Littlefield,
      A. J. Logsdail, K. Lopata, W. Ma, A. V. Marenich, J. Martin del Campo,
   D. Mejia-Rodriguez, J. E. Moore, J. M. Mullin, T. Nakajima, D. R. Nascimento,
    J. A. Nichols, P. J. Nichols, J. Nieplocha, A. Otero-de-la-Roza, B. Palmer,
    A. Panyala, T. Pirojsirikul, B. Peng, R. Peverati, J. Pittner, L. Pollack,
   R. M. Richard, P. Sadayappan, G. C. Schatz, W. A. Shelton, D. W. Silverstein,
   D. M. A. Smith, T. A. Soares, D. Song, M. Swart, H. L. Taylor, G. S. Thomas,
            V. Tipparaju, D. G. Truhlar, K. Tsemekhman, T. Van Voorhis,
      A. Vazquez-Mayagoitia, P. Verma, O. Villa, A. Vishnu, K. D. Vogiatzis,
        D. Wang, J. H. Weare, M. J. Williamson, T. L. Windus, K. Wolinski,
        A. T. Wong, Q. Wu, C. Yang, Q. Yu, M. Zacharias, Z. Zhang, Y. Zhao,
                                and R. J. Harrison
                        "NWChem: Past, present, and future
                         J. Chem. Phys. 152, 184102 (2020)
                               doi:10.1063/5.0004997

                                      AUTHORS
                                      -------
  E. Apra, E. J. Bylaska, N. Govind, K. Kowalski, M. Valiev, D. Mejia-Rodriguez,
       A. Kunitsa, N. P. Bauman, A. Panyala, W. A. de Jong, T. P. Straatsma,
   H. J. J. van Dam, D. Wang, T. L. Windus, J. Hammond, J. Autschbach, A. Woods,
    K. Bhaskaran-Nair, J. Brabec, K. Lopata, S. A. Fischer, S. Krishnamoorthy,
     M. Jacquelin, W. Ma, M. Klemm, O. Villa, Y. Chen, V. Anisimov, F. Aquino,
     S. Hirata, M. T. Hackler, E. Hermes, L. Jensen, J. E. Moore, J. C. Becca,
      V. Konjkov, T. Risthaus, M. Malagoli, A. Marenich, A. Otero-de-la-Roza,
        J. Mullin, P. Nichols, R. Peverati, J. Pittner, Y. Zhao, P.-D. Fan,
        A. Fonari, M. J. Williamson, R. J. Harrison, J. R. Rehr, M. Dupuis,
     D. Silverstein, D. M. A. Smith, J. Nieplocha, V. Tipparaju, M. Krishnan,
     B. E. Van Kuiken, A. Vazquez-Mayagoitia, M. Swart, Q. Wu, T. Van Voorhis,
     A. A. Auer, M. Nooijen, L. D. Crosby, E. Brown, G. Cisneros, G. I. Fann,
   H. Fruchtl, J. Garza, K. Hirao, R. A. Kendall, J. A. Nichols, K. Tsemekhman,
    K. Wolinski, J. Anchell, D. E. Bernholdt, P. Borowski, T. Clark, D. Clerc,
   H. Dachsel, M. J. O. Deegan, K. Dyall, D. Elwood, E. Glendening, M. Gutowski,
   A. C. Hess, J. Jaffe, B. G. Johnson, J. Ju, R. Kobayashi, R. Kutteh, Z. Lin,
   R. Littlefield, X. Long, B. Meng, T. Nakajima, S. Niu, L. Pollack, M. Rosing,
   K. Glaesemann, G. Sandrone, M. Stave, H. Taylor, G. Thomas, J. H. van Lenthe,
                               A. T. Wong, Z. Zhang.

 Total times  cpu:      327.6s     wall:      327.5s
