 argument  1 = H2-1.0.nw



============================== echo of input deck ==============================
title "swnc: e theory=pspw4 xc=hf formula=H2 charge=0 mult=1"
#machinejob:expert

echo

start pspw_hf_H2

memory heap 1200 mb stack 1200 mb global 10 mb

charge 0

geometry
H    0.00000    0.00000   -0.50000
H    0.00000    0.00000    0.50000
end

nwpw
  ### pseudopotential block begin ###
  ### pseudopotential block end   ###
  simulation_cell
     SC 15.0000
     boundary_conditions aperiodic
  end

  cutoff 50.0
  mult 1
  xc hf
  lmbfgs
  tolerances 1.0e-9 1.0e-9

  virtual 12
end
set nwpw:cif_filename H2

#set nwpw:CI_maxit_orb 15
#set nwpw:CI_maxit_linesearch 15
set pspw:HFX_screening_radius 14.0


set nwpw:2qintegrals .true.
#set nwpw:3x3_virtual .true.

task pspw energy

================================================================================


                                         
                                         


             Northwest Computational Chemistry Package (NWChem) 7.2.2
             --------------------------------------------------------


                    Environmental Molecular Sciences Laboratory
                       Pacific Northwest National Laboratory
                                Richland, WA 99352

                              Copyright (c) 1994-2022
                       Pacific Northwest National Laboratory
                            Battelle Memorial Institute

             NWChem is an open-source computational chemistry package
                        distributed under the terms of the
                      Educational Community License (ECL) 2.0
             A copy of the license is included with this distribution
                              in the LICENSE.TXT file

                                  ACKNOWLEDGMENT
                                  --------------

            This software and its documentation were developed at the
            EMSL at Pacific Northwest National Laboratory, a multiprogram
            national laboratory, operated for the U.S. Department of Energy
            by Battelle under Contract Number DE-AC05-76RL01830. Support
            for this work was provided by the Department of Energy Office
            of Biological and Environmental Research, Office of Basic
            Energy Sciences, and the Office of Advanced Scientific Computing.


           Job information
           ---------------

    hostname        = LAPTOP-JJQSTSEL
    program         = nwchem
    date            = Thu May  1 18:58:38 2025

    compiled        = Fri_Jun_07_07:50:04_2024
    source          = /home/conda/feedstock_root/build_artifacts/nwchem_1717738148552/work
    nwchem branch   = 7.2.2
    nwchem revision = 64ba0f0
    ga revision     = 5.8.0
    use scalapack   = T
    input           = H2-1.0.nw
    prefix          = pspw_hf_H2.
    data base       = ./pspw_hf_H2.db
    status          = startup
    nproc           =        1
    time left       =     -1s



           Memory information
           ------------------

    heap     =  157286398 doubles =   1200.0 Mbytes
    stack    =  157286395 doubles =   1200.0 Mbytes
    global   =    1310720 doubles =     10.0 Mbytes (distinct from heap & stack)
    total    =  315883513 doubles =   2410.0 Mbytes
    verify   = yes
    hardfail = no 


           Directory information
           ---------------------

  0 permanent = .
  0 scratch   = .




                                NWChem Input Module
                                -------------------


               swnc: e theory=pspw4 xc=hf formula=H2 charge=0 mult=1
               -----------------------------------------------------

 Scaling coordinates for geometry "geometry" by  1.889725989
 (inverse scale =  0.529177249)

 ORDER OF PRIMARY AXIS IS BEING SET TO 4
 D4H symmetry detected

          ------
          auto-z
          ------
     1 autoz failed with cvr_scaling = 1.2 changing to 1.3
  no constraints, skipping    0.0000000000000000     
  no constraints, skipping    0.0000000000000000     


                             Geometry "geometry" -> ""
                             -------------------------

 Output coordinates in angstroms (scale by  1.889725989 to convert to a.u.)

  No.       Tag          Charge          X              Y              Z
 ---- ---------------- ---------- -------------- -------------- --------------
    1 H                    1.0000     0.00000000     0.00000000    -0.50000000
    2 H                    1.0000     0.00000000     0.00000000     0.50000000

      Atomic Mass 
      ----------- 

      H                  1.007825


 Effective nuclear repulsion energy (a.u.)       0.5291772490

            Nuclear Dipole moment (a.u.) 
            ----------------------------
        X                 Y               Z
 ---------------- ---------------- ----------------
     0.0000000000     0.0000000000     0.0000000000

      Symmetry information
      --------------------

 Group name             D4h       
 Group number             28
 Group order              16
 No. of unique centers     1

      Symmetry unique atoms

     1



                                Z-matrix (autoz)
                                -------- 

 Units are Angstrom for bonds and degrees for angles

      Type          Name      I     J     K     L     M      Value
      ----------- --------  ----- ----- ----- ----- ----- ----------
    1 Stretch                  1     2                       1.00000


            XYZ format geometry
            -------------------
     2
 geometry
 H                     0.00000000     0.00000000    -0.50000000
 H                     0.00000000     0.00000000     0.50000000

          ****************************************************
          *                                                  *
          *               NWPW PSPW Calculation              *
          *                                                  *
          * [ (Grassmann/Stiefel manifold implementation)  ] *
          *                                                  *
          *      [ NorthWest Chemistry implementation ]      *
          *                                                  *
          *            version #5.10   06/12/02              *
          *                                                  *
          *    This code was developed by Eric J. Bylaska,   *
          *    and was based upon algorithms and code        *
          *    developed by the group of Prof. John H. Weare *
          *                                                  *
          ****************************************************
     >>>  JOB STARTED       AT Thu May  1 18:58:38 2025  <<<
          ================ input data ========================

 input psi filename:./pspw_hf_H2.movecs

 number of processors used:         1
 processor grid           :   1 x   1
 parallel mapping         :2d-hilbert
 parallel mapping         :  balanced
 number of threads        :         1
 parallel io              :       off

 options:
      boundary conditions  = aperiodic   (version4)
      electron spin        = restricted
      exchange-correlation = Hartree-Fock
      - HFX relaxed
      - HFX restricted orbitals :    1
      - HFX free-space coulomb solver


 elements involved in the cluster:
      1: H   valence charge:  1.0000  lmax=  1
             comment    : Parameterized (Chem.Phys.Lett., vol 322, page 447) Hamman psp
             pseudpotential type            :   0
             highest angular component      :   1
             local potential used           :   1
             number of non-local projections:   1
             aperiodic cutoff radius        :  1.000
             cutoff =   0.800   0.800


 total charge:   0.000

 atomic composition:
     H   :    2

 number of electrons: spin up=     1 (   1 per task)  down=     1 (   1 per task) (Fourier space)
 number of orbitals : spin up=     1 (   1 per task)  down=     1 (   1 per task) (Fourier space)

 supercell:
      cell_name:  cell_default                                      
      lattice:    a1=<  15.000   0.000   0.000 >
                  a2=<   0.000  15.000   0.000 >
                  a3=<   0.000   0.000  15.000 >
      reciprocal: b1=<   0.419   0.000   0.000 >
                  b2=<   0.000   0.419   0.000 >
                  b3=<   0.000   0.000   0.419 >
      lattice:    a=      15.000 b=     15.000 c=      15.000
                  alpha=  90.000 beta=  90.000 gamma=  90.000
                  omega=      3375.0

      density cutoff=100.000  fft= 70x 70x 70(    80618 waves    80618 per task)
      wavefnc cutoff= 50.000  fft= 70x 70x 70(    28526 waves    28526 per task)

 technical parameters:
      time step=      5.80     fictitious mass=  400000.0
      tolerance=0.100E-08 (energy)   0.100E-08 (density)
      maximum iterations =      1000 (   10 inner    100 outer )





== Energy Calculation ==


          ============ Grassmann lmbfgs iteration ============
     >>>  ITERATION STARTED AT Thu May  1 18:58:44 2025  <<<
    iter.           Energy         DeltaE       DeltaRho 
    ------------------------------------------------------
      10   -0.1099218120E+01   -0.14008E-02    0.21380E-01
     -  10 steepest descent iterations performed
      20   -0.1102104777E+01   -0.31897E-04    0.39581E-04
      30   -0.1102162667E+01   -0.92970E-06    0.19915E-05
      40   -0.1102164388E+01   -0.14103E-07    0.15452E-07
      50   -0.1102164434E+01   -0.82148E-09    0.50562E-10
  *** tolerance ok. iteration terminated
     >>>  ITERATION ENDED   AT Thu May  1 18:59:17 2025  <<<


==  Summary Of Results  ==

 number of electrons: spin up=    1.00000  down=    1.00000 (real space)

 total     energy    :  -0.1102164434E+01 (   -0.55108E+00/ion)
 total orbital energy:  -0.1053730520E+01 (   -0.10537E+01/electron)
 hartree   energy    :   0.1155222325E+01 (    0.11552E+01/electron)
 exc-corr  energy    :   0.0000000000E+00 (    0.00000E+00/electron)
 HF exchange energy  :  -0.5776111623E+00 (   -0.57761E+00/electron)
 ion-ion   energy    :   0.5291772490E+00 (    0.26459E+00/ion)

 kinetic (planewave) :   0.8725912745E+00 (    0.87259E+00/electron)
 V_local (planewave) :  -0.2845262415E+01 (   -0.28453E+01/electron)
 V_nl    (planewave) :  -0.2362817045E+00 (   -0.23628E+00/electron)
 V_Coul  (planewave) :   0.2310444649E+01 (    0.23104E+01/electron)
 V_xc.   (planewave) :   0.0000000000E+00 (    0.00000E+00/electron)
 K.S. HFX energy     :  -0.1155222325E+01 (   -0.11552E+01/electron)
 Virial Coefficient  :  -0.8836891829E+00

 orbital energies:
    -0.5268653E+00 ( -14.337eV)


== Virtual Orbital Calculation ==


 input epsi filename:./pspw_hf_H2.emovecs
     orbital   1 current e= 0.740E-02 (error=0.871E-09) iterations  66(  41 preconditioned, Ep,Sp= 20.0  200.0)
     orbital   2 current e= 0.731E-01 (error=0.880E-09) iterations  79(  57 preconditioned, Ep,Sp= 20.0  200.0)
     orbital   3 current e= 0.852E-01 (error=0.741E-09) iterations  56(  25 preconditioned, Ep,Sp= 20.0  200.0)
     orbital   4 current e= 0.852E-01 (error=0.817E-09) iterations  57(  33 preconditioned, Ep,Sp= 20.0  200.0)
     orbital   5 current e= 0.869E-01 (error=0.753E-09) iterations  76(  21 preconditioned, Ep,Sp= 20.0  200.0)
     orbital   6 current e= 0.879E-01 (error=0.799E-09) iterations  39(   8 preconditioned, Ep,Sp= 20.0  200.0)
     orbital   7 current e= 0.114E+00 (error=0.891E-09) iterations  69(  45 preconditioned, Ep,Sp= 20.0  200.0)
     orbital   8 current e= 0.163E+00 (error=0.195E-03) iterations 121( 119 preconditioned, Ep,Sp= 20.0  200.0)
     orbital   8 current e= 0.140E+00 (error=0.211E-08) iterations 121(  76 preconditioned, Ep,Sp= 20.0  200.0)
     orbital   8 current e= 0.174E+00 (error=0.234E-05) iterations 121( 120 preconditioned, Ep,Sp= 20.0  200.0)
     orbital   8 current e= 0.174E+00 (error=0.366E-06) iterations 121( 120 preconditioned, Ep,Sp= 20.0  200.0)
     orbital   8 current e= 0.172E+00 (error=0.999E-04) iterations 121( 116 preconditioned, Ep,Sp= 20.0  200.0)
     orbital   8 current e= 0.140E+00 (error=0.739E-09) iterations 115(  78 preconditioned, Ep,Sp= 20.0  200.0)
     orbital   9 current e= 0.238E+00 (error=0.120E-05) iterations 121( 120 preconditioned, Ep,Sp= 20.0  200.0)
     orbital   9 current e= 0.238E+00 (error=0.405E-03) iterations 121( 120 preconditioned, Ep,Sp= 20.0  200.0)
     orbital   9 current e= 0.174E+00 (error=0.165E-05) iterations 121( 120 preconditioned, Ep,Sp= 20.0  200.0)
     orbital   9 current e= 0.174E+00 (error=0.901E-09) iterations  52(  12 preconditioned, Ep,Sp= 20.0  200.0)
     orbital  10 current e= 0.169E+00 (error=0.229E-04) iterations 121( 120 preconditioned, Ep,Sp= 20.0  200.0)
     orbital  10 current e= 0.169E+00 (error=0.843E-09) iterations 104(  81 preconditioned, Ep,Sp= 20.0  200.0)
     orbital  11 current e= 0.174E+00 (error=0.855E-09) iterations  54(  32 preconditioned, Ep,Sp= 20.0  200.0)
     orbital  12 current e= 0.226E+00 (error=0.811E-09) iterations 106(  58 preconditioned, Ep,Sp= 20.0  200.0)

 virtual orbital energies:
     0.2257706E+00 (   6.144eV)
     0.1743608E+00 (   4.745eV)
     0.1742372E+00 (   4.741eV)
     0.1688162E+00 (   4.594eV)
     0.1400644E+00 (   3.811eV)
     0.1139559E+00 (   3.101eV)
     0.8794684E-01 (   2.393eV)
     0.8691373E-01 (   2.365eV)
     0.8516306E-01 (   2.317eV)
     0.8516305E-01 (   2.317eV)
     0.7307013E-01 (   1.988eV)
     0.7396447E-02 (   0.201eV)


 == Generating One-Electron and Two-Electron Integrals ==

 begin_one_electron_integrals
    1    1        -1.1044764225
    2    1         0.0328910283
    3    1         0.0000002765
    4    1        -0.0000009743
    5    1        -0.0000000754
    6    1         0.0032765451
    7    1         0.0000000000
    8    1         0.0437900924
    9    1         0.0000090291
   10    1         0.0000023657
   11    1        -0.0022028692
   12    1         0.0000000036
   13    1        -0.0472848950
    2    2        -0.2682381346
    3    2        -0.0000042431
    4    2        -0.0000003008
    5    2        -0.0000000123
    6    2        -0.0027225867
    7    2        -0.0000000000
    8    2        -0.0658601296
    9    2        -0.0000028921
   10    2         0.0000012087
   11    2         0.0006755114
   12    2        -0.0000000015
   13    2         0.0374939379
    3    3        -0.3380070691
    4    3         0.0000001829
    5    3        -0.0000000011
    6    3         0.0000204185
    7    3        -0.0000000000
    8    3        -0.0000002547
    9    3         0.1579168219
   10    3        -0.0000538024
   11    3        -0.0000630122
   12    3        -0.0000002944
   13    3        -0.0000612836
    4    4        -0.2345660705
    5    4        -0.0000000013
    6    4        -0.0000117179
    7    4        -0.0000010445
    8    4         0.0000009837
    9    4         0.0000408753
   10    4         0.0929529242
   11    4         0.0001984031
   12    4         0.0000540483
   13    4        -0.0000062964
    5    5        -0.2345960500
    6    5        -0.0000009167
    7    5         0.0000136437
    8    5        -0.0000000253
    9    5         0.0000033126
   10    5         0.0091595490
   11    5         0.0000158669
   12    5        -0.0000123779
   13    5        -0.0000012761
    6    6        -0.1929196091
    7    6         0.0000000000
    8    6        -0.0010880174
    9    6        -0.0000066955
   10    6        -0.0000689402
   11    6         0.0438003967
   12    6        -0.0000000215
   13    6         0.0014039130
    7    7        -0.1885314079
    8    7        -0.0000000000
    9    7        -0.0000000000
   10    7        -0.0000005850
   11    7        -0.0000000003
   12    7        -0.0000014811
   13    7        -0.0000000050
    8    8        -0.1681407806
    9    8        -0.0000111007
   10    8         0.0000034752
   11    8         0.0005088217
   12    8        -0.0000000019
   13    8         0.0775795191
    9    9        -0.2711808624
   10    9         0.0000098017
   11    9         0.0000746692
   12    9         0.0000001837
   13    9         0.0001284296
   10   10        -0.1834503345
   11   10        -0.0001844329
   12   10        -0.0000317565
   13   10         0.0000099266
   11   11        -0.1028366445
   12   11        -0.0000000995
   13   11         0.0001079079
   12   12        -0.1370257993
   13   12         0.0000000084
   13   13        -0.0610021237
 end_one_electron_integrals

 begin_two_electron_integrals
    1    1    1    1        0.5776111623
    1    1    2    1       -0.0328869053
    1    1    3    1       -0.0000002798
    1    1    4    1        0.0000009752
    1    1    5    1        0.0000000755
    1    1    6    1       -0.0032827166
    1    1    7    1       -0.0000000000
    1    1    8    1       -0.0437955949
    1    1    9    1       -0.0000090286
    1    1   10    1       -0.0000023663
    1    1   11    1        0.0022032201
    1    1   12    1       -0.0000000036
    1    1   13    1        0.0472798591
    1    1    2    2        0.1393004823
    1    1    3    2        0.0000030710
    1    1    4    2        0.0000004886
    1    1    5    2        0.0000000308
    1    1    6    2        0.0015172444
    1    1    7    2        0.0000000000
    1    1    8    2        0.0349869946
    1    1    9    2        0.0000008672
    1    1   10    2       -0.0000009993
    1    1   11    2       -0.0004533413
    1    1   12    2        0.0000000008
    1    1   13    2       -0.0210502915
    1    1    3    3        0.2152609659
    1    1    4    3       -0.0000000929
    1    1    5    3        0.0000000006
    1    1    6    3       -0.0000101090
    1    1    7    3        0.0000000000
    1    1    8    3        0.0000006970
    1    1    9    3       -0.0906692836
    1    1   10    3        0.0000300949
    1    1   11    3        0.0000356538
    1    1   12    3        0.0000002075
    1    1   13    3        0.0000390298
    1    1    4    4        0.1612583855
    1    1    5    4        0.0000000007
    1    1    6    4        0.0000059201
    1    1    7    4        0.0000005129
    1    1    8    4       -0.0000003417
    1    1    9    4       -0.0000213806
    1    1   10    4       -0.0486431488
    1    1   11    4       -0.0001038366
    1    1   12    4       -0.0000282444
    1    1   13    4        0.0000034687
    1    1    5    5        0.1612740901
    1    1    6    5        0.0000004632
    1    1    7    5       -0.0000066948
    1    1    8    5        0.0000000238
    1    1    9    5       -0.0000017338
    1    1   10    5       -0.0047939274
    1    1   11    5       -0.0000083063
    1    1   12    5        0.0000064889
    1    1   13    5        0.0000006700
    1    1    6    6        0.1400580845
    1    1    7    6       -0.0000000000
    1    1    8    6        0.0007655752
    1    1    9    6        0.0000039299
    1    1   10    6        0.0000345897
    1    1   11    6       -0.0220634600
    1    1   12    6        0.0000000109
    1    1   13    6       -0.0009496538
    1    1    7    7        0.1383182217
    1    1    8    7        0.0000000000
    1    1    9    7       -0.0000000000
    1    1   10    7        0.0000002860
    1    1   11    7        0.0000000001
    1    1   12    7        0.0000007438
    1    1   13    7        0.0000000025
    1    1    8    8        0.1439253412
    1    1    9    8        0.0000055763
    1    1   10    8       -0.0000018612
    1    1   11    8       -0.0004122078
    1    1   12    8        0.0000000009
    1    1   13    8       -0.0420301053
    1    1    9    9        0.2198569548
    1    1   10    9       -0.0000008994
    1    1   11    9       -0.0000359289
    1    1   12    9       -0.0000000713
    1    1   13    9       -0.0000779866
    1    1   10   10        0.1795999378
    1    1   11   10        0.0000935198
    1    1   12   10        0.0000164803
    1    1   13   10       -0.0000033765
    1    1   11   11        0.1387180544
    1    1   12   11        0.0000000513
    1    1   13   11        0.0001245626
    1    1   12   12        0.1559867011
    1    1   13   12       -0.0000000044
    1    1   13   13        0.1470661135
    2    1    2    1        0.0029663826
    2    1    3    1        0.0000019327
    2    1    4    1        0.0000006740
    2    1    5    1        0.0000000494
    2    1    6    1        0.0003218053
    2    1    7    1        0.0000000000
    2    1    8    1        0.0041137981
    2    1    9    1       -0.0000011543
    2    1   10    1       -0.0000007905
    2    1   11    1       -0.0002310847
    2    1   12    1        0.0000000001
    2    1   13    1       -0.0045986716
    2    1    2    2       -0.0005718160
    2    1    3    2        0.0000038005
    2    1    4    2        0.0000044421
    2    1    5    2        0.0000003285
    2    1    6    2        0.0000167294
    2    1    7    2       -0.0000000000
    2    1    8    2       -0.0008056650
    2    1    9    2        0.0000009655
    2    1   10    2       -0.0000004865
    2    1   11    2       -0.0000028874
    2    1   12    2        0.0000000052
    2    1   13    2        0.0008812189
    2    1    3    3       -0.0037550067
    2    1    4    3        0.0000000088
    2    1    5    3        0.0000000002
    2    1    6    3        0.0000030473
    2    1    7    3       -0.0000000000
    2    1    8    3        0.0000013891
    2    1    9    3        0.0043260735
    2    1   10    3       -0.0000012110
    2    1   11    3       -0.0000030902
    2    1   12    3        0.0000041294
    2    1   13    3       -0.0000037270
    2    1    4    4       -0.0009807388
    2    1    5    4        0.0000000004
    2    1    6    4       -0.0000013808
    2    1    7    4       -0.0000001713
    2    1    8    4        0.0000010314
    2    1    9    4        0.0000006101
    2    1   10    4        0.0013878250
    2    1   11    4        0.0000035220
    2    1   12    4        0.0000052321
    2    1   13    4       -0.0000006059
    2    1    5    5       -0.0009812145
    2    1    6    5       -0.0000001031
    2    1    7    5        0.0000023067
    2    1    8    5        0.0000000749
    2    1    9    5        0.0000000498
    2    1   10    5        0.0001367864
    2    1   11    5        0.0000002789
    2    1   12    5        0.0000008134
    2    1   13    5       -0.0000000587
    2    1    6    6       -0.0002463741
    2    1    7    6        0.0000000000
    2    1    8    6       -0.0000077407
    2    1    9    6       -0.0000022148
    2    1   10    6        0.0000011958
    2    1   11    6        0.0002178836
    2    1   12    6        0.0000000096
    2    1   13    6        0.0000479255
    2    1    7    7       -0.0002571582
    2    1    8    7        0.0000000000
    2    1    9    7       -0.0000000000
    2    1   10    7       -0.0000000776
    2    1   11    7       -0.0000000000
    2    1   12    7       -0.0000000100
    2    1   13    7       -0.0000000001
    2    1    8    8       -0.0011660523
    2    1    9    8       -0.0000025783
    2    1   10    8       -0.0000034807
    2    1   11    8       -0.0000205985
    2    1   12    8       -0.0000000033
    2    1   13    8        0.0013340410
    2    1    9    9       -0.0053228263
    2    1   10    9        0.0000004869
    2    1   11    9        0.0000041403
    2    1   12    9        0.0000020643
    2    1   13    9        0.0000051852
    2    1   10   10       -0.0021830796
    2    1   11   10       -0.0000055839
    2    1   12   10       -0.0000006252
    2    1   13   10        0.0000011145
    2    1   11   11       -0.0002989653
    2    1   12   11        0.0000000002
    2    1   13   11        0.0000112577
    2    1   12   12       -0.0005661792
    2    1   13   12        0.0000000003
    2    1   13   13       -0.0015725223
    3    1    3    1        0.0194447285
    3    1    4    1       -0.0000000348
    3    1    5    1        0.0000000001
    3    1    6    1       -0.0000003335
    3    1    7    1        0.0000000000
    3    1    8    1        0.0000011404
    3    1    9    1       -0.0234175561
    3    1   10    1        0.0000064227
    3    1   11    1        0.0000082748
    3    1   12    1        0.0000001174
    3    1   13    1        0.0000166725
    3    1    2    2        0.0001173774
    3    1    3    2        0.0068163867
    3    1    4    2       -0.0000000384
    3    1    5    2       -0.0000000026
    3    1    6    2        0.0001401724
    3    1    7    2       -0.0000000000
    3    1    8    2       -0.0000334158
    3    1    9    2        0.0008666370
    3    1   10    2        0.0000003455
    3    1   11    2       -0.0000320249
    3    1   12    2        0.0000010951
    3    1   13    2        0.0000339559
    3    1    3    3        0.0000018874
    3    1    4    3       -0.0000007532
    3    1    5    3       -0.0000000633
    3    1    6    3        0.0051651466
    3    1    7    3        0.0000000000
    3    1    8    3        0.0046945900
    3    1    9    3       -0.0000017655
    3    1   10    3        0.0000077449
    3    1   11    3       -0.0037659479
    3    1   12    3        0.0000000429
    3    1   13    3       -0.0039583818
    3    1    4    4        0.0000933162
    3    1    5    4       -0.0000000002
    3    1    6    4       -0.0000000391
    3    1    7    4       -0.0000000008
    3    1    8    4       -0.0000000223
    3    1    9    4        0.0000019472
    3    1   10    4        0.0000700695
    3    1   11    4        0.0000002167
    3    1   12    4        0.0088801882
    3    1   13    4       -0.0000000084
    3    1    5    5        0.0000932678
    3    1    6    5       -0.0000000019
    3    1    7    5        0.0000000060
    3    1    8    5       -0.0000000015
    3    1    9    5        0.0000001512
    3    1   10    5        0.0000064103
    3    1   11    5        0.0000000163
    3    1   12    5        0.0020809904
    3    1   13    5       -0.0000000012
    3    1    6    6        0.0002105959
    3    1    7    6        0.0000000004
    3    1    8    6        0.0000288871
    3    1    9    6       -0.0046934275
    3    1   10    6        0.0000025351
    3    1   11    6       -0.0001047388
    3    1   12    6        0.0000027959
    3    1   13    6        0.0000624136
    3    1    7    7        0.0000877688
    3    1    8    7        0.0000000001
    3    1    9    7       -0.0000000000
    3    1   10    7       -0.0000008337
    3    1   11    7       -0.0000000002
    3    1   12    7       -0.0000003774
    3    1   13    7        0.0000000047
    3    1    8    8        0.0001267127
    3    1    9    8       -0.0037386010
    3    1   10    8        0.0000024882
    3    1   11    8       -0.0000950274
    3    1   12    8       -0.0000000092
    3    1   13    8        0.0000311223
    3    1    9    9        0.0000026725
    3    1   10    9       -0.0000107915
    3    1   11    9        0.0051382537
    3    1   12    9       -0.0000013834
    3    1   13    9        0.0031188352
    3    1   10   10        0.0001057286
    3    1   11   10       -0.0000016181
    3    1   12   10       -0.0031698911
    3    1   13   10       -0.0000011924
    3    1   11   11        0.0001707086
    3    1   12   11       -0.0000068722
    3    1   13   11        0.0000377935
    3    1   12   12        0.0000077384
    3    1   13   12        0.0000004577
    3    1   13   13        0.0001474904
    4    1    4    1        0.0027876456
    4    1    5    1        0.0000000000
    4    1    6    1        0.0000001167
    4    1    7    1       -0.0000000177
    4    1    8    1        0.0000002769
    4    1    9    1       -0.0000018721
    4    1   10    1       -0.0043371293
    4    1   11    1       -0.0000092814
    4    1   12    1       -0.0000024382
    4    1   13    1        0.0000006345
    4    1    2    2        0.0000836804
    4    1    3    2       -0.0000000029
    4    1    4    2        0.0039741690
    4    1    5    2        0.0000000005
    4    1    6    2       -0.0000505435
    4    1    7    2       -0.0000064653
    4    1    8    2       -0.0000240965
    4    1    9    2       -0.0000005895
    4    1   10    2       -0.0013769155
    4    1   11    2        0.0000073823
    4    1   12    2        0.0000004061
    4    1   13    2        0.0000268473
    4    1    3    3        0.0000402112
    4    1    4    3        0.0000007925
    4    1    5    3       -0.0000000000
    4    1    6    3       -0.0000000117
    4    1    7    3       -0.0000000013
    4    1    8    3       -0.0000000155
    4    1    9    3        0.0000553364
    4    1   10    3       -0.0000018680
    4    1   11    3        0.0000000015
    4    1   12    3        0.0047091586
    4    1   13    3        0.0000000042
    4    1    4    4        0.0000342609
    4    1    5    4        0.0000024644
    4    1    6    4       -0.0008676330
    4    1    7    4       -0.0002435883
    4    1    8    4        0.0023046334
    4    1    9    4        0.0000007815
    4    1   10    4        0.0000309877
    4    1   11    4        0.0005288468
    4    1   12    4       -0.0000000736
    4    1   13    4       -0.0018445141
    4    1    5    5        0.0000332376
    4    1    6    5       -0.0000000007
    4    1    7    5        0.0016369604
    4    1    8    5       -0.0000000012
    4    1    9    5        0.0000000022
    4    1   10    5        0.0000057053
    4    1   11    5        0.0000000073
    4    1   12    5        0.0000000278
    4    1   13    5        0.0000000003
    4    1    6    6        0.0000843418
    4    1    7    6        0.0000028260
    4    1    8    6       -0.0000095558
    4    1    9    6        0.0000006120
    4    1   10    6        0.0012881258
    4    1   11    6        0.0000528832
    4    1   12    6        0.0000062534
    4    1   13    6       -0.0000233560
    4    1    7    7        0.0001297474
    4    1    8    7       -0.0000011580
    4    1    9    7        0.0000000779
    4    1   10    7        0.0001356427
    4    1   11    7       -0.0000048630
    4    1   12    7       -0.0000001087
    4    1   13    7       -0.0000031453
    4    1    8    8        0.0000936366
    4    1    9    8       -0.0000016358
    4    1   10    8       -0.0036807651
    4    1   11    8        0.0000256898
    4    1   12    8       -0.0000023104
    4    1   13    8        0.0000280548
    4    1    9    9        0.0000864634
    4    1   10    9       -0.0000006529
    4    1   11    9       -0.0000005730
    4    1   12    9       -0.0000236576
    4    1   13    9        0.0000011909
    4    1   10   10        0.0000515306
    4    1   11   10       -0.0013096615
    4    1   12   10        0.0000000861
    4    1   13   10        0.0026273382
    4    1   11   11        0.0001225199
    4    1   12   11       -0.0000003804
    4    1   13   11       -0.0000083412
    4    1   12   12        0.0000370863
    4    1   13   12        0.0000010802
    4    1   13   13        0.0001120838
    5    1    5    1        0.0027890734
    5    1    6    1        0.0000000118
    5    1    7    1        0.0000002654
    5    1    8    1        0.0000000242
    5    1    9    1       -0.0000001547
    5    1   10    1       -0.0004274750
    5    1   11    1       -0.0000007448
    5    1   12    1        0.0000005969
    5    1   13    1        0.0000000832
    5    1    2    2        0.0000061939
    5    1    3    2        0.0000000002
    5    1    4    2        0.0000000004
    5    1    5    2        0.0039751857
    5    1    6    2       -0.0000037368
    5    1    7    2        0.0000874108
    5    1    8    2       -0.0000017819
    5    1    9    2       -0.0000000474
    5    1   10    2       -0.0001356666
    5    1   11    2        0.0000005286
    5    1   12    2        0.0000004536
    5    1   13    2        0.0000019986
    5    1    3    3        0.0000029755
    5    1    4    3       -0.0000000001
    5    1    5    3        0.0000007928
    5    1    6    3        0.0000000003
    5    1    7    3        0.0000000124
    5    1    8    3       -0.0000000009
    5    1    9    3        0.0000040971
    5    1   10    3       -0.0000004559
    5    1   11    3       -0.0000000007
    5    1   12    3        0.0011038087
    5    1   13    3        0.0000000026
    5    1    4    4        0.0000072597
    5    1    5    4       -0.0000315704
    5    1    6    4       -0.0000000007
    5    1    7    4        0.0016371426
    5    1    8    4       -0.0000000012
    5    1    9    4        0.0000000020
    5    1   10    4        0.0000041171
    5    1   11    4        0.0000000064
    5    1   12    4        0.0000000155
    5    1   13    4       -0.0000000022
    5    1    5    5       -0.0000022623
    5    1    6    5       -0.0008684602
    5    1    7    5        0.0002436694
    5    1    8    5        0.0023057762
    5    1    9    5        0.0000007529
    5    1   10    5       -0.0000353169
    5    1   11    5        0.0005290938
    5    1   12    5        0.0000000369
    5    1   13    5       -0.0018453731
    5    1    6    6        0.0000062387
    5    1    7    6       -0.0000381793
    5    1    8    6       -0.0000007067
    5    1    9    6        0.0000000479
    5    1   10    6        0.0001270484
    5    1   11    6        0.0000039315
    5    1   12    6       -0.0000007201
    5    1   13    6       -0.0000018571
    5    1    7    7        0.0000096068
    5    1    8    7        0.0000157049
    5    1    9    7       -0.0000011554
    5    1   10    7       -0.0027366557
    5    1   11    7        0.0000652195
    5    1   12    7        0.0000019652
    5    1   13    7        0.0000419431
    5    1    8    8        0.0000069380
    5    1    9    8       -0.0000001320
    5    1   10    8       -0.0003627742
    5    1   11    8        0.0000018545
    5    1   12    8        0.0000005048
    5    1   13    8        0.0000021084
    5    1    9    9        0.0000063992
    5    1   10    9       -0.0000000720
    5    1   11    9       -0.0000000451
    5    1   12    9       -0.0000055557
    5    1   13    9        0.0000000960
    5    1   10   10        0.0000017991
    5    1   11   10       -0.0001290772
    5    1   12   10       -0.0000002522
    5    1   13   10        0.0002589461
    5    1   11   11        0.0000090328
    5    1   12   11        0.0000001454
    5    1   13   11       -0.0000005801
    5    1   12   12       -0.0000081048
    5    1   13   12       -0.0000004854
    5    1   13   13        0.0000082496
    6    1    6    1        0.0002828313
    6    1    7    1        0.0000000000
    6    1    8    1        0.0004447668
    6    1    9    1        0.0000008694
    6    1   10    1        0.0000002013
    6    1   11    1       -0.0003117030
    6    1   12    1        0.0000000003
    6    1   13    1       -0.0004954721
    6    1    2    2       -0.0000471122
    6    1    3    2        0.0000054132
    6    1    4    2       -0.0000026916
    6    1    5    2       -0.0000001954
    6    1    6    2        0.0009241085
    6    1    7    2        0.0000000001
    6    1    8    2       -0.0000876693
    6    1    9    2        0.0000010538
    6    1   10    2        0.0000011712
    6    1   11    2       -0.0004369114
    6    1   12    2        0.0000000051
    6    1   13    2        0.0000968485
    6    1    3    3        0.0005809173
    6    1    4    3        0.0000000001
    6    1    5    3        0.0000000002
    6    1    6    3        0.0000035393
    6    1    7    3        0.0000000000
    6    1    8    3        0.0000019163
    6    1    9    3       -0.0007560890
    6    1   10    3        0.0000003218
    6    1   11    3       -0.0000014920
    6    1   12    3       -0.0000018296
    6    1   13    3       -0.0000007225
    6    1    4    4       -0.0002746754
    6    1    5    4       -0.0000000007
    6    1    6    4        0.0000008967
    6    1    7    4        0.0000000857
    6    1    8    4       -0.0000005242
    6    1    9    4        0.0000002534
    6    1   10    4        0.0005483893
    6    1   11    4        0.0000014692
    6    1   12    4        0.0000073556
    6    1   13    4        0.0000000087
    6    1    5    5       -0.0002750509
    6    1    6    5        0.0000000641
    6    1    7    5       -0.0000011302
    6    1    8    5       -0.0000000374
    6    1    9    5        0.0000000201
    6    1   10    5        0.0000540749
    6    1   11    5        0.0000001174
    6    1   12    5        0.0000010674
    6    1   13    5       -0.0000000379
    6    1    6    6        0.0003478683
    6    1    7    6       -0.0000000000
    6    1    8    6        0.0007252126
    6    1    9    6       -0.0000022740
    6    1   10    6        0.0000011455
    6    1   11    6       -0.0007448882
    6    1   12    6        0.0000000002
    6    1   13    6       -0.0002010983
    6    1    7    7       -0.0003357523
    6    1    8    7        0.0000000000
    6    1    9    7        0.0000000000
    6    1   10    7        0.0000000323
    6    1   11    7        0.0000000001
    6    1   12    7       -0.0000000272
    6    1   13    7       -0.0000000000
    6    1    8    8       -0.0001414115
    6    1    9    8       -0.0000035592
    6    1   10    8        0.0000035949
    6    1   11    8       -0.0007826598
    6    1   12    8        0.0000000016
    6    1   13    8        0.0001496993
    6    1    9    9        0.0004063482
    6    1   10    9       -0.0000004665
    6    1   11    9        0.0000023936
    6    1   12    9       -0.0000017043
    6    1   13    9        0.0000014126
    6    1   10   10       -0.0007532112
    6    1   11   10       -0.0000019108
    6    1   12   10        0.0000003782
    6    1   13   10       -0.0000016215
    6    1   11   11        0.0004394847
    6    1   12   11        0.0000000000
    6    1   13   11        0.0006589992
    6    1   12   12        0.0000600065
    6    1   13   12        0.0000000004
    6    1   13   13       -0.0001927823
    7    1    7    1        0.0001581972
    7    1    8    1        0.0000000000
    7    1    9    1       -0.0000000000
    7    1   10    1       -0.0000000065
    7    1   11    1       -0.0000000000
    7    1   12    1        0.0000000064
    7    1   13    1        0.0000000000
    7    1    2    2        0.0000000001
    7    1    3    2       -0.0000000000
    7    1    4    2       -0.0000003914
    7    1    5    2        0.0000053203
    7    1    6    2       -0.0000000000
    7    1    7    2        0.0007769735
    7    1    8    2       -0.0000000000
    7    1    9    2       -0.0000000000
    7    1   10    2       -0.0000000179
    7    1   11    2       -0.0000000000
    7    1   12    2        0.0000000135
    7    1   13    2        0.0000000001
    7    1    3    3        0.0000000000
    7    1    4    3       -0.0000000005
    7    1    5    3        0.0000000062
    7    1    6    3        0.0000000000
    7    1    7    3        0.0000002748
    7    1    8    3        0.0000000000
    7    1    9    3        0.0000000000
    7    1   10    3       -0.0000001000
    7    1   11    3       -0.0000000000
    7    1   12    3        0.0000006898
    7    1   13    3        0.0000000006
    7    1    4    4       -0.0000404033
    7    1    5    4        0.0002715406
    7    1    6    4        0.0000000960
    7    1    7    4        0.0000027177
    7    1    8    4       -0.0000000844
    7    1    9    4        0.0000000205
    7    1   10    4        0.0000346350
    7    1   11    4        0.0000000396
    7    1   12    4       -0.0000000188
    7    1   13    4        0.0000000002
    7    1    5    5        0.0000404190
    7    1    6    5       -0.0000013012
    7    1    7    5        0.0000002029
    7    1    8    5        0.0000011676
    7    1    9    5       -0.0000003034
    7    1   10    5       -0.0006988013
    7    1   11    5       -0.0000006651
    7    1   12    5        0.0000004199
    7    1   13    5       -0.0000001475
    7    1    6    6        0.0000000001
    7    1    7    6       -0.0002476349
    7    1    8    6       -0.0000000000
    7    1    9    6        0.0000000000
    7    1   10    6        0.0000000336
    7    1   11    6        0.0000000001
    7    1   12    6       -0.0000000239
    7    1   13    6       -0.0000000003
    7    1    7    7        0.0000000001
    7    1    8    7        0.0005880357
    7    1    9    7        0.0000004753
    7    1   10    7       -0.0000045211
    7    1   11    7        0.0006176413
    7    1   12    7        0.0000000052
    7    1   13    7       -0.0001416467
    7    1    8    8        0.0000000001
    7    1    9    8       -0.0000000000
    7    1   10    8       -0.0000001022
    7    1   11    8       -0.0000000000
    7    1   12    8        0.0000000248
    7    1   13    8        0.0000000001
    7    1    9    9        0.0000000001
    7    1   10    9       -0.0000000207
    7    1   11    9       -0.0000000000
    7    1   12    9        0.0000004374
    7    1   13    9        0.0000000002
    7    1   10   10        0.0000363543
    7    1   11   10        0.0000000117
    7    1   12   10       -0.0000001743
    7    1   13   10        0.0000000168
    7    1   11   11        0.0000000001
    7    1   12   11        0.0000000128
    7    1   13   11       -0.0000000000
    7    1   12   12        0.0000633736
    7    1   13   12       -0.0000000204
    7    1   13   13       -0.0000000001
    8    1    8    1        0.0057539991
    8    1    9    1        0.0000000547
    8    1   10    1       -0.0000002190
    8    1   11    1       -0.0003204505
    8    1   12    1       -0.0000000002
    8    1   13    1       -0.0064823428
    8    1    2    2       -0.0006050179
    8    1    3    2        0.0000016433
    8    1    4    2        0.0000018412
    8    1    5    2        0.0000001412
    8    1    6    2        0.0000014730
    8    1    7    2        0.0000000001
    8    1    8    2       -0.0008475046
    8    1    9    2        0.0000000313
    8    1   10    2       -0.0000006784
    8    1   11    2        0.0000006591
    8    1   12    2       -0.0000000068
    8    1   13    2        0.0010214295
    8    1    3    3       -0.0043353993
    8    1    4    3        0.0000000008
    8    1    5    3       -0.0000000005
    8    1    6    3        0.0000020633
    8    1    7    3        0.0000000000
    8    1    8    3        0.0000009564
    8    1    9    3        0.0052069550
    8    1   10    3       -0.0000014114
    8    1   11    3       -0.0000032265
    8    1   12    3        0.0000017663
    8    1   13    3       -0.0000042754
    8    1    4    4       -0.0009294699
    8    1    5    4       -0.0000000006
    8    1    6    4       -0.0000009221
    8    1    7    4       -0.0000001029
    8    1    8    4        0.0000009223
    8    1    9    4        0.0000006066
    8    1   10    4        0.0013977591
    8    1   11    4        0.0000035461
    8    1   12    4        0.0000028136
    8    1   13    4       -0.0000004951
    8    1    5    5       -0.0009299358
    8    1    6    5       -0.0000000705
    8    1    7    5        0.0000014143
    8    1    8    5        0.0000000700
    8    1    9    5        0.0000000497
    8    1   10    5        0.0001377681
    8    1   11    5        0.0000002819
    8    1   12    5        0.0000002483
    8    1   13    5       -0.0000000529
    8    1    6    6       -0.0001095939
    8    1    7    6       -0.0000000000
    8    1    8    6       -0.0000253108
    8    1    9    6       -0.0000016750
    8    1   10    6        0.0000010040
    8    1   11    6        0.0000904328
    8    1   12    6        0.0000000023
    8    1   13    6        0.0000626847
    8    1    7    7       -0.0001311175
    8    1    8    7        0.0000000000
    8    1    9    7       -0.0000000000
    8    1   10    7       -0.0000000512
    8    1   11    7        0.0000000001
    8    1   12    7       -0.0000000056
    8    1   13    7        0.0000000000
    8    1    8    8       -0.0013059901
    8    1    9    8       -0.0000012491
    8    1   10    8       -0.0000015251
    8    1   11    8       -0.0000070278
    8    1   12    8        0.0000000003
    8    1   13    8        0.0015248433
    8    1    9    9       -0.0065150519
    8    1   10    9        0.0000007295
    8    1   11    9        0.0000039160
    8    1   12    9        0.0000006602
    8    1   13    9        0.0000058056
    8    1   10   10       -0.0023071012
    8    1   11   10       -0.0000057526
    8    1   12   10       -0.0000012364
    8    1   13   10        0.0000009079
    8    1   11   11       -0.0001483094
    8    1   12   11       -0.0000000034
    8    1   13   11       -0.0000076091
    8    1   12   12       -0.0004601354
    8    1   13   12        0.0000000006
    8    1   13   13       -0.0018587435
    9    1    9    1        0.0284686917
    9    1   10    1       -0.0000046980
    9    1   11    1       -0.0000104001
    9    1   12    1        0.0000000356
    9    1   13    1       -0.0000219538
    9    1    2    2       -0.0001146704
    9    1    3    2       -0.0065241344
    9    1    4    2       -0.0000021853
    9    1    5    2       -0.0000001771
    9    1    6    2       -0.0001383806
    9    1    7    2       -0.0000000003
    9    1    8    2        0.0000300899
    9    1    9    2       -0.0008178747
    9    1   10    2        0.0000005625
    9    1   11    2        0.0000341430
    9    1   12    2        0.0000010703
    9    1   13    2       -0.0000328168
    9    1    3    3       -0.0000030371
    9    1    4    3        0.0000027382
    9    1    5    3        0.0000002108
    9    1    6    3       -0.0055516665
    9    1    7    3       -0.0000000000
    9    1    8    3       -0.0046729988
    9    1    9    3        0.0000031854
    9    1   10    3       -0.0000092150
    9    1   11    3        0.0042773719
    9    1   12    3       -0.0000028377
    9    1   13    3        0.0040237259
    9    1    4    4       -0.0000911797
    9    1    5    4        0.0000000004
    9    1    6    4        0.0000006445
    9    1    7    4        0.0000000723
    9    1    8    4       -0.0000014299
    9    1    9    4       -0.0000009836
    9    1   10    4       -0.0000673390
    9    1   11    4       -0.0000005955
    9    1   12    4       -0.0088062311
    9    1   13    4        0.0000011993
    9    1    5    5       -0.0000911337
    9    1    6    5        0.0000000505
    9    1    7    5       -0.0000010689
    9    1    8    5       -0.0000001156
    9    1    9    5       -0.0000000803
    9    1   10    5       -0.0000061453
    9    1   11    5       -0.0000000468
    9    1   12    5       -0.0020636703
    9    1   13    5        0.0000000973
    9    1    6    6       -0.0002092002
    9    1    7    6       -0.0000000002
    9    1    8    6       -0.0000309105
    9    1    9    6        0.0049778065
    9    1   10    6       -0.0000034261
    9    1   11    6        0.0001068978
    9    1   12    6       -0.0000028144
    9    1   13    6       -0.0000603706
    9    1    7    7       -0.0000847699
    9    1    8    7       -0.0000000002
    9    1    9    7        0.0000000000
    9    1   10    7        0.0000008412
    9    1   11    7       -0.0000000001
    9    1   12    7        0.0000005661
    9    1   13    7       -0.0000000046
    9    1    8    8       -0.0001225385
    9    1    9    8        0.0035354220
    9    1   10    8       -0.0000002050
    9    1   11    8        0.0000944932
    9    1   12    8        0.0000000832
    9    1   13    8       -0.0000284398
    9    1    9    9       -0.0000045722
    9    1   10    9        0.0000123742
    9    1   11    9       -0.0055903779
    9    1   12    9        0.0000016944
    9    1   13    9       -0.0030290580
    9    1   10   10       -0.0001020754
    9    1   11   10        0.0000027068
    9    1   12   10        0.0035120507
    9    1   13   10       -0.0000004915
    9    1   11   11       -0.0001704927
    9    1   12   11        0.0000079577
    9    1   13   11       -0.0000368266
    9    1   12   12       -0.0000079534
    9    1   13   12       -0.0000005499
    9    1   13   13       -0.0001425782
   10    1   10    1        0.0069333594
   10    1   11    1        0.0000143096
   10    1   12    1        0.0000036953
   10    1   13    1       -0.0000011221
   10    1    2    2       -0.0001090553
   10    1    3    2        0.0000021129
   10    1    4    2       -0.0050993768
   10    1    5    2       -0.0005024944
   10    1    6    2        0.0000684464
   10    1    7    2       -0.0000028168
   10    1    8    2        0.0000276729
   10    1    9    2        0.0000011600
   10    1   10    2        0.0021447580
   10    1   11    2       -0.0000120198
   10    1   12    2        0.0000009848
   10    1   13    2       -0.0000352747
   10    1    3    3       -0.0000508835
   10    1    4    3       -0.0000000263
   10    1    5    3       -0.0000001017
   10    1    6    3        0.0000017049
   10    1    7    3       -0.0000000541
   10    1    8    3        0.0000014992
   10    1    9    3       -0.0000739802
   10    1   10    3        0.0000031801
   10    1   11    3       -0.0000012534
   10    1   12    3       -0.0063627388
   10    1   13    3       -0.0000012660
   10    1    4    4       -0.0000433899
   10    1    5    4        0.0000011970
   10    1    6    4        0.0013015538
   10    1    7    4        0.0001210353
   10    1    8    4       -0.0032471364
   10    1    9    4       -0.0000004269
   10    1   10    4       -0.0000384375
   10    1   11    4       -0.0008754003
   10    1   12    4        0.0000028357
   10    1   13    4        0.0026849018
   10    1    5    5       -0.0000457234
   10    1    6    5        0.0001283350
   10    1    7    5       -0.0024423970
   10    1    8    5       -0.0003200375
   10    1    9    5       -0.0000000193
   10    1   10    5       -0.0000027013
   10    1   11    5       -0.0000862862
   10    1   12    5        0.0000005676
   10    1   13    5        0.0002646177
   10    1    6    6       -0.0001093573
   10    1    7    6        0.0000012743
   10    1    8    6        0.0000158631
   10    1    9    6       -0.0000023897
   10    1   10    6       -0.0018788022
   10    1   11    6       -0.0000677086
   10    1   12    6       -0.0000069188
   10    1   13    6        0.0000295993
   10    1    7    7       -0.0001735926
   10    1    8    7       -0.0000005840
   10    1    9    7        0.0000000379
   10    1   10    7        0.0001870499
   10    1   11    7       -0.0000020556
   10    1   12    7       -0.0000001665
   10    1   13    7       -0.0000012706
   10    1    8    8       -0.0001200130
   10    1    9    8        0.0000010666
   10    1   10    8        0.0051045419
   10    1   11    8       -0.0000356000
   10    1   12    8        0.0000027741
   10    1   13    8       -0.0000340318
   10    1    9    9       -0.0001091741
   10    1   10    9        0.0000012236
   10    1   11    9        0.0000025570
   10    1   12    9        0.0003669155
   10    1   13    9       -0.0000007477
   10    1   10   10       -0.0000673433
   10    1   11   10        0.0019987346
   10    1   12   10       -0.0000012005
   10    1   13   10       -0.0038639589
   10    1   11   11       -0.0001571321
   10    1   12   11        0.0000003472
   10    1   13   11        0.0000109986
   10    1   12   12       -0.0000443481
   10    1   13   12       -0.0000014374
   10    1   13   13       -0.0001425588
   11    1   11    1        0.0003623067
   11    1   12    1        0.0000000086
   11    1   13    1        0.0003573853
   11    1    2    2        0.0000279973
   11    1    3    2       -0.0000018294
   11    1    4    2       -0.0000087873
   11    1    5    2       -0.0000007176
   11    1    6    2       -0.0008418321
   11    1    7    2       -0.0000000015
   11    1    8    2        0.0000537380
   11    1    9    2        0.0000000415
   11    1   10    2        0.0000028335
   11    1   11    2        0.0005700878
   11    1   12    2        0.0000000087
   11    1   13    2       -0.0000638895
   11    1    3    3       -0.0008308138
   11    1    4    3        0.0000000086
   11    1    5    3        0.0000000004
   11    1    6    3       -0.0000010175
   11    1    7    3       -0.0000000000
   11    1    8    3       -0.0000002866
   11    1    9    3        0.0010761946
   11    1   10    3       -0.0000003860
   11    1   11    3       -0.0000000628
   11    1   12    3       -0.0000119440
   11    1   13    3       -0.0000008276
   11    1    4    4        0.0002502472
   11    1    5    4       -0.0000000001
   11    1    6    4        0.0000028849
   11    1    7    4        0.0000002443
   11    1    8    4       -0.0000062311
   11    1    9    4       -0.0000002394
   11    1   10    4       -0.0005250022
   11    1   11    4       -0.0000027364
   11    1   12    4       -0.0000026148
   11    1   13    4        0.0000055248
   11    1    5    5        0.0002506032
   11    1    6    5        0.0000002321
   11    1    7    5       -0.0000037459
   11    1    8    5       -0.0000005032
   11    1    9    5       -0.0000000190
   11    1   10    5       -0.0000517669
   11    1   11    5       -0.0000002220
   11    1   12    5       -0.0000000344
   11    1   13    5        0.0000004763
   11    1    6    6       -0.0004820509
   11    1    7    6        0.0000000007
   11    1    8    6       -0.0007648696
   11    1    9    6        0.0000002379
   11    1   10    6       -0.0000051491
   11    1   11    6        0.0007407925
   11    1   12    6       -0.0000000121
   11    1   13    6        0.0003304714
   11    1    7    7        0.0004382248
   11    1    8    7       -0.0000000003
   11    1    9    7        0.0000000000
   11    1   10    7        0.0000002181
   11    1   11    7       -0.0000000011
   11    1   12    7        0.0000000257
   11    1   13    7       -0.0000000006
   11    1    8    8        0.0000983470
   11    1    9    8        0.0000015646
   11    1   10    8        0.0000074960
   11    1   11    8        0.0008446608
   11    1   12    8        0.0000000044
   11    1   13    8       -0.0001063324
   11    1    9    9       -0.0008473038
   11    1   10    9        0.0000006293
   11    1   11    9        0.0000000518
   11    1   12    9        0.0000017085
   11    1   13    9       -0.0000000011
   11    1   10   10        0.0007801169
   11    1   11   10        0.0000065693
   11    1   12   10       -0.0000010160
   11    1   13   10       -0.0000065814
   11    1   11   11       -0.0005586325
   11    1   12   11       -0.0000000005
   11    1   13   11       -0.0006336120
   11    1   12   12       -0.0000610000
   11    1   13   12       -0.0000000026
   11    1   13   13        0.0001426274
   12    1   12    1        0.0005868055
   12    1   13    1       -0.0000000007
   12    1    2    2        0.0000001657
   12    1    3    2        0.0000104786
   12    1    4    2        0.0000070670
   12    1    5    2        0.0000030047
   12    1    6    2        0.0000001669
   12    1    7    2        0.0000000796
   12    1    8    2       -0.0000003017
   12    1    9    2        0.0000141607
   12    1   10    2        0.0000081138
   12    1   11    2        0.0000001993
   12    1   12    2        0.0013738411
   12    1   13    2       -0.0000000051
   12    1    3    3       -0.0000000201
   12    1    4    3        0.0017632702
   12    1    5    3        0.0004132438
   12    1    6    3       -0.0000027857
   12    1    7    3        0.0000018514
   12    1    8    3       -0.0000038022
   12    1    9    3       -0.0000005876
   12    1   10    3       -0.0012433340
   12    1   11    3        0.0000020566
   12    1   12    3       -0.0000024943
   12    1   13    3        0.0000037530
   12    1    4    4        0.0000000445
   12    1    5    4       -0.0000000108
   12    1    6    4        0.0000124325
   12    1    7    4        0.0000006907
   12    1    8    4       -0.0000058655
   12    1    9    4       -0.0003939756
   12    1   10    4        0.0000003464
   12    1   11    4       -0.0000016309
   12    1   12    4        0.0000062283
   12    1   13    4        0.0000045768
   12    1    5    5        0.0000000457
   12    1    6    5        0.0000023194
   12    1    7    5        0.0000021358
   12    1    8    5       -0.0000005007
   12    1    9    5       -0.0000923587
   12    1   10    5       -0.0000000660
   12    1   11    5       -0.0000000942
   12    1   12    5        0.0000004314
   12    1   13    5        0.0000003465
   12    1    6    6        0.0000000374
   12    1    7    6        0.0000000038
   12    1    8    6       -0.0000001018
   12    1    9    6       -0.0000062239
   12    1   10    6        0.0000046978
   12    1   11    6        0.0000001158
   12    1   12    6        0.0003327151
   12    1   13    6        0.0000001785
   12    1    7    7        0.0000002276
   12    1    8    7       -0.0000000075
   12    1    9    7        0.0000021168
   12    1   10    7       -0.0000009649
   12    1   11    7        0.0000000750
   12    1   12    7        0.0001609876
   12    1   13    7        0.0000000406
   12    1    8    8        0.0000005103
   12    1    9    8       -0.0000090727
   12    1   10    8       -0.0000053262
   12    1   11    8       -0.0000002074
   12    1   12    8        0.0007792218
   12    1   13    8        0.0000002811
   12    1    9    9        0.0000009184
   12    1   10    9        0.0011173945
   12    1   11    9        0.0000040781
   12    1   12    9       -0.0000002865
   12    1   13    9        0.0000017672
   12    1   10   10       -0.0000006272
   12    1   11   10        0.0000027121
   12    1   12   10        0.0000073005
   12    1   13   10       -0.0000032299
   12    1   11   11        0.0000001292
   12    1   12   11       -0.0000490477
   12    1   13   11        0.0000002271
   12    1   12   12       -0.0000000248
   12    1   13   12       -0.0006569317
   12    1   13   13        0.0000007132
   13    1   13    1        0.0073594798
   13    1    2    2        0.0005534989
   13    1    3    2        0.0000042457
   13    1    4    2        0.0000016839
   13    1    5    2        0.0000001655
   13    1    6    2        0.0000171980
   13    1    7    2        0.0000000010
   13    1    8    2        0.0008162700
   13    1    9    2        0.0000010906
   13    1   10    2       -0.0000002051
   13    1   11    2       -0.0000116990
   13    1   12    2        0.0000000033
   13    1   13    2       -0.0009733658
   13    1    3    3        0.0040812250
   13    1    4    3       -0.0000000054
   13    1    5    3        0.0000000010
   13    1    6    3        0.0000030375
   13    1    7    3        0.0000000003
   13    1    8    3        0.0000025335
   13    1    9    3       -0.0051056594
   13    1   10    3        0.0000013582
   13    1   11    3       -0.0000003917
   13    1   12    3        0.0000016740
   13    1   13    3        0.0000017755
   13    1    4    4        0.0006869077
   13    1    5    4       -0.0000000000
   13    1    6    4       -0.0000001356
   13    1    7    4       -0.0000000258
   13    1    8    4        0.0000003741
   13    1    9    4       -0.0000004968
   13    1   10    4       -0.0011484539
   13    1   11    4       -0.0000025691
   13    1   12    4        0.0000050078
   13    1   13    4       -0.0000000069
   13    1    5    5        0.0006872934
   13    1    6    5       -0.0000000352
   13    1    7    5        0.0000005175
   13    1    8    5        0.0000000556
   13    1    9    5       -0.0000000411
   13    1   10    5       -0.0001131982
   13    1   11    5       -0.0000001951
   13    1   12    5        0.0000015080
   13    1   13    5       -0.0000000119
   13    1    6    6        0.0000392638
   13    1    7    6       -0.0000000005
   13    1    8    6        0.0000422844
   13    1    9    6       -0.0000024187
   13    1   10    6        0.0000000378
   13    1   11    6       -0.0000170449
   13    1   12    6        0.0000000059
   13    1   13    6       -0.0000723582
   13    1    7    7        0.0000545307
   13    1    8    7        0.0000000003
   13    1    9    7        0.0000000001
   13    1   10    7       -0.0000000446
   13    1   11    7        0.0000000007
   13    1   12    7        0.0000000020
   13    1   13    7        0.0000000003
   13    1    8    8        0.0012249904
   13    1    9    8       -0.0000018410
   13    1   10    8       -0.0000012658
   13    1   11    8       -0.0000137578
   13    1   12    8       -0.0000000004
   13    1   13    8       -0.0014905127
   13    1    9    9        0.0064531062
   13    1   10    9       -0.0000008562
   13    1   11    9        0.0000007978
   13    1   12    9        0.0000006082
   13    1   13    9       -0.0000036692
   13    1   10   10        0.0019377375
   13    1   11   10        0.0000038946
   13    1   12   10       -0.0000008758
   13    1   13   10        0.0000003460
   13    1   11   11        0.0000687164
   13    1   12   11       -0.0000000006
   13    1   13   11        0.0000270865
   13    1   12   12        0.0002314324
   13    1   13   12        0.0000000012
   13    1   13   13        0.0018186962
    2    2    2    2        0.1185215689
    2    2    3    2        0.0004219634
    2    2    4    2        0.0006353051
    2    2    5    2        0.0000470121
    2    2    6    2        0.0004384756
    2    2    7    2        0.0000000004
    2    2    8    2        0.0092422490
    2    2    9    2        0.0001813856
    2    2   10    2        0.0000288179
    2    2   11    2        0.0000090569
    2    2   12    2        0.0000039338
    2    2   13    2       -0.0019289893
    2    2    3    3        0.1281039382
    2    2    4    3        0.0000031144
    2    2    5    3        0.0000002306
    2    2    6    3        0.0002171670
    2    2    7    3       -0.0000000001
    2    2    8    3        0.0000802932
    2    2    9    3       -0.0086866370
    2    2   10    3        0.0000041925
    2    2   11    3       -0.0000630500
    2    2   12    3        0.0005675365
    2    2   13    3       -0.0000573671
    2    2    4    4        0.1237157201
    2    2    5    4        0.0000003649
    2    2    6    4       -0.0001320163
    2    2    7    4       -0.0000172944
    2    2    8    4        0.0000423310
    2    2    9    4       -0.0000016716
    2    2   10    4       -0.0084132578
    2    2   11    4        0.0000043564
    2    2   12    4        0.0004608003
    2    2   13    4       -0.0000437799
    2    2    5    5        0.1237134594
    2    2    6    5       -0.0000097712
    2    2    7    5        0.0002337429
    2    2    8    5        0.0000031482
    2    2    9    5       -0.0000001485
    2    2   10    5       -0.0008291309
    2    2   11    5        0.0000002178
    2    2   12    5        0.0001101605
    2    2   13    5       -0.0000031716
    2    2    6    6        0.1198456856
    2    2    7    6        0.0000000002
    2    2    8    6       -0.0000283962
    2    2    9    6       -0.0001486220
    2    2   10    6        0.0001456494
    2    2   11    6       -0.0061043362
    2    2   12    6        0.0000019056
    2    2   13    6       -0.0000514942
    2    2    7    7        0.1195081523
    2    2    8    7        0.0000000004
    2    2    9    7       -0.0000000009
    2    2   10    7       -0.0000080768
    2    2   11    7       -0.0000000046
    2    2   12    7        0.0000003710
    2    2   13    7       -0.0000000078
    2    2    8    8        0.1142642116
    2    2    9    8       -0.0002803459
    2    2   10    8       -0.0005071098
    2    2   11    8       -0.0000899254
    2    2   12    8       -0.0000012218
    2    2   13    8       -0.0094095147
    2    2    9    9        0.1225990907
    2    2   10    9        0.0000027530
    2    2   11    9        0.0001606868
    2    2   12    9        0.0003383947
    2    2   13    9        0.0000660693
    2    2   10   10        0.1216822304
    2    2   11   10       -0.0001220011
    2    2   12   10        0.0001013433
    2    2   13   10        0.0000686658
    2    2   11   11        0.1179649573
    2    2   12   11        0.0000008170
    2    2   13   11       -0.0000150663
    2    2   12   12        0.1248864723
    2    2   13   12       -0.0000001929
    2    2   13   13        0.1133239102
    3    2    3    2        0.0199868096
    3    2    4    2        0.0000023089
    3    2    5    2        0.0000001696
    3    2    6    2        0.0004606970
    3    2    7    2       -0.0000000002
    3    2    8    2       -0.0001946209
    3    2    9    2        0.0077502142
    3    2   10    2        0.0000000971
    3    2   11    2       -0.0000403375
    3    2   12    2        0.0001655453
    3    2   13    2        0.0001110237
    3    2    3    3        0.0000039806
    3    2    4    3        0.0001350818
    3    2    5    3        0.0000099847
    3    2    6    3        0.0075673927
    3    2    7    3        0.0000000001
    3    2    8    3        0.0066960771
    3    2    9    3       -0.0000042299
    3    2   10    3        0.0000005996
    3    2   11    3       -0.0028585665
    3    2   12    3        0.0000001151
    3    2   13    3       -0.0046567630
    3    2    4    4        0.0003321974
    3    2    5    4        0.0000000007
    3    2    6    4        0.0000021893
    3    2    7    4       -0.0000000654
    3    2    8    4       -0.0000019689
    3    2    9    4        0.0000929393
    3    2   10    4        0.0002817603
    3    2   11    4        0.0000011900
    3    2   12    4        0.0227150925
    3    2   13    4        0.0000002995
    3    2    5    5        0.0003320069
    3    2    6    5        0.0000001634
    3    2    7    5        0.0000008681
    3    2    8    5       -0.0000001459
    3    2    9    5        0.0000068913
    3    2   10    5        0.0000264942
    3    2   11    5        0.0000000916
    3    2   12    5        0.0053225267
    3    2   13    5        0.0000000169
    3    2    6    6        0.0006516239
    3    2    7    6        0.0000000012
    3    2    8    6        0.0000341515
    3    2    9    6       -0.0085839457
    3    2   10    6        0.0000074019
    3    2   11    6       -0.0002516063
    3    2   12    6        0.0000040260
    3    2   13    6        0.0002283629
    3    2    7    7        0.0003345638
    3    2    8    7        0.0000000004
    3    2    9    7        0.0000000000
    3    2   10    7       -0.0000028620
    3    2   11    7       -0.0000000007
    3    2   12    7        0.0000103574
    3    2   13    7        0.0000000161
    3    2    8    8        0.0005159771
    3    2    9    8       -0.0115064555
    3    2   10    8        0.0000047267
    3    2   11    8       -0.0003047467
    3    2   12    8       -0.0000188250
    3    2   13    8        0.0001717181
    3    2    9    9        0.0000031955
    3    2   10    9        0.0000505808
    3    2   11    9        0.0065262568
    3    2   12    9        0.0000004947
    3    2   13    9        0.0053373008
    3    2   10   10        0.0004224281
    3    2   11   10        0.0000000363
    3    2   12   10        0.0011265708
    3    2   13   10       -0.0000021663
    3    2   11   11        0.0005117055
    3    2   12   11        0.0000148121
    3    2   13   11        0.0001418870
    3    2   12   12        0.0000206047
    3    2   13   12       -0.0000060108
    3    2   13   13        0.0005979479
    4    2    4    2        0.0241381123
    4    2    5    2        0.0000003125
    4    2    6    2       -0.0003546396
    4    2    7    2       -0.0000449210
    4    2    8    2       -0.0003047489
    4    2    9    2        0.0000043923
    4    2   10    2        0.0015825904
    4    2   11    2        0.0000210926
    4    2   12    2        0.0001560323
    4    2   13    2        0.0001701289
    4    2    3    3        0.0002970415
    4    2    4    3        0.0001337302
    4    2    5    3        0.0000000009
    4    2    6    3       -0.0000005049
    4    2    7    3       -0.0000001884
    4    2    8    3       -0.0000018885
    4    2    9    3        0.0004301792
    4    2   10    3        0.0000129571
    4    2   11    3        0.0000008959
    4    2   12    3        0.0226042848
    4    2   13    3        0.0000005159
    4    2    4    4        0.0004433526
    4    2    5    4        0.0000471661
    4    2    6    4       -0.0027035611
    4    2    7    4       -0.0007644361
    4    2    8    4        0.0041092593
    4    2    9    4        0.0000619612
    4    2   10    4        0.0003053112
    4    2   11    4        0.0005549063
    4    2   12    4        0.0000020224
    4    2   13    4       -0.0030281750
    4    2    5    5        0.0000542348
    4    2    6    5       -0.0000002491
    4    2    7    5        0.0051354252
    4    2    8    5       -0.0000002510
    4    2    9    5        0.0000000222
    4    2   10    5        0.0000501124
    4    2   11    5       -0.0000000933
    4    2   12    5        0.0000002794
    4    2   13    5        0.0000000360
    4    2    6    6        0.0006206154
    4    2    7    6        0.0000155002
    4    2    8    6       -0.0000140351
    4    2    9    6        0.0000014365
    4    2   10    6        0.0050363244
    4    2   11    6        0.0004705883
    4    2   12    6        0.0000963864
    4    2   13    6       -0.0001776789
    4    2    7    7        0.0008680192
    4    2    8    7       -0.0000014684
    4    2    9    7        0.0000001398
    4    2   10    7        0.0006223694
    4    2   11    7       -0.0000329099
    4    2   12    7        0.0000002174
    4    2   13    7       -0.0000240947
    4    2    8    8        0.0008090983
    4    2    9    8       -0.0000114626
    4    2   10    8       -0.0176498529
    4    2   11    8        0.0001890212
    4    2   12    8       -0.0000315130
    4    2   13    8        0.0003144669
    4    2    9    9        0.0007075199
    4    2   10    9        0.0000700291
    4    2   11    9       -0.0000010347
    4    2   12    9        0.0098629255
    4    2   13    9        0.0000020397
    4    2   10   10        0.0004839803
    4    2   11   10       -0.0031339662
    4    2   12   10       -0.0000010560
    4    2   13   10        0.0051707868
    4    2   11   11        0.0009576939
    4    2   12   11        0.0000044668
    4    2   13   11       -0.0000967566
    4    2   12   12        0.0004729600
    4    2   13   12       -0.0000056853
    4    2   13   13        0.0009734181
    5    2    5    2        0.0241331848
    5    2    6    2       -0.0000262286
    5    2    7    2        0.0006070936
    5    2    8    2       -0.0000225515
    5    2    9    2        0.0000003305
    5    2   10    2        0.0001560742
    5    2   11    2        0.0000015821
    5    2   12    2        0.0000360874
    5    2   13    2        0.0000125789
    5    2    3    3        0.0000219740
    5    2    4    3        0.0000000008
    5    2    5    3        0.0001336692
    5    2    6    3       -0.0000000353
    5    2    7    3        0.0000025258
    5    2    8    3       -0.0000001400
    5    2    9    3        0.0000318446
    5    2   10    3       -0.0000000391
    5    2   11    3        0.0000000659
    5    2   12    3        0.0052967083
    5    2   13    3        0.0000000476
    5    2    4    4        0.0000688287
    5    2    5    4       -0.0002385936
    5    2    6    4       -0.0000002489
    5    2    7    4        0.0051380354
    5    2    8    4       -0.0000002506
    5    2    9    4        0.0000000208
    5    2   10    4        0.0000387937
    5    2   11    4       -0.0000000994
    5    2   12    4       -0.0000000113
    5    2   13    4        0.0000000218
    5    2    5    5       -0.0000320065
    5    2    6    5       -0.0027047087
    5    2    7    5        0.0007644786
    5    2    8    5        0.0041164340
    5    2    9    5        0.0000616448
    5    2   10    5       -0.0002970171
    5    2   11    5        0.0005563200
    5    2   12    5       -0.0000011171
    5    2   13    5       -0.0030297432
    5    2    6    6        0.0000459073
    5    2    7    6       -0.0002094440
    5    2    8    6       -0.0000010471
    5    2    9    6        0.0000001181
    5    2   10    6        0.0004969494
    5    2   11    6        0.0000348957
    5    2   12    6        0.0000084900
    5    2   13    6       -0.0000140018
    5    2    7    7        0.0000642430
    5    2    8    7        0.0000200199
    5    2    9    7       -0.0000023633
    5    2   10    7       -0.0125536616
    5    2   11    7        0.0004422522
    5    2   12    7        0.0000478900
    5    2   13    7        0.0003208363
    5    2    8    8        0.0000599050
    5    2    9    8       -0.0000008991
    5    2   10    8       -0.0017391230
    5    2   11    8        0.0000137659
    5    2   12    8       -0.0000022580
    5    2   13    8        0.0000234409
    5    2    9    9        0.0000523581
    5    2   10    9        0.0000062822
    5    2   11    9       -0.0000000833
    5    2   12    9        0.0023104414
    5    2   13    9        0.0000001719
    5    2   10   10        0.0000175909
    5    2   11   10       -0.0003087364
    5    2   12   10       -0.0000018497
    5    2   13   10        0.0005095991
    5    2   11   11        0.0000707805
    5    2   12   11       -0.0000003476
    5    2   13   11       -0.0000072219
    5    2   12   12       -0.0000471666
    5    2   13   12       -0.0000028294
    5    2   13   13        0.0000719409
    6    2    6    2        0.0130796305
    6    2    7    2        0.0000000007
    6    2    8    2        0.0000824068
    6    2    9    2        0.0001534392
    6    2   10    2        0.0000099631
    6    2   11    2       -0.0003327995
    6    2   12    2        0.0000021346
    6    2   13    2       -0.0000164343
    6    2    3    3        0.0037933178
    6    2    4    3        0.0000015764
    6    2    5    3        0.0000001171
    6    2    6    3        0.0002721926
    6    2    7    3        0.0000000005
    6    2    8    3        0.0001310419
    6    2    9    3       -0.0063376220
    6    2   10    3        0.0000036496
    6    2   11    3       -0.0001024417
    6    2   12    3       -0.0003106698
    6    2   13    3       -0.0000692491
    6    2    4    4        0.0002007366
    6    2    5    4       -0.0000004039
    6    2    6    4        0.0001650575
    6    2    7    4        0.0000075940
    6    2    8    4       -0.0000567654
    6    2    9    4        0.0000021782
    6    2   10    4        0.0026430451
    6    2   11    4        0.0000372805
    6    2   12    4        0.0005256462
    6    2   13    4        0.0000256100
    6    2    5    5        0.0002025293
    6    2    6    5        0.0000122072
    6    2    7    5       -0.0001025416
    6    2    8    5       -0.0000042087
    6    2    9    5        0.0000001672
    6    2   10    5        0.0002607986
    6    2   11    5        0.0000028035
    6    2   12    5        0.0001154551
    6    2   13    5        0.0000014234
    6    2    6    6        0.0015211302
    6    2    7    6       -0.0000000003
    6    2    8    6        0.0052895352
    6    2    9    6       -0.0001772230
    6    2   10    6       -0.0000517940
    6    2   11    6       -0.0104100565
    6    2   12    6        0.0000001093
    6    2   13    6        0.0037238410
    6    2    7    7       -0.0005016846
    6    2    8    7       -0.0000000002
    6    2    9    7        0.0000000008
    6    2   10    7        0.0000048517
    6    2   11    7        0.0000000034
    6    2   12    7       -0.0000002424
    6    2   13    7        0.0000000028
    6    2    8    8        0.0000635791
    6    2    9    8       -0.0002859034
    6    2   10    8        0.0002934477
    6    2   11    8       -0.0075734721
    6    2   12    8       -0.0000000198
    6    2   13    8       -0.0003506939
    6    2    9    9       -0.0007168272
    6    2   10    9        0.0000017092
    6    2   11    9        0.0002028953
    6    2   12    9       -0.0002051393
    6    2   13    9        0.0001077428
    6    2   10   10       -0.0003032999
    6    2   11   10        0.0000911631
    6    2   12   10        0.0000833238
    6    2   13   10       -0.0000851375
    6    2   11   11        0.0012447901
    6    2   12   11        0.0000002923
    6    2   13   11        0.0083785014
    6    2   12   12        0.0006284514
    6    2   13   12        0.0000001293
    6    2   13   13        0.0000440127
    7    2    7    2        0.0129785072
    7    2    8    2       -0.0000000001
    7    2    9    2       -0.0000000001
    7    2   10    2       -0.0000008658
    7    2   11    2       -0.0000000005
    7    2   12    2        0.0000005675
    7    2   13    2       -0.0000000015
    7    2    3    3        0.0000000002
    7    2    4    3       -0.0000002262
    7    2    5    3        0.0000030514
    7    2    6    3        0.0000000006
    7    2    7    3        0.0000683778
    7    2    8    3        0.0000000002
    7    2    9    3        0.0000000002
    7    2   10    3       -0.0000015341
    7    2   11    3       -0.0000000003
    7    2   12    3        0.0000868350
    7    2   13    3        0.0000000088
    7    2    4    4       -0.0001134090
    7    2    5    4        0.0007621970
    7    2    6    4        0.0000072883
    7    2    7    4        0.0002853411
    7    2    8    4       -0.0000070614
    7    2    9    4        0.0000000799
    7    2   10    4        0.0003410293
    7    2   11    4       -0.0000040322
    7    2   12    4       -0.0000010101
    7    2   13    4        0.0000027720
    7    2    5    5        0.0001134546
    7    2    6    5       -0.0000986023
    7    2    7    5        0.0000211214
    7    2    8    5        0.0000955740
    7    2    9    5       -0.0000013387
    7    2   10    5       -0.0068788692
    7    2   11    5        0.0000531065
    7    2   12    5        0.0000125641
    7    2   13    5       -0.0000401101
    7    2    6    6       -0.0000000001
    7    2    7    6       -0.0008178077
    7    2    8    6       -0.0000000001
    7    2    9    6        0.0000000008
    7    2   10    6        0.0000036828
    7    2   11    6        0.0000000020
    7    2   12    6       -0.0000004081
    7    2   13    6       -0.0000000216
    7    2    7    7        0.0000000010
    7    2    8    7        0.0048418843
    7    2    9    7        0.0000468526
    7    2   10    7       -0.0003645399
    7    2   11    7        0.0100696198
    7    2   12    7        0.0000020868
    7    2   13    7        0.0039817651
    7    2    8    8        0.0000000013
    7    2    9    8       -0.0000000012
    7    2   10    8       -0.0000115096
    7    2   11    8       -0.0000000060
    7    2   12    8        0.0000003053
    7    2   13    8        0.0000000058
    7    2    9    9        0.0000000004
    7    2   10    9       -0.0000008487
    7    2   11    9       -0.0000000006
    7    2   12    9        0.0000448271
[...]
   10    7   10   10        0.0000015374
   10    7   11   10        0.0001218182
   10    7   12   10        0.0000006859
   10    7   13   10       -0.0002299381
   10    7   11   11       -0.0000120477
   10    7   12   11       -0.0000007304
   10    7   13   11        0.0000010826
   10    7   12   12        0.0000341724
   10    7   13   12        0.0000016390
   10    7   13   13       -0.0000110106
   11    7   11    7        0.0090961912
   11    7   12    7        0.0000023714
   11    7   13    7        0.0030531952
   11    7    8    8       -0.0000000048
   11    7    9    8       -0.0000000005
   11    7   10    8       -0.0000081874
   11    7   11    8       -0.0000000060
   11    7   12    8        0.0000002627
   11    7   13    8        0.0000000021
   11    7    9    9       -0.0000000048
   11    7   10    9       -0.0000006577
   11    7   11    9       -0.0000000006
   11    7   12    9        0.0000285091
   11    7   13    9        0.0000000041
   11    7   10   10        0.0000491739
   11    7   11   10       -0.0000027756
   11    7   12   10       -0.0000053135
   11    7   13   10        0.0000020043
   11    7   11   11       -0.0000000101
   11    7   12   11        0.0000000905
   11    7   13   11       -0.0000000015
   11    7   12   12        0.0001209446
   11    7   13   12       -0.0000002897
   11    7   13   13       -0.0000000158
   12    7   12    7        0.0051042668
   12    7   13    7        0.0000025321
   12    7    8    8        0.0000005906
   12    7    9    8       -0.0000043409
   12    7   10    8       -0.0000002418
   12    7   11    8        0.0000000754
   12    7   12    8        0.0006072909
   12    7   13    8       -0.0000001430
   12    7    9    9        0.0000002543
   12    7   10    9       -0.0000859827
   12    7   11    9        0.0000064618
   12    7   12    9        0.0000005961
   12    7   13    9        0.0000047661
   12    7   10   10        0.0000005260
   12    7   11   10       -0.0000012054
   12    7   12   10       -0.0000040917
   12    7   13   10       -0.0000001623
   12    7   11   11        0.0000004158
   12    7   12   11        0.0001170519
   12    7   13   11        0.0000000022
   12    7   12   12        0.0000001706
   12    7   13   12       -0.0001858596
   12    7   13   13        0.0000006901
   13    7   13    7        0.0054339168
   13    7    8    8       -0.0000000091
   13    7    9    8       -0.0000000077
   13    7   10    8       -0.0000050755
   13    7   11    8       -0.0000000038
   13    7   12    8        0.0000000528
   13    7   13    8       -0.0000000022
   13    7    9    9       -0.0000000081
   13    7   10    9       -0.0000003475
   13    7   11    9        0.0000000054
   13    7   12    9        0.0000221674
   13    7   13    9        0.0000000061
   13    7   10   10       -0.0001545206
   13    7   11   10       -0.0000016030
   13    7   12   10       -0.0000074006
   13    7   13   10        0.0000011273
   13    7   11   11       -0.0000000140
   13    7   12   11       -0.0000000877
   13    7   13   11       -0.0000000052
   13    7   12   12       -0.0000852357
   13    7   13   12       -0.0000001182
   13    7   13   13       -0.0000000204
    8    8    8    8        0.1173205713
    8    8    9    8       -0.0004246803
    8    8   10    8       -0.0007366975
    8    8   11    8        0.0002296901
    8    8   12    8       -0.0000045640
    8    8   13    8       -0.0048361729
    8    8    9    9        0.1217906961
    8    8   10    9        0.0000075482
    8    8   11    9        0.0001520333
    8    8   12    9        0.0004679869
    8    8   13    9        0.0000069524
    8    8   10   10        0.1210121079
    8    8   11   10       -0.0001063875
    8    8   12   10        0.0001807973
    8    8   13   10       -0.0000233921
    8    8   11   11        0.1126867264
    8    8   12   11        0.0000011930
    8    8   13   11       -0.0001245710
    8    8   12   12        0.1192317786
    8    8   13   12       -0.0000016639
    8    8   13   13        0.1127873573
    9    8    9    8        0.0103195227
    9    8   10    8        0.0000070130
    9    8   11    8        0.0002027956
    9    8   12    8        0.0000886267
    9    8   13    8       -0.0001940971
    9    8    9    9        0.0000011354
    9    8   10    9       -0.0001272597
    9    8   11    9       -0.0028843759
    9    8   12    9       -0.0000040252
    9    8   13    9       -0.0020594278
    9    8   10   10       -0.0003055495
    9    8   11   10       -0.0000002186
    9    8   12   10       -0.0022008886
    9    8   13   10        0.0000009096
    9    8   11   11       -0.0003183440
    9    8   12   11        0.0000139323
    9    8   13   11       -0.0000797045
    9    8   12   12       -0.0000106752
    9    8   13   12        0.0000284112
    9    8   13   13       -0.0004385140
   10    8   10    8        0.0171331556
   10    8   11    8       -0.0001699187
   10    8   12    8        0.0000782316
   10    8   13    8       -0.0003387508
   10    8    9    9       -0.0005675095
   10    8   10    9       -0.0001117979
   10    8   11    9        0.0000033859
   10    8   12    9       -0.0070284856
   10    8   13    9        0.0000010582
   10    8   10   10       -0.0004658747
   10    8   11   10        0.0029755164
   10    8   12   10       -0.0000005787
   10    8   13   10       -0.0039831829
   10    8   11   11       -0.0007097918
   10    8   12   11       -0.0000151531
   10    8   13   11        0.0000727125
   10    8   12   12       -0.0004239955
   10    8   13   12        0.0000227425
   10    8   13   13       -0.0008050027
   11    8   11    8        0.0065374693
   11    8   12    8        0.0000005003
   11    8   13    8        0.0000142248
   11    8    9    9       -0.0005371861
   11    8   10    9       -0.0000009224
   11    8   11    9       -0.0001411706
   11    8   12    9        0.0001221104
   11    8   13    9       -0.0000675839
   11    8   10   10        0.0013979003
   11    8   11   10       -0.0000566594
   11    8   12   10       -0.0000556192
   11    8   13   10        0.0000447033
   11    8   11   11       -0.0026313333
   11    8   12   11       -0.0000004115
   11    8   13   11       -0.0046974460
   11    8   12   12        0.0000255294
   11    8   13   12        0.0000000481
   11    8   13   13        0.0001127773
   12    8   12    8        0.0038910908
   12    8   13    8       -0.0000037668
   12    8    9    9       -0.0000009450
   12    8   10    9       -0.0006993652
   12    8   11    9        0.0000472613
   12    8   12    9       -0.0000062345
   12    8   13    9        0.0000405822
   12    8   10   10       -0.0000024308
   12    8   11   10       -0.0000195769
   12    8   12   10       -0.0000645392
   12    8   13   10        0.0000277763
   12    8   11   11       -0.0000008931
   12    8   12   11        0.0001041560
   12    8   13   11        0.0000001551
   12    8   12   12       -0.0000002215
   12    8   13   12       -0.0009544989
   12    8   13   13       -0.0000045430
   13    8   13    8        0.0126267491
   13    8    9    9       -0.0157238986
   13    8   10    9        0.0000034145
   13    8   11    9        0.0000234745
   13    8   12    9        0.0002063016
   13    8   13    9       -0.0000371954
   13    8   10   10       -0.0141043134
   13    8   11   10       -0.0000223283
   13    8   12   10        0.0000901233
   13    8   13   10       -0.0000855732
   13    8   11   11       -0.0125652496
   13    8   12   11        0.0000002839
   13    8   13   11        0.0000731071
   13    8   12   12       -0.0135948881
   13    8   13   12       -0.0000017700
   13    8   13   13       -0.0069310251
    9    9    9    9        0.1518026757
    9    9   10    9        0.0000010613
    9    9   11    9       -0.0000083574
    9    9   12    9        0.0004259469
    9    9   13    9       -0.0000211472
    9    9   10   10        0.1336619965
    9    9   11   10       -0.0001135685
    9    9   12   10       -0.0000017675
    9    9   13   10        0.0000479125
    9    9   11   11        0.1240936395
    9    9   12   11        0.0000000477
    9    9   13   11       -0.0000555524
    9    9   12   12        0.1329589594
    9    9   13   12       -0.0000012776
    9    9   13   13        0.1204208263
   10    9   10    9        0.0051348584
   10    9   11    9       -0.0000520376
   10    9   12    9       -0.0000065592
   10    9   13    9       -0.0000426918
   10    9   10   10        0.0000061436
   10    9   11   10        0.0000355246
   10    9   12   10        0.0001193155
   10    9   13   10       -0.0000362042
   10    9   11   11       -0.0000000469
   10    9   12   11       -0.0002824209
   10    9   13   11        0.0000013293
   10    9   12   12        0.0000036127
   10    9   13   12       -0.0014648450
   10    9   13   13        0.0000083034
   11    9   11    9        0.0069516245
   11    9   12    9       -0.0000007992
   11    9   13    9        0.0032954214
   11    9   10   10        0.0001296826
   11    9   11   10       -0.0000019453
   11    9   12   10       -0.0014033429
   11    9   13   10       -0.0000014400
   11    9   11   11        0.0002603761
   11    9   12   11        0.0000442737
   11    9   13   11        0.0000653210
   11    9   12   12        0.0000101467
   11    9   13   12        0.0000048209
   11    9   13   13        0.0001875233
   12    9   12    9        0.0091970553
   12    9   13    9       -0.0000008208
   12    9   10   10        0.0003017297
   12    9   11   10       -0.0008449657
   12    9   12   10       -0.0000012840
   12    9   13   10       -0.0005493549
   12    9   11   11        0.0005260049
   12    9   12   11        0.0000053179
   12    9   13   11       -0.0000983040
   12    9   12   12        0.0003766612
   12    9   13   12       -0.0000003053
   12    9   13   13        0.0005384463
   13    9   13    9        0.0044934966
   13    9   10   10        0.0000264095
   13    9   11   10       -0.0000025593
   13    9   12   10       -0.0019259705
   13    9   13   10        0.0000021638
   13    9   11   11        0.0001332549
   13    9   12   11        0.0000046471
   13    9   13   11        0.0000421777
   13    9   12   12       -0.0000065212
   13    9   13   12        0.0000265101
   13    9   13   13        0.0000508294
   10   10   10   10        0.1396102270
   10   10   11   10       -0.0000056926
   10   10   12   10        0.0001953250
   10   10   13   10       -0.0000218362
   10   10   11   11        0.1185802700
   10   10   12   11        0.0000015133
   10   10   13   11       -0.0006910881
   10   10   12   12        0.1354449441
   10   10   13   12        0.0000007278
   10   10   13   13        0.1186364603
   11   10   11   10        0.0027821030
   11   10   12   10        0.0000032919
   11   10   13   10       -0.0022773325
   11   10   11   11       -0.0002273089
   11   10   12   11        0.0000068375
   11   10   13   11        0.0000323613
   11   10   12   12       -0.0000122246
   11   10   13   12       -0.0000033782
   11   10   13   13       -0.0001394352
   12   10   12   10        0.0067669828
   12   10   13   10       -0.0000003362
   12   10   11   11        0.0000594643
   12   10   12   11        0.0000158445
   12   10   13   11        0.0000279524
   12   10   12   12        0.0000066746
   12   10   13   12       -0.0000127196
   12   10   13   13        0.0001820657
   13   10   13   10        0.0060588755
   13   10   11   11        0.0001395654
   13   10   12   11       -0.0000013698
   13   10   13   11       -0.0000403534
   13   10   12   12       -0.0000001567
   13   10   13   12        0.0000181536
   13   10   13   13        0.0000106945
   11   11   11   11        0.1274570294
   11   11   12   11        0.0000010690
   11   11   13   11       -0.0010696744
   11   11   12   12        0.1223937856
   11   11   13   12        0.0000000700
   11   11   13   13        0.1139250684
   12   11   12   11        0.0016567519
   12   11   13   11        0.0000004528
   12   11   12   12        0.0000003402
   12   11   13   12        0.0002171219
   12   11   13   13        0.0000018785
   13   11   13   11        0.0082672181
   13   11   12   12        0.0002509475
   13   11   13   12        0.0000005664
   13   11   13   13       -0.0002102301
   12   12   12   12        0.1518127193
   12   12   13   12       -0.0000001941
   12   12   13   13        0.1172572749
   13   12   13   12        0.0017904480
   13   12   13   13       -0.0000012699
   13   13   13   13        0.1148591844
 end_two_electron_integrals


 output epsi filename:./pspw_hf_H2.emovecs

 Total PSPW energy     :  -0.1102164434E+01


=== Spin Contamination ===

 <Sexact^2> =    0.0000000000000000     
 <S^2>      =    0.0000000000000000     



== Center of Charge ==

spin up     (    0.0000,    0.0000,    0.0000 )
spin down   (    0.0000,    0.0000,    0.0000 )
     total  (    0.0000,    0.0000,    0.0000 )
ionic       (    0.0000,    0.0000,    0.0000 )


== Molecular Dipole wrt Center of Mass ==

mu   =  (   -0.0000,   -0.0000,   -0.0000 ) au
|mu| =     0.0000 au,       0.0000 Debye

 output psi filename:./pspw_hf_H2.movecs

 Writing Crystallographic Information File:./H2.cif
   - cell not shifted (nwpw:cif_shift_cell .false.)


== Timing ==

cputime in seconds
  prologue    :   0.650497E+01
  main loop   :   0.621854E+03
  epilogue    :   0.541448E-02
  total       :   0.628365E+03
  cputime/step:   0.522566E+01       (     119 evalulations,      49 linesearches)


Time spent doing                        total          step       percent
  total time                 :   0.628365E+03  0.528038E+01       100.0 %
  i/o time                   :   0.963542E-01  0.809700E-03         0.0 %
  FFTs                       :   0.558097E+03  0.468989E+01        88.8 %
  dot products               :   0.979621E+00  0.823211E-02         0.2 %
  geodesic                   :   0.508530E-01  0.427336E-03         0.0 %
  ffm_dgemm                  :   0.576972E-02  0.484851E-04         0.0 %
  fmf_dgemm                  :   0.252780E-01  0.212420E-03         0.0 %
  mmm_dgemm                  :   0.113082E-02  0.950266E-05         0.0 %
  m_diagonalize              :   0.589889E-03  0.495705E-05         0.0 %
  local pseudopotentials     :   0.957977E-02  0.805023E-04         0.0 %
  non-local pseudopotentials :   0.188281E+01  0.158219E-01         0.3 %
  structure factors          :   0.893747E+00  0.751048E-02         0.1 %
  phase factors              :   0.225500E-04  0.189496E-06         0.0 %
  masking and packing        :   0.683726E+01  0.574560E-01         1.1 %
  queue fft                  :   0.105617E+01  0.887541E-02         0.2 %
  queue fft (serial)         :   0.628633E+00  0.528263E-02         0.1 %
  queue fft (message passing):   0.389751E+00  0.327522E-02         0.1 %
  HFX potential              :   0.498271E+03  0.418715E+01        79.3 %
  non-local psp FFM          :   0.102467E+01  0.861066E-02         0.2 %
  non-local psp FMF          :   0.229301E+00  0.192690E-02         0.0 %
  non-local psp FFM A        :   0.272908E+00  0.229334E-02         0.0 %
  non-local psp FFM B        :   0.189755E+00  0.159458E-02         0.0 %

== HFX Counters ==
  HFX Evalulations         =   119
  Lin ACE HFX Evalulations =     0


     >>>  JOB COMPLETED     AT Thu May  1 19:09:06 2025  <<<

 Task  times  cpu:      628.3s     wall:      628.4s
 Summary of allocated global arrays
-----------------------------------
  No active global arrays


MA_summarize_allocated_blocks: starting scan ...
MA_summarize_allocated_blocks: scan completed: 0 heap blocks, 0 stack blocks
MA usage statistics:

	allocation statistics:
					      heap	     stack
					      ----	     -----
	current number of blocks	         0	         0
	maximum number of blocks	       313	        17
	current total bytes		         0	         0
	maximum total bytes		 369662384	  89294136
	maximum total K-bytes		    369663	     89295
	maximum total M-bytes		       370	        90


                                NWChem Input Module
                                -------------------




                                     CITATION
                                     --------
                Please cite the following reference when publishing
                           results obtained with NWChem:

          E. Apra, E. J. Bylaska, W. A. de Jong, N. Govind, K. Kowalski,
       T. P. Straatsma, M. Valiev, H. J. J. van Dam, Y. Alexeev, J. Anchell,
       V. Anisimov, F. W. Aquino, R. Atta-Fynn, J. Autschbach, N. P. Bauman,
     J. C. Becca, D. E. Bernholdt, K. Bhaskaran-Nair, S. Bogatko, P. Borowski,
         J. Boschen, J. Brabec, A. Bruner, E. Cauet, Y. Chen, G. N. Chuev,
      C. J. Cramer, J. Daily, M. J. O. Deegan, T. H. Dunning Jr., M. Dupuis,
   K. G. Dyall, G. I. Fann, S. A. Fischer, A. Fonari, H. Fruchtl, L. Gagliardi,
      J. Garza, N. Gawande, S. Ghosh, K. Glaesemann, A. W. Gotz, J. Hammond,
       V. Helms, E. D. Hermes, K. Hirao, S. Hirata, M. Jacquelin, L. Jensen,
   B. G. Johnson, H. Jonsson, R. A. Kendall, M. Klemm, R. Kobayashi, V. Konkov,
      S. Krishnamoorthy, M. Krishnan, Z. Lin, R. D. Lins, R. J. Littlefield,
      A. J. Logsdail, K. Lopata, W. Ma, A. V. Marenich, J. Martin del Campo,
   D. Mejia-Rodriguez, J. E. Moore, J. M. Mullin, T. Nakajima, D. R. Nascimento,
    J. A. Nichols, P. J. Nichols, J. Nieplocha, A. Otero-de-la-Roza, B. Palmer,
    A. Panyala, T. Pirojsirikul, B. Peng, R. Peverati, J. Pittner, L. Pollack,
   R. M. Richard, P. Sadayappan, G. C. Schatz, W. A. Shelton, D. W. Silverstein,
   D. M. A. Smith, T. A. Soares, D. Song, M. Swart, H. L. Taylor, G. S. Thomas,
            V. Tipparaju, D. G. Truhlar, K. Tsemekhman, T. Van Voorhis,
      A. Vazquez-Mayagoitia, P. Verma, O. Villa, A. Vishnu, K. D. Vogiatzis,
        D. Wang, J. H. Weare, M. J. Williamson, T. L. Windus, K. Wolinski,
        A. T. Wong, Q. Wu, C. Yang, Q. Yu, M. Zacharias, Z. Zhang, Y. Zhao,
                                and R. J. Harrison
                        "NWChem: Past, present, and future
                         J. Chem. Phys. 152, 184102 (2020)
                               doi:10.1063/5.0004997

                                      AUTHORS
                                      -------
  E. Apra, E. J. Bylaska, N. Govind, K. Kowalski, M. Valiev, D. Mejia-Rodriguez,
       A. Kunitsa, N. P. Bauman, A. Panyala, W. A. de Jong, T. P. Straatsma,
   H. J. J. van Dam, D. Wang, T. L. Windus, J. Hammond, J. Autschbach, A. Woods,
    K. Bhaskaran-Nair, J. Brabec, K. Lopata, S. A. Fischer, S. Krishnamoorthy,
     M. Jacquelin, W. Ma, M. Klemm, O. Villa, Y. Chen, V. Anisimov, F. Aquino,
     S. Hirata, M. T. Hackler, E. Hermes, L. Jensen, J. E. Moore, J. C. Becca,
      V. Konjkov, T. Risthaus, M. Malagoli, A. Marenich, A. Otero-de-la-Roza,
        J. Mullin, P. Nichols, R. Peverati, J. Pittner, Y. Zhao, P.-D. Fan,
        A. Fonari, M. J. Williamson, R. J. Harrison, J. R. Rehr, M. Dupuis,
     D. Silverstein, D. M. A. Smith, J. Nieplocha, V. Tipparaju, M. Krishnan,
     B. E. Van Kuiken, A. Vazquez-Mayagoitia, M. Swart, Q. Wu, T. Van Voorhis,
     A. A. Auer, M. Nooijen, L. D. Crosby, E. Brown, G. Cisneros, G. I. Fann,
   H. Fruchtl, J. Garza, K. Hirao, R. A. Kendall, J. A. Nichols, K. Tsemekhman,
    K. Wolinski, J. Anchell, D. E. Bernholdt, P. Borowski, T. Clark, D. Clerc,
   H. Dachsel, M. J. O. Deegan, K. Dyall, D. Elwood, E. Glendening, M. Gutowski,
   A. C. Hess, J. Jaffe, B. G. Johnson, J. Ju, R. Kobayashi, R. Kutteh, Z. Lin,
   R. Littlefield, X. Long, B. Meng, T. Nakajima, S. Niu, L. Pollack, M. Rosing,
   K. Glaesemann, G. Sandrone, M. Stave, H. Taylor, G. Thomas, J. H. van Lenthe,
                               A. T. Wong, Z. Zhang.

 Total times  cpu:      628.4s     wall:      628.4s
