 argument  1 = H2-2.5.nw



============================== echo of input deck ==============================
title "swnc: e theory=pspw4 xc=hf formula=H2 charge=0 mult=1"
#machinejob:expert

echo

start pspw_hf_H2

memory heap 1200 mb stack 1200 mb global 10 mb

charge 0

geometry
H    0.00000    0.00000   -1.25000
H    0.00000    0.00000    1.25000
end

nwpw
  ### pseudopotential block begin ###
  ### pseudopotential block end   ###
  simulation_cell
     SC 15.0000
     boundary_conditions aperiodic
  end

  cutoff 50.0
  mult 1
  xc hf
  lmbfgs
  tolerances 1.0e-9 1.0e-9

  virtual 12
end
set nwpw:cif_filename H2

#set nwpw:CI_maxit_orb 15
#set nwpw:CI_maxit_linesearch 15
set pspw:HFX_screening_radius 14.0


set nwpw:2qintegrals .true.
#set nwpw:3x3_virtual .true.

task pspw energy

================================================================================


                                         
                                         


             Northwest Computational Chemistry Package (NWChem) 7.2.2
             --------------------------------------------------------


                    Environmental Molecular Sciences Laboratory
                       Pacific Northwest National Laboratory
                                Richland, WA 99352

                              Copyright (c) 1994-2022
                       Pacific Northwest National Laboratory
                            Battelle Memorial Institute

             NWChem is an open-source computational chemistry package
                        distributed under the terms of the
                      Educational Community License (ECL) 2.0
             A copy of the license is included with this distribution
                              in the LICENSE.TXT file

                                  ACKNOWLEDGMENT
                                  --------------

            This software and its documentation were developed at the
            EMSL at Pacific Northwest National Laboratory, a multiprogram
            national laboratory, operated for the U.S. Department of Energy
            by Battelle under Contract Number DE-AC05-76RL01830. Support
            for this work was provided by the Department of Energy Office
            of Biological and Environmental Research, Office of Basic
            Energy Sciences, and the Office of Advanced Scientific Computing.


           Job information
           ---------------

    hostname        = LAPTOP-JJQSTSEL
    program         = nwchem
    date            = Thu May  1 18:33:51 2025

    compiled        = Fri_Jun_07_07:50:04_2024
    source          = /home/conda/feedstock_root/build_artifacts/nwchem_1717738148552/work
    nwchem branch   = 7.2.2
    nwchem revision = 64ba0f0
    ga revision     = 5.8.0
    use scalapack   = T
    input           = H2-2.5.nw
    prefix          = pspw_hf_H2.
    data base       = ./pspw_hf_H2.db
    status          = startup
    nproc           =        1
    time left       =     -1s



           Memory information
           ------------------

    heap     =  157286400 doubles =   1200.0 Mbytes
    stack    =  157286397 doubles =   1200.0 Mbytes
    global   =    1310720 doubles =     10.0 Mbytes (distinct from heap & stack)
    total    =  315883517 doubles =   2410.0 Mbytes
    verify   = yes
    hardfail = no 


           Directory information
           ---------------------

  0 permanent = .
  0 scratch   = .




                                NWChem Input Module
                                -------------------


               swnc: e theory=pspw4 xc=hf formula=H2 charge=0 mult=1
               -----------------------------------------------------

 Scaling coordinates for geometry "geometry" by  1.889725989
 (inverse scale =  0.529177249)

 ORDER OF PRIMARY AXIS IS BEING SET TO 4
 D4H symmetry detected

          ------
          auto-z
          ------
     1 autoz failed with cvr_scaling = 1.2 changing to 1.3
     2 autoz failed with cvr_scaling = 1.3 changing to 1.4
     3 autoz failed with cvr_scaling = 1.4 changing to 1.5
     4 autoz failed with cvr_scaling = 1.5 changing to 1.6
     5 autoz failed with cvr_scaling = 1.6 changing to 1.7

 AUTOZ failed to generate good internal coordinates.
 Cartesian coordinates will be used in optimizations.



                             Geometry "geometry" -> ""
                             -------------------------

 Output coordinates in angstroms (scale by  1.889725989 to convert to a.u.)

  No.       Tag          Charge          X              Y              Z
 ---- ---------------- ---------- -------------- -------------- --------------
    1 H                    1.0000     0.00000000     0.00000000    -1.25000000
    2 H                    1.0000     0.00000000     0.00000000     1.25000000

      Atomic Mass 
      ----------- 

      H                  1.007825


 Effective nuclear repulsion energy (a.u.)       0.2116708996

            Nuclear Dipole moment (a.u.) 
            ----------------------------
        X                 Y               Z
 ---------------- ---------------- ----------------
     0.0000000000     0.0000000000     0.0000000000

      Symmetry information
      --------------------

 Group name             D4h       
 Group number             28
 Group order              16
 No. of unique centers     1

      Symmetry unique atoms

     1


            XYZ format geometry
            -------------------
     2
 geometry
 H                     0.00000000     0.00000000    -1.25000000
 H                     0.00000000     0.00000000     1.25000000

          ****************************************************
          *                                                  *
          *               NWPW PSPW Calculation              *
          *                                                  *
          * [ (Grassmann/Stiefel manifold implementation)  ] *
          *                                                  *
          *      [ NorthWest Chemistry implementation ]      *
          *                                                  *
          *            version #5.10   06/12/02              *
          *                                                  *
          *    This code was developed by Eric J. Bylaska,   *
          *    and was based upon algorithms and code        *
          *    developed by the group of Prof. John H. Weare *
          *                                                  *
          ****************************************************
     >>>  JOB STARTED       AT Thu May  1 18:33:51 2025  <<<
          ================ input data ========================
 pseudopotential is not correctly formatted:H.vpp                                             

 Generated formatted_filename: ./H.vpp
 Error reading psi - bad grid
 nfft :                   96                   96                   96
 ngrid:                   70                   70                   70
 Error reading psi - bad unitcell
  - Ignored if the following  parameter is set
  - set nwpw:psi_nolattice .true.
 Error reading psi - bad grid
 nfft :                   96                   96                   96
 ngrid:                   70                   70                   70
 Error reading psi - bad unitcell
  - Ignored if the following  parameter is set
  - set nwpw:psi_nolattice .true.
 Error reading psi - bad grid
 Error reading psi - bad unitcell
  - Ignored if the following  parameter is set
  - set nwpw:psi_nolattice .true.

 Grid is being converted:
 ------------------------

 To turn off automatic grid conversion:

 set nwpw:psi_nogrid .false.

 old_filename: pspw_hf_H2.movecs                                 
 new_filename: pspw_hf_H2.movecs                                 
 converting  :  96x 96x 96 -->  70x 70x 70
converting .... psi:    1 spin: 1

 input psi filename:./pspw_hf_H2.movecs

 Warning - K.S. orbitals are not orthonormal. Applying Gram-Schmidt orthonormalization.
         - exact norm=0.100000E+01 norm=0.999995E+00 corrected norm=0.100000E+01 (error=0.486490E-05)


 number of processors used:         1
 processor grid           :   1 x   1
 parallel mapping         :2d-hilbert
 parallel mapping         :  balanced
 number of threads        :         1
 parallel io              :       off

 options:
      boundary conditions  = aperiodic   (version4)
      electron spin        = restricted
      exchange-correlation = Hartree-Fock
      - HFX relaxed
      - HFX restricted orbitals :    1
      - HFX free-space coulomb solver


 elements involved in the cluster:
      1: H   valence charge:  1.0000  lmax=  1
             comment    : Parameterized (Chem.Phys.Lett., vol 322, page 447) Hamman psp
             pseudpotential type            :   0
             highest angular component      :   1
             local potential used           :   1
             number of non-local projections:   1
             aperiodic cutoff radius        :  1.000
             cutoff =   0.800   0.800


 total charge:   0.000

 atomic composition:
     H   :    2

 number of electrons: spin up=     1 (   1 per task)  down=     1 (   1 per task) (Fourier space)
 number of orbitals : spin up=     1 (   1 per task)  down=     1 (   1 per task) (Fourier space)

 supercell:
      cell_name:  cell_default                                      
      lattice:    a1=<  15.000   0.000   0.000 >
                  a2=<   0.000  15.000   0.000 >
                  a3=<   0.000   0.000  15.000 >
      reciprocal: b1=<   0.419   0.000   0.000 >
                  b2=<   0.000   0.419   0.000 >
                  b3=<   0.000   0.000   0.419 >
      lattice:    a=      15.000 b=     15.000 c=      15.000
                  alpha=  90.000 beta=  90.000 gamma=  90.000
                  omega=      3375.0

      density cutoff=100.000  fft= 70x 70x 70(    80618 waves    80618 per task)
      wavefnc cutoff= 50.000  fft= 70x 70x 70(    28526 waves    28526 per task)

 technical parameters:
      time step=      5.80     fictitious mass=  400000.0
      tolerance=0.100E-08 (energy)   0.100E-08 (density)
      maximum iterations =      1000 (   10 inner    100 outer )





== Energy Calculation ==


          ============ Grassmann lmbfgs iteration ============
     >>>  ITERATION STARTED AT Thu May  1 18:33:59 2025  <<<
    iter.           Energy         DeltaE       DeltaRho 
    ------------------------------------------------------
      10   -0.8642333310E+00   -0.22677E-02    0.17374E-01
     -  10 steepest descent iterations performed
      20   -0.8714834309E+00   -0.17835E-03    0.13590E-03
      30   -0.8717967133E+00   -0.11059E-04    0.13849E-05
      40   -0.8718262718E+00   -0.58139E-06    0.16738E-06
      50   -0.8718278149E+00   -0.20197E-07    0.78666E-08
      60   -0.8718278728E+00   -0.87460E-09    0.13712E-09
  *** tolerance ok. iteration terminated
     >>>  ITERATION ENDED   AT Thu May  1 18:34:38 2025  <<<


==  Summary Of Results  ==

 number of electrons: spin up=    1.00000  down=    1.00000 (real space)

 total     energy    :  -0.8718278728E+00 (   -0.43591E+00/ion)
 total orbital energy:  -0.7133905803E+00 (   -0.71339E+00/electron)
 hartree   energy    :   0.7402163842E+00 (    0.74022E+00/electron)
 exc-corr  energy    :   0.0000000000E+00 (    0.00000E+00/electron)
 HF exchange energy  :  -0.3701081921E+00 (   -0.37011E+00/electron)
 ion-ion   energy    :   0.2116708996E+00 (    0.10584E+00/ion)

 kinetic (planewave) :   0.6112767133E+00 (    0.61128E+00/electron)
 V_local (planewave) :  -0.1917582827E+01 (   -0.19176E+01/electron)
 V_nl    (planewave) :  -0.1473008508E+00 (   -0.14730E+00/electron)
 V_Coul  (planewave) :   0.1480432768E+01 (    0.14804E+01/electron)
 V_xc.   (planewave) :   0.0000000000E+00 (    0.00000E+00/electron)
 K.S. HFX energy     :  -0.7402163842E+00 (   -0.74022E+00/electron)
 Virial Coefficient  :  -0.9561151221E+00

 orbital energies:
    -0.3566953E+00 (  -9.706eV)


== Virtual Orbital Calculation ==

 Error reading psi - bad grid
 Error reading psi - bad unitcell
  - Ignored if the following  parameter is set
  - set nwpw:psi_nolattice .true.
 Error reading psi - bad grid
 Error reading psi - bad unitcell
  - Ignored if the following  parameter is set
  - set nwpw:psi_nolattice .true.
 Error reading psi - bad grid
 Error reading psi - bad unitcell
  - Ignored if the following  parameter is set
  - set nwpw:psi_nolattice .true.

 Grid is being converted:
 ------------------------

 To turn off automatic grid conversion:

 set nwpw:psi_nogrid .false.

 old_filename: pspw_hf_H2.emovecs                                
 new_filename: pspw_hf_H2.emovecs                                
 converting  :  96x 96x 96 -->  70x 70x 70
converting .... psi:    1 spin: 1
converting .... psi:    2 spin: 1
converting .... psi:    3 spin: 1
converting .... psi:    4 spin: 1
converting .... psi:    5 spin: 1
converting .... psi:    6 spin: 1
converting .... psi:    7 spin: 1
converting .... psi:    8 spin: 1
converting .... psi:    9 spin: 1
converting .... psi:   10 spin: 1
converting .... psi:   11 spin: 1
converting .... psi:   12 spin: 1

 input epsi filename:./pspw_hf_H2.emovecs
     orbital   1 current e=-0.921E-01 (error=0.950E-09) iterations  65(  46 preconditioned, Ep,Sp= 20.0  200.0)
     orbital   2 current e= 0.145E-01 (error=0.944E-09) iterations  62(  36 preconditioned, Ep,Sp= 20.0  200.0)
     orbital   3 current e= 0.822E-01 (error=0.892E-09) iterations  46(  19 preconditioned, Ep,Sp= 20.0  200.0)
     orbital   4 current e= 0.822E-01 (error=0.880E-09) iterations  58(  33 preconditioned, Ep,Sp= 20.0  200.0)
     orbital   5 current e= 0.836E-01 (error=0.886E-09) iterations  72(  22 preconditioned, Ep,Sp= 20.0  200.0)
     orbital   6 current e= 0.881E-01 (error=0.883E-09) iterations  28(   7 preconditioned, Ep,Sp= 20.0  200.0)
     orbital   7 current e= 0.105E+00 (error=0.983E-09) iterations  74(  52 preconditioned, Ep,Sp= 20.0  200.0)
     orbital   8 current e= 0.127E+00 (error=0.860E-09) iterations  71(  43 preconditioned, Ep,Sp= 20.0  200.0)
     orbital   9 current e= 0.167E+00 (error=0.679E-09) iterations  95(  44 preconditioned, Ep,Sp= 20.0  200.0)
     orbital  10 current e= 0.168E+00 (error=0.884E-09) iterations  67(  31 preconditioned, Ep,Sp= 20.0  200.0)
     orbital  11 current e= 0.170E+00 (error=0.900E-09) iterations  54(  33 preconditioned, Ep,Sp= 20.0  200.0)
     orbital  12 current e= 0.241E+00 (error=0.934E-09) iterations 121(  63 preconditioned, Ep,Sp= 20.0  200.0)

 virtual orbital energies:
     0.2406721E+00 (   6.549eV)
     0.1701594E+00 (   4.630eV)
     0.1680823E+00 (   4.574eV)
     0.1674277E+00 (   4.556eV)
     0.1269419E+00 (   3.454eV)
     0.1052053E+00 (   2.863eV)
     0.8813828E-01 (   2.398eV)
     0.8355354E-01 (   2.274eV)
     0.8219959E-01 (   2.237eV)
     0.8219959E-01 (   2.237eV)
     0.1451972E-01 (   0.395eV)
    -0.9207434E-01 (  -2.505eV)


 == Generating One-Electron and Two-Electron Integrals ==

 begin_one_electron_integrals
    1    1        -0.7268034822
    2    1        -0.0000153895
    3    1        -0.0331169950
    4    1        -0.0000016850
    5    1         0.0000218592
    6    1         0.0074759123
    7    1         0.0000000006
    8    1        -0.0000045862
    9    1        -0.0335109216
   10    1        -0.0000161374
   11    1        -0.0048887398
   12    1        -0.0000001249
   13    1        -0.0275409078
    2    2        -0.6526330997
    3    2         0.0001345838
    4    2         0.0000000283
    5    2        -0.0000005521
    6    2        -0.0001443288
    7    2         0.0000000373
    8    2        -0.0529513695
    9    2         0.0000658163
   10    2         0.0000086432
   11    2         0.0000867691
   12    2         0.0000038288
   13    2         0.0000550611
    3    3        -0.2482921101
    4    3        -0.0000001138
    5    3         0.0000012562
    6    3         0.0021208286
    7    3         0.0000000001
    8    3         0.0000142365
    9    3        -0.0550267872
   10    3        -0.0000078652
   11    3        -0.0026113204
   12    3        -0.0000000866
   13    3        -0.0271758244
    4    4        -0.2317532108
    5    4        -0.0000000100
    6    4        -0.0000043815
    7    4         0.0000560231
    8    4         0.0000000066
    9    4        -0.0000013731
   10    4        -0.0000037073
   11    4        -0.0000124456
   12    4        -0.0000107946
   13    4         0.0000020197
    5    5        -0.2317350343
    6    5         0.0000564262
    7    5         0.0000041071
    8    5        -0.0000008485
    9    5         0.0000166997
   10    5         0.0757752567
   11    5        -0.0000032438
   12    5        -0.0000156764
   13    5        -0.0000083813
    6    6        -0.2086081596
    7    6        -0.0000000008
    8    6        -0.0000294859
    9    6         0.0043159589
   10    6        -0.0000757318
   11    6         0.0576679810
   12    6         0.0000016425
   13    6        -0.0018755813
    7    7        -0.1830513819
    8    7        -0.0000000098
    9    7         0.0000000003
   10    7        -0.0000069380
   11    7         0.0000000181
   12    7        -0.0000014882
   13    7        -0.0000000091
    8    8        -0.1666886470
    9    8         0.0000190142
   10    8         0.0000092478
   11    8         0.0000302982
   12    8         0.0000017905
   13    8         0.0000242840
    9    9        -0.1370841993
   10    9        -0.0000146520
   11    9        -0.0035608774
   12    9        -0.0000000672
   13    9        -0.0581835864
   10   10        -0.1495957190
   11   10         0.0000573648
   12   10         0.0000284423
   13   10        -0.0000166179
   11   11        -0.1206361473
   12   11         0.0000005207
   13   11        -0.0056630284
   12   12        -0.1488157307
   13   12        -0.0000001755
   13   13        -0.0230696318
 end_one_electron_integrals

 begin_two_electron_integrals
    1    1    1    1        0.3701081921
    1    1    2    1        0.0000154079
    1    1    3    1        0.0331139825
    1    1    4    1        0.0000016841
    1    1    5    1       -0.0000218470
    1    1    6    1       -0.0074664096
    1    1    7    1       -0.0000000006
    1    1    8    1        0.0000046212
    1    1    9    1        0.0335102690
    1    1   10    1        0.0000161389
    1    1   11    1        0.0048882325
    1    1   12    1        0.0000001249
    1    1   13    1        0.0275477523
    1    1    2    2        0.3576110769
    1    1    3    2       -0.0000717932
    1    1    4    2       -0.0000000116
    1    1    5    2        0.0000002957
    1    1    6    2        0.0000604723
    1    1    7    2       -0.0000000286
    1    1    8    2        0.0401964799
    1    1    9    2       -0.0000279821
    1    1   10    2       -0.0000065760
    1    1   11    2       -0.0000312010
    1    1   12    2       -0.0000028973
    1    1   13    2       -0.0000279486
    1    1    3    3        0.1340223727
    1    1    4    3       -0.0000000723
    1    1    5    3        0.0000012047
    1    1    6    3       -0.0017271360
    1    1    7    3       -0.0000000001
    1    1    8    3       -0.0000106804
    1    1    9    3        0.0303563160
    1    1   10    3        0.0000018760
    1    1   11    3        0.0018056586
    1    1   12    3        0.0000000506
    1    1   13    3        0.0160501989
    1    1    4    4        0.1598880077
    1    1    5    4        0.0000000055
    1    1    6    4        0.0000022852
    1    1    7    4       -0.0000265929
    1    1    8    4       -0.0000000034
    1    1    9    4        0.0000007574
    1    1   10    4        0.0000020137
    1    1   11    4        0.0000067192
    1    1   12    4        0.0000061161
    1    1   13    4       -0.0000009022
    1    1    5    5        0.1598778021
    1    1    6    5       -0.0000294072
    1    1    7    5       -0.0000019444
    1    1    8    5        0.0000005190
    1    1    9    5       -0.0000091025
    1    1   10    5       -0.0411802641
    1    1   11    5        0.0000025194
    1    1   12    5        0.0000070602
    1    1   13    5        0.0000019866
    1    1    6    6        0.1476564735
    1    1    7    6        0.0000000003
    1    1    8    6        0.0000171102
    1    1    9    6       -0.0029495809
    1    1   10    6        0.0000403697
    1    1   11    6       -0.0306137653
    1    1   12    6       -0.0000008671
    1    1   13    6        0.0003678021
    1    1    7    7        0.1358733305
    1    1    8    7       -0.0000000030
    1    1    9    7       -0.0000000002
    1    1   10    7        0.0000034326
    1    1   11    7       -0.0000000089
    1    1   12    7        0.0000007546
    1    1   13    7        0.0000000045
    1    1    8    8        0.1389098985
    1    1    9    8       -0.0000089850
    1    1   10    8       -0.0000056335
    1    1   11    8       -0.0000167113
    1    1   12    8        0.0000001498
    1    1   13    8       -0.0000139173
    1    1    9    9        0.1351921306
    1    1   10    9        0.0000073229
    1    1   11    9        0.0024053092
    1    1   12    9        0.0000000336
    1    1   13    9        0.0318967566
    1    1   10   10        0.1624674374
    1    1   11   10       -0.0000310713
    1    1   12   10       -0.0000156763
    1    1   13   10        0.0000105561
    1    1   11   11        0.1464773002
    1    1   12   11       -0.0000002727
    1    1   13   11        0.0032453106
    1    1   12   12        0.1612306794
    1    1   13   12        0.0000000971
    1    1   13   13        0.1344191642
    2    1    2    1        0.1546633904
    2    1    3    1       -0.0000130166
    2    1    4    1        0.0000000052
    2    1    5    1        0.0000000353
    2    1    6    1       -0.0000231947
    2    1    7    1       -0.0000000196
    2    1    8    1        0.0274432424
    2    1    9    1        0.0000098774
    2    1   10    1       -0.0000045479
    2    1   11    1        0.0000244059
    2    1   12    1       -0.0000019414
    2    1   13    1       -0.0000008447
    2    1    2    2        0.0000200313
    2    1    3    2        0.0169137081
    2    1    4    2       -0.0000025583
    2    1    5    2        0.0000331306
    2    1    6    2        0.0133075445
    2    1    7    2        0.0000000007
    2    1    8    2        0.0000179058
    2    1    9    2        0.0172920951
    2    1   10    2       -0.0000333851
    2    1   11    2       -0.0178088993
    2    1   12    2       -0.0000005359
    2    1   13    2        0.0165371432
    2    1    3    3       -0.0003999111
    2    1    4    3       -0.0000000953
    2    1    5    3        0.0000013225
    2    1    6    3        0.0004747346
    2    1    7    3       -0.0000000156
    2    1    8    3        0.0219493907
    2    1    9    3        0.0000089485
    2    1   10    3       -0.0000024687
    2    1   11    3       -0.0000519794
    2    1   12    3        0.0000024357
    2    1   13    3        0.0000061094
    2    1    4    4       -0.0003092228
    2    1    5    4       -0.0000001024
    2    1    6    4        0.0000000885
    2    1    7    4        0.0000000533
    2    1    8    4        0.0000005244
    2    1    9    4       -0.0000000441
    2    1   10    4        0.0000008200
    2    1   11    4        0.0000000872
    2    1   12    4       -0.0069706110
    2    1   13    4       -0.0000000213
    2    1    5    5       -0.0003093104
    2    1    6    5       -0.0000011521
    2    1    7    5        0.0000000066
    2    1    8    5       -0.0000072707
    2    1    9    5        0.0000006680
    2    1   10    5       -0.0001500695
    2    1   11    5        0.0000000852
    2    1   12    5        0.0297293809
    2    1   13    5        0.0000002361
    2    1    6    6       -0.0007436843
    2    1    7    6        0.0000000030
    2    1    8    6       -0.0025724375
    2    1    9    6        0.0002465614
    2    1   10    6        0.0000030776
    2    1   11    6        0.0003467566
    2    1   12    6       -0.0000775133
    2    1   13    6        0.0000672442
    2    1    7    7       -0.0002916387
    2    1    8    7       -0.0000000002
    2    1    9    7       -0.0000000098
    2    1   10    7        0.0000000387
    2    1   11    7        0.0000006498
    2    1   12    7        0.0000060629
    2    1   13    7       -0.0000000024
    2    1    8    8        0.0000005967
    2    1    9    8        0.0103920276
    2    1   10    8       -0.0000062105
    2    1   11    8       -0.0037351002
    2    1   12    8       -0.0000000386
    2    1   13    8        0.0072299148
    2    1    9    9       -0.0004710621
    2    1   10    9       -0.0000047276
    2    1   11    9       -0.0003903046
    2    1   12    9       -0.0000018097
    2    1   13    9        0.0000006370
    2    1   10   10       -0.0002695280
    2    1   11   10       -0.0000004455
    2    1   12   10       -0.0133147810
    2    1   13   10       -0.0000024368
    2    1   11   11       -0.0005860709
    2    1   12   11        0.0000352301
    2    1   13   11       -0.0003767841
    2    1   12   12       -0.0000378659
    2    1   13   12       -0.0000005659
    2    1   13   13       -0.0006231577
    3    1    3    1        0.0052329136
    3    1    4    1       -0.0000002588
    3    1    5    1        0.0000036457
    3    1    6    1       -0.0013445757
    3    1    7    1       -0.0000000001
    3    1    8    1       -0.0000077198
    3    1    9    1        0.0056863898
    3    1   10    1       -0.0000041401
    3    1   11    1        0.0009994418
    3    1   12    1        0.0000000125
    3    1   13    1        0.0049137386
    3    1    2    2        0.0306747934
    3    1    3    2       -0.0000204599
    3    1    4    2       -0.0000000018
    3    1    5    2        0.0000000446
    3    1    6    2        0.0000181797
    3    1    7    2       -0.0000000044
    3    1    8    2        0.0061614575
    3    1    9    2       -0.0000160007
    3    1   10    2       -0.0000011220
    3    1   11    2       -0.0000121724
    3    1   12    2        0.0000076447
    3    1   13    2       -0.0000141304
    3    1    3    3        0.0016314057
    3    1    4    3        0.0000016633
    3    1    5    3       -0.0000224350
    3    1    6    3       -0.0000406628
    3    1    7    3        0.0000000000
    3    1    8    3        0.0000225376
    3    1    9    3        0.0019593221
    3    1   10    3       -0.0000011924
    3    1   11    3        0.0001787175
    3    1   12    3        0.0000000686
    3    1   13    3        0.0016875898
    3    1    4    4        0.0029900561
    3    1    5    4        0.0000000044
    3    1    6    4        0.0000006174
    3    1    7    4       -0.0000132600
    3    1    8    4       -0.0000000035
    3    1    9    4        0.0000004308
    3    1   10    4        0.0000001613
    3    1   11    4        0.0000002451
    3    1   12    4       -0.0000057470
    3    1   13    4        0.0000001572
    3    1    5    5        0.0029890752
    3    1    6    5       -0.0000082017
    3    1    7    5       -0.0000009801
    3    1    8    5        0.0000000877
    3    1    9    5       -0.0000057263
    3    1   10    5       -0.0032516384
    3    1   11    5        0.0000035301
    3    1   12    5        0.0000280265
    3    1   13    5       -0.0000028839
    3    1    6    6        0.0018602047
    3    1    7    6       -0.0000000001
    3    1    8    6       -0.0000055865
    3    1    9    6       -0.0001458520
    3    1   10    6        0.0000080649
    3    1   11    6       -0.0018202681
    3    1   12    6       -0.0000001800
    3    1   13    6       -0.0000337178
    3    1    7    7        0.0009754288
    3    1    8    7       -0.0000000009
    3    1    9    7       -0.0000000000
    3    1   10    7        0.0000014213
    3    1   11    7       -0.0000000033
    3    1   12    7        0.0000000441
    3    1   13    7        0.0000000006
    3    1    8    8        0.0021473488
    3    1    9    8       -0.0000036131
    3    1   10    8       -0.0000004174
    3    1   11    8       -0.0000049312
    3    1   12    8       -0.0000233273
    3    1   13    8       -0.0000048857
    3    1    9    9        0.0023861087
    3    1   10    9        0.0000170535
    3    1   11    9        0.0001285127
    3    1   12    9       -0.0000000027
    3    1   13    9        0.0023103418
    3    1   10   10        0.0042603818
    3    1   11   10       -0.0000105933
    3    1   12   10        0.0000019754
    3    1   13   10        0.0000046943
    3    1   11   11        0.0023669908
    3    1   12   11       -0.0000000192
    3    1   13   11       -0.0000716472
    3    1   12   12        0.0027900259
    3    1   13   12       -0.0000000049
    3    1   13   13        0.0022924402
    4    1    4    1        0.0058232117
    4    1    5    1        0.0000000010
    4    1    6    1        0.0000001914
    4    1    7    1        0.0000029065
    4    1    8    1       -0.0000000009
    4    1    9    1        0.0000001455
    4    1   10    1        0.0000003224
    4    1   11    1        0.0000009936
    4    1   12    1        0.0000014386
    4    1   13    1        0.0000002143
    4    1    2    2        0.0000006068
    4    1    3    2       -0.0000000000
    4    1    4    2       -0.0000053423
    4    1    5    2       -0.0000000199
    4    1    6    2        0.0000000047
    4    1    7    2       -0.0000000425
    4    1    8    2       -0.0000006697
    4    1    9    2       -0.0000000031
    4    1   10    2        0.0000001560
    4    1   11    2        0.0000000277
    4    1   12    2       -0.0013375000
    4    1   13    2       -0.0000000056
    4    1    3    3        0.0000140138
    4    1    4    3       -0.0067358651
    4    1    5    3        0.0000000046
    4    1    6    3        0.0000055691
    4    1    7    3       -0.0001736894
    4    1    8    3       -0.0000000071
    4    1    9    3       -0.0000036743
    4    1   10    3       -0.0000000051
    4    1   11    3       -0.0000001141
    4    1   12    3       -0.0000017784
    4    1   13    3       -0.0000036514
    4    1    4    4       -0.0000024410
    4    1    5    4        0.0000492844
    4    1    6    4       -0.0015410162
    4    1    7    4        0.0004660895
    4    1    8    4        0.0000076940
    4    1    9    4       -0.0033899665
    4    1   10    4        0.0000916981
    4    1   11    4        0.0011188498
    4    1   12    4        0.0000000679
    4    1   13    4       -0.0024756605
    4    1    5    5        0.0000129592
    4    1    6    5        0.0000000007
    4    1    7    5       -0.0031258480
    4    1    8    5        0.0000000213
    4    1    9    5       -0.0000000060
    4    1   10    5        0.0000184622
    4    1   11    5       -0.0000000162
    4    1   12    5       -0.0000000083
    4    1   13    5        0.0000000038
    4    1    6    6        0.0000099867
    4    1    7    6       -0.0000549734
    4    1    8    6       -0.0000000046
    4    1    9    6        0.0000019939
    4    1   10    6       -0.0000000865
    4    1   11    6        0.0000089182
    4    1   12    6       -0.0000014663
    4    1   13    6       -0.0000013890
    4    1    7    7        0.0000186474
    4    1    8    7        0.0000001444
    4    1    9    7       -0.0000535358
    4    1   10    7        0.0052721265
    4    1   11    7        0.0000938457
    4    1   12    7        0.0000082206
    4    1   13    7        0.0000734030
    4    1    8    8        0.0000157942
    4    1    9    8        0.0000000101
    4    1   10    8       -0.0000001815
    4    1   11    8       -0.0000000407
    4    1   12    8        0.0015881230
    4    1   13    8        0.0000000081
    4    1    9    9        0.0000159655
    4    1   10    9       -0.0000002547
    4    1   11    9       -0.0000053452
    4    1   12    9       -0.0000012413
    4    1   13    9       -0.0000031115
    4    1   10   10        0.0000275044
    4    1   11   10        0.0000000951
    4    1   12   10        0.0000000520
    4    1   13   10       -0.0000001429
    4    1   11   11        0.0000172303
    4    1   12   11        0.0000002394
    4    1   13   11       -0.0000041658
    4    1   12   12       -0.0000132233
    4    1   13   12       -0.0000010024
    4    1   13   13        0.0000186217
    5    1    5    1        0.0058209752
    5    1    6    1       -0.0000022778
    5    1    7    1        0.0000002180
    5    1    8    1        0.0000001015
    5    1    9    1       -0.0000016554
    5    1   10    1       -0.0066003764
    5    1   11    1        0.0000017510
    5    1   12    1       -0.0000015449
    5    1   13    1       -0.0000044208
    5    1    2    2       -0.0000079048
    5    1    3    2        0.0000000145
    5    1    4    2       -0.0000000120
    5    1    5    2       -0.0000053559
    5    1    6    2       -0.0000000555
    5    1    7    2       -0.0000000029
    5    1    8    2        0.0000090247
    5    1    9    2        0.0000000697
    5    1   10    2        0.0000003229
    5    1   11    2       -0.0000000744
    5    1   12    2        0.0057036779
    5    1   13    2        0.0000000750
    5    1    3    3       -0.0001889934
    5    1    4    3        0.0000000053
    5    1    5    3       -0.0067348443
    5    1    6    3       -0.0000755498
    5    1    7    3       -0.0000128648
    5    1    8    3        0.0000001261
    5    1    9    3        0.0000496533
    5    1   10    3        0.0003367620
    5    1   11    3        0.0000007446
    5    1   12    3        0.0000072966
    5    1   13    3        0.0000494054
    5    1    4    4       -0.0000661917
    5    1    5    4        0.0000043928
    5    1    6    4        0.0000000016
    5    1    7    4       -0.0031267775
    5    1    8    4        0.0000000078
    5    1    9    4       -0.0000000055
    5    1   10    4        0.0000070708
    5    1   11    4        0.0000000240
    5    1   12    4       -0.0000000382
    5    1   13    4       -0.0000000002
    5    1    5    5       -0.0000749541
    5    1    6    5       -0.0015413894
    5    1    7    5       -0.0004657129
    5    1    8    5        0.0000077120
    5    1    9    5       -0.0033890315
    5    1   10    5       -0.0000701926
    5    1   11    5        0.0011178172
    5    1   12    5       -0.0000002095
    5    1   13    5       -0.0024748950
    5    1    6    6       -0.0001351053
    5    1    7    6       -0.0000041012
    5    1    8    6        0.0000000438
    5    1    9    6       -0.0000270652
    5    1   10    6        0.0018098042
    5    1   11    6       -0.0001130976
    5    1   12    6       -0.0000166337
    5    1   13    6        0.0000183075
    5    1    7    7       -0.0002515105
    5    1    8    7        0.0000000059
    5    1    9    7       -0.0000039767
    5    1   10    7        0.0007852908
    5    1   11    7        0.0000057543
    5    1   12    7        0.0000004221
    5    1   13    7        0.0000055602
    5    1    8    8       -0.0002127235
    5    1    9    8       -0.0000001971
    5    1   10    8        0.0000049282
    5    1   11    8        0.0000001196
    5    1   12    8       -0.0067728844
    5    1   13    8       -0.0000001140
    5    1    9    9       -0.0002155006
    5    1   10    9        0.0048151882
    5    1   11    9        0.0000612050
    5    1   12    9        0.0000017768
    5    1   13    9        0.0000432148
    5    1   10   10       -0.0001398887
    5    1   11   10       -0.0026042308
    5    1   12   10        0.0000004075
    5    1   13   10        0.0028765398
    5    1   11   11       -0.0002208901
    5    1   12   11        0.0000003136
    5    1   13   11        0.0000496707
    5    1   12   12       -0.0000681594
    5    1   13   12        0.0000005070
    5    1   13   13       -0.0002498609
    6    1    6    1        0.0031512468
    6    1    7    1        0.0000000002
    6    1    8    1        0.0000068826
    6    1    9    1       -0.0015895590
    6    1   10    1        0.0000050342
    6    1   11    1       -0.0035460937
    6    1   12    1       -0.0000000865
    6    1   13    1       -0.0011391138
    6    1    2    2       -0.0019973990
    6    1    3    2        0.0000157685
    6    1    4    2        0.0000000035
    6    1    5    2       -0.0000000460
    6    1    6    2       -0.0000259969
    6    1    7    2        0.0000000004
    6    1    8    2       -0.0006463661
    6    1    9    2        0.0000171752
    6    1   10    2        0.0000003033
    6    1   11    2        0.0000226620
    6    1   12    2       -0.0000103126
    6    1   13    2        0.0000139788
    6    1    3    3       -0.0008420649
    6    1    4    3        0.0000002243
    6    1    5    3       -0.0000034550
    6    1    6    3       -0.0029187551
    6    1    7    3       -0.0000000015
    6    1    8    3       -0.0000478060
    6    1    9    3       -0.0005723889
    6    1   10    3        0.0000002903
    6    1   11    3        0.0005985459
    6    1   12    3       -0.0000000618
    6    1   13    3       -0.0004609807
    6    1    4    4       -0.0017740240
    6    1    5    4        0.0000000020
    6    1    6    4       -0.0000003491
    6    1    7    4        0.0000019271
    6    1    8    4        0.0000000019
    6    1    9    4        0.0000001646
    6    1   10    4       -0.0000000874
    6    1   11    4        0.0000007859
    6    1   12    4        0.0000118801
    6    1   13    4        0.0000000254
    6    1    5    5       -0.0017742606
    6    1    6    5        0.0000042907
    6    1    7    5        0.0000001144
    6    1    8    5       -0.0000000486
    6    1    9    5       -0.0000023656
    6    1   10    5        0.0018934338
    6    1   11    5       -0.0000088208
    6    1   12    5       -0.0000631785
    6    1   13    5       -0.0000003748
    6    1    6    6        0.0005814048
    6    1    7    6       -0.0000000002
    6    1    8    6        0.0000146387
    6    1    9    6       -0.0026798916
    6    1   10    6       -0.0000118049
    6    1   11    6       -0.0021831014
    6    1   12    6        0.0000001437
    6    1   13    6       -0.0016362644
    6    1    7    7       -0.0016062220
    6    1    8    7       -0.0000000002
    6    1    9    7       -0.0000000005
    6    1   10    7       -0.0000003694
    6    1   11    7       -0.0000000006
    6    1   12    7       -0.0000001453
    6    1   13    7       -0.0000000003
    6    1    8    8       -0.0014457720
    6    1    9    8       -0.0000009565
    6    1   10    8       -0.0000000178
    6    1   11    8        0.0000055549
    6    1   12    8        0.0000043859
    6    1   13    8        0.0000027358
    6    1    9    9       -0.0008868735
    6    1   10    9        0.0000024944
    6    1   11    9        0.0024521035
    6    1   12    9        0.0000000637
    6    1   13    9       -0.0007105105
    6    1   10   10       -0.0031706471
    6    1   11   10        0.0000090097
    6    1   12   10        0.0000017469
    6    1   13   10        0.0000030896
    6    1   11   11        0.0007572869
    6    1   12   11        0.0000000109
    6    1   13   11        0.0030485208
    6    1   12   12       -0.0008617649
    6    1   13   12        0.0000000851
    6    1   13   13       -0.0006358388
    7    1    7    1        0.0005569974
    7    1    8    1       -0.0000000039
    7    1    9    1       -0.0000000001
    7    1   10    1       -0.0000000746
    7    1   11    1       -0.0000000000
    7    1   12    1        0.0000000210
    7    1   13    1       -0.0000000000
    7    1    2    2       -0.0000000003
    7    1    3    2       -0.0000000031
    7    1    4    2       -0.0000000241
    7    1    5    2       -0.0000000016
    7    1    6    2       -0.0000000009
    7    1    7    2       -0.0000011717
    7    1    8    2       -0.0000000001
    7    1    9    2       -0.0000000034
    7    1   10    2        0.0000000017
    7    1   11    2        0.0000000224
    7    1   12    2       -0.0000004554
    7    1   13    2       -0.0000000030
    7    1    3    3       -0.0000000001
    7    1    4    3       -0.0000223466
    7    1    5    3       -0.0000016578
    7    1    6    3       -0.0000000002
    7    1    7    3       -0.0018995137
    7    1    8    3       -0.0000000018
    7    1    9    3       -0.0000000000
    7    1   10    3       -0.0000000040
    7    1   11    3        0.0000000002
    7    1   12    3       -0.0000000289
    7    1   13    3       -0.0000000001
    7    1    4    4        0.0000942869
    7    1    5    4       -0.0006321314
    7    1    6    4       -0.0000037786
    7    1    7    4        0.0000009026
    7    1    8    4        0.0000000441
    7    1    9    4       -0.0000058646
    7    1   10    4        0.0016465303
    7    1   11    4        0.0000001081
    7    1   12    4        0.0000021706
    7    1   13    4       -0.0000008606
    7    1    5    5       -0.0000941207
    7    1    6    5       -0.0000002873
    7    1    7    5       -0.0000121577
    7    1    8    5        0.0000000015
    7    1    9    5       -0.0000004389
    7    1   10    5        0.0002452631
    7    1   11    5       -0.0000003651
    7    1   12    5        0.0000001601
    7    1   13    5       -0.0000000265
    7    1    6    6        0.0000000001
    7    1    7    6       -0.0005068996
    7    1    8    6       -0.0000000004
    7    1    9    6       -0.0000000001
    7    1   10    6       -0.0000000378
    7    1   11    6        0.0000000019
    7    1   12    6       -0.0000000860
    7    1   13    6       -0.0000000007
    7    1    7    7       -0.0000000002
    7    1    8    7        0.0000034293
    7    1    9    7       -0.0014525385
    7    1   10    7        0.0000145445
    7    1   11    7        0.0013177223
    7    1   12    7        0.0000000810
    7    1   13    7       -0.0001120587
    7    1    8    8       -0.0000000001
    7    1    9    8       -0.0000000019
    7    1   10    8       -0.0000000017
    7    1   11    8       -0.0000000676
    7    1   12    8        0.0000031852
    7    1   13    8       -0.0000000014
    7    1    9    9       -0.0000000001
    7    1   10    9        0.0000011010
    7    1   11    9       -0.0000000022
    7    1   12    9       -0.0000000600
    7    1   13    9       -0.0000000001
    7    1   10   10       -0.0001403354
    7    1   11   10       -0.0000001838
    7    1   12   10        0.0000003916
    7    1   13   10        0.0000002109
    7    1   11   11        0.0000000034
    7    1   12   11        0.0000000172
    7    1   13   11       -0.0000000002
    7    1   12   12        0.0001969382
    7    1   13   12       -0.0000000727
    7    1   13   13       -0.0000000007
    8    1    8    1        0.0059258508
    8    1    9    1       -0.0000030039
    8    1   10    1       -0.0000011607
    8    1   11    1       -0.0000040172
    8    1   12    1        0.0000015760
    8    1   13    1       -0.0000034939
    8    1    2    2        0.0000076607
    8    1    3    2        0.0043541098
    8    1    4    2       -0.0000004019
    8    1    5    2        0.0000052424
    8    1    6    2        0.0012350845
    8    1    7    2        0.0000000000
    8    1    8    2        0.0000026200
    8    1    9    2        0.0046257924
    8    1   10    2       -0.0000054328
    8    1   11    2       -0.0022790707
    8    1   12    2       -0.0000000114
    8    1   13    2        0.0042732626
    8    1    3    3       -0.0000027152
    8    1    4    3       -0.0000000098
    8    1    5    3        0.0000000822
    8    1    6    3        0.0000051021
    8    1    7    3       -0.0000000020
    8    1    8    3        0.0007350574
    8    1    9    3       -0.0000106046
    8    1   10    3       -0.0000002070
    8    1   11    3       -0.0000092893
    8    1   12    3       -0.0000082855
    8    1   13    3       -0.0000059146
    8    1    4    4       -0.0000013984
    8    1    5    4       -0.0000000038
    8    1    6    4        0.0000000118
    8    1    7    4        0.0000000127
    8    1    8    4        0.0000006582
    8    1    9    4        0.0000000014
    8    1   10    4        0.0000000283
    8    1   11    4        0.0000000042
    8    1   12    4       -0.0002341997
    8    1   13    4       -0.0000000009
    8    1    5    5       -0.0000014025
    8    1    6    5       -0.0000001778
    8    1    7    5       -0.0000000019
    8    1    8    5       -0.0000088251
    8    1    9    5       -0.0000000477
    8    1   10    5        0.0000030304
    8    1   11    5       -0.0000000019
    8    1   12    5        0.0009985984
    8    1   13    5       -0.0000000121
    8    1    6    6       -0.0000139712
    8    1    7    6       -0.0000000003
    8    1    8    6       -0.0001791817
    8    1    9    6        0.0000124415
    8    1   10    6        0.0000000751
    8    1   11    6        0.0000168060
    8    1   12    6       -0.0000022790
    8    1   13    6        0.0000110217
    8    1    7    7        0.0000017033
    8    1    8    7        0.0000000000
    8    1    9    7       -0.0000000021
    8    1   10    7        0.0000000042
    8    1   11    7       -0.0000000109
    8    1   12    7        0.0000009574
    8    1   13    7       -0.0000000011
    8    1    8    8        0.0000004510
    8    1    9    8        0.0015165967
    8    1   10    8       -0.0000005916
    8    1   11    8       -0.0001323786
    8    1   12    8       -0.0000000390
    8    1   13    8        0.0014270417
    8    1    9    9       -0.0000017051
    8    1   10    9       -0.0000003500
    8    1   11    9       -0.0000082993
    8    1   12    9       -0.0000009441
    8    1   13    9       -0.0000121250
    8    1   10   10        0.0000045958
    8    1   11   10       -0.0000001685
    8    1   12   10       -0.0016712938
    8    1   13   10       -0.0000002579
    8    1   11   11       -0.0000148187
    8    1   12   11        0.0000049679
    8    1   13   11       -0.0000093970
    8    1   12   12       -0.0000019573
    8    1   13   12       -0.0000002038
    8    1   13   13       -0.0000014899
    9    1    9    1        0.0063582065
    9    1   10    1        0.0000005983
    9    1   11    1        0.0012666988
    9    1   12    1        0.0000000424
    9    1   13    1        0.0056099488
    9    1    2    2        0.0305849613
    9    1    3    2       -0.0000173097
    9    1    4    2       -0.0000000043
    9    1    5    2        0.0000000874
    9    1    6    2        0.0000208317
    9    1    7    2       -0.0000000047
    9    1    8    2        0.0065616576
    9    1    9    2       -0.0000140491
    9    1   10    2       -0.0000012632
    9    1   11    2       -0.0000165239
    9    1   12    2        0.0000023095
    9    1   13    2       -0.0000129679
    9    1    3    3        0.0013823802
    9    1    4    3        0.0000003931
    9    1    5    3       -0.0000054094
    9    1    6    3        0.0000544515
    9    1    7    3       -0.0000000002
    9    1    8    3        0.0000166701
    9    1    9    3        0.0014157133
    9    1   10    3        0.0000030063
    9    1   11    3        0.0001030121
    9    1   12    3       -0.0000000527
    9    1   13    3        0.0014725714
    9    1    4    4        0.0021216507
    9    1    5    4       -0.0000000048
    9    1    6    4        0.0000004659
    9    1    7    4       -0.0000071172
    9    1    8    4        0.0000000045
    9    1    9    4        0.0000003304
    9    1   10    4        0.0000001176
    9    1   11    4        0.0000000553
    9    1   12    4       -0.0000052079
    9    1   13    4        0.0000000757
    9    1    5    5        0.0021209610
    9    1    6    5       -0.0000061895
    9    1    7    5       -0.0000005309
    9    1    8    5       -0.0000000345
    9    1    9    5       -0.0000044693
    9    1   10    5       -0.0024549430
    9    1   11    5        0.0000040788
    9    1   12    5        0.0000254884
    9    1   13    5       -0.0000016345
    9    1    6    6        0.0008382368
    9    1    7    6       -0.0000000001
    9    1    8    6       -0.0000048050
    9    1    9    6        0.0000036222
    9    1   10    6        0.0000071066
    9    1   11    6       -0.0008540521
    9    1   12    6       -0.0000000890
    9    1   13    6        0.0000437678
    9    1    7    7        0.0003660112
    9    1    8    7       -0.0000000011
    9    1    9    7       -0.0000000001
    9    1   10    7        0.0000006670
    9    1   11    7       -0.0000000008
    9    1   12    7        0.0000000277
    9    1   13    7        0.0000000004
    9    1    8    8        0.0020002252
    9    1    9    8        0.0000012244
    9    1   10    8       -0.0000003876
    9    1   11    8       -0.0000030027
    9    1   12    8       -0.0000059765
    9    1   13    8       -0.0000027236
    9    1    9    9        0.0020034675
    9    1   10    9        0.0000045445
    9    1   11    9       -0.0000386034
    9    1   12    9        0.0000000055
    9    1   13    9        0.0017685963
    9    1   10   10        0.0034921895
    9    1   11   10       -0.0000074247
    9    1   12   10       -0.0000034280
    9    1   13   10        0.0000030853
    9    1   11   11        0.0013717028
    9    1   12   11        0.0000000151
    9    1   13   11       -0.0003058888
    9    1   12   12        0.0019326971
    9    1   13   12       -0.0000000137
    9    1   13   13        0.0018922441
   10    1   10    1        0.0079114620
   10    1   11    1       -0.0000045304
   10    1   12    1       -0.0000027094
   10    1   13    1        0.0000035395
   10    1    2    2        0.0000023001
   10    1    3    2       -0.0000008295
   10    1    4    2        0.0000000963
   10    1    5    2        0.0000001259
   10    1    6    2       -0.0000000017
   10    1    7    2        0.0000000025
   10    1    8    2       -0.0000092544
   10    1    9    2       -0.0000009519
   10    1   10    2        0.0000025049
   10    1   11    2        0.0000003169
   10    1   12    2       -0.0061215653
   10    1   13    2       -0.0000008938
   10    1    3    3        0.0001665525
   10    1    4    3       -0.0000002671
   10    1    5    3        0.0057052343
   10    1    6    3        0.0000690785
   10    1    7    3        0.0000117721
   10    1    8    3        0.0000000481
   10    1    9    3       -0.0000308888
   10    1   10    3       -0.0010605244
   10    1   11    3       -0.0000058567
   10    1   12    3        0.0000048996
   10    1   13    3       -0.0000445611
   10    1    4    4        0.0000726353
   10    1    5    4       -0.0000020246
   10    1    6    4       -0.0000000866
   10    1    7    4        0.0036386778
   10    1    8    4       -0.0000000810
   10    1    9    4       -0.0000001817
   10    1   10    4       -0.0000053596
   10    1   11    4        0.0000000638
   10    1   12    4        0.0000000598
   10    1   13    4       -0.0000001364
   10    1    5    5        0.0000570156
   10    1    6    5        0.0019525696
   10    1    7    5        0.0005418264
   10    1    8    5        0.0000037448
   10    1    9    5        0.0035400845
   10    1   10    5        0.0000555839
   10    1   11    5       -0.0015751627
   10    1   12    5        0.0000002208
   10    1   13    5        0.0027136401
   10    1    6    6        0.0001180033
   10    1    7    6        0.0000040041
   10    1    8    6       -0.0000000497
   10    1    9    6        0.0000285232
   10    1   10    6       -0.0023271059
   10    1   11    6        0.0000955181
   10    1   12    6        0.0000087769
   10    1   13    6       -0.0000123200
   10    1    7    7        0.0002345364
   10    1    8    7        0.0000000094
   10    1    9    7        0.0000042003
   10    1   10    7       -0.0007682590
   10    1   11    7       -0.0000052890
   10    1   12    7       -0.0000003923
   10    1   13    7       -0.0000047362
   10    1    8    8        0.0001874090
   10    1    9    8       -0.0000001940
   10    1   10    8       -0.0000010692
   10    1   11    8       -0.0000001671
   10    1   12    8        0.0057292852
   10    1   13    8       -0.0000001760
   10    1    9    9        0.0001827709
   10    1   10    9       -0.0045751876
   10    1   11    9       -0.0000557775
   10    1   12    9       -0.0000000195
   10    1   13    9       -0.0000287900
   10    1   10   10        0.0001214858
   10    1   11   10        0.0031976462
   10    1   12   10       -0.0000000834
   10    1   13   10       -0.0031879814
   10    1   11   11        0.0001875643
   10    1   12   11       -0.0000007410
   10    1   13   11       -0.0000392871
   10    1   12   12        0.0000479848
   10    1   13   12        0.0000009252
   10    1   13   13        0.0002127905
   11    1   11    1        0.0042361965
   11    1   12    1        0.0000000527
   11    1   13    1        0.0008378440
   11    1    2    2       -0.0017670757
   11    1    3    2       -0.0000099693
   11    1    4    2        0.0000000148
   11    1    5    2       -0.0000000182
   11    1    6    2        0.0000209605
   11    1    7    2        0.0000000146
   11    1    8    2       -0.0001042445
   11    1    9    2       -0.0000128264
   11    1   10    2       -0.0000001166
   11    1   11    2       -0.0000200864
   11    1   12    2        0.0000101475
   11    1   13    2       -0.0000111742
   11    1    3    3        0.0006739593
   11    1    4    3       -0.0000010436
   11    1    5    3        0.0000006899
   11    1    6    3        0.0023638329
   11    1    7    3       -0.0000000265
   11    1    8    3        0.0000298605
   11    1    9    3        0.0003844029
   11    1   10    3       -0.0000019550
   11    1   11    3       -0.0010217285
   11    1   12    3       -0.0000000050
   11    1   13    3        0.0002363669
   11    1    4    4        0.0015748069
   11    1    5    4        0.0000000141
   11    1    6    4        0.0000006647
   11    1    7    4       -0.0000017225
   11    1    8    4       -0.0000000110
   11    1    9    4       -0.0000008081
   11    1   10    4        0.0000000984
   11    1   11    4       -0.0000003719
   11    1   12    4       -0.0000078797
   11    1   13    4       -0.0000005654
   11    1    5    5        0.0015747438
   11    1    6    5       -0.0000104031
   11    1    7    5       -0.0000007958
   11    1    8    5        0.0000000112
   11    1    9    5        0.0000026506
   11    1   10    5       -0.0017909185
   11    1   11    5        0.0000067391
   11    1   12    5        0.0000442833
   11    1   13    5        0.0000014581
   11    1    6    6       -0.0011953705
   11    1    7    6       -0.0000000085
   11    1    8    6       -0.0000103726
   11    1    9    6        0.0026737136
   11    1   10    6        0.0000117625
   11    1   11    6        0.0022831456
   11    1   12    6       -0.0000000773
   11    1   13    6        0.0020884391
   11    1    7    7        0.0017714480
   11    1    8    7       -0.0000000432
   11    1    9    7       -0.0000000087
   11    1   10    7        0.0000013436
   11    1   11    7        0.0000000160
   11    1   12    7        0.0000001131
   11    1   13    7        0.0000000122
   11    1    8    8        0.0011377068
   11    1    9    8        0.0000038210
   11    1   10    8       -0.0000000393
   11    1   11    8       -0.0000017585
   11    1   12    8       -0.0000055933
   11    1   13    8        0.0000000881
   11    1    9    9        0.0006162759
   11    1   10    9       -0.0000008113
   11    1   11    9       -0.0024785833
   11    1   12    9       -0.0000000217
   11    1   13    9        0.0003443781
   11    1   10   10        0.0031361850
   11    1   11   10       -0.0000130941
   11    1   12   10       -0.0000058945
   11    1   13   10       -0.0000007631
   11    1   11   11       -0.0015760720
   11    1   12   11       -0.0000000145
   11    1   13   11       -0.0027671169
   11    1   12   12        0.0006414243
   11    1   13   12       -0.0000000404
   11    1   13   13        0.0004398568
   12    1   12    1        0.0034861883
   12    1   13    1        0.0000000379
   12    1    2    2       -0.0000000698
   12    1    3    2        0.0000032488
   12    1    4    2       -0.0008283326
   12    1    5    2        0.0035323402
   12    1    6    2       -0.0000086317
   12    1    7    2        0.0000000438
   12    1    8    2        0.0000000188
   12    1    9    2       -0.0000002126
   12    1   10    2       -0.0035295338
   12    1   11    2        0.0000064277
   12    1   12    2       -0.0000034580
   12    1   13    2       -0.0000018066
   12    1    3    3        0.0000009034
   12    1    4    3       -0.0000087219
   12    1    5    3        0.0000339607
   12    1    6    3       -0.0000005909
   12    1    7    3       -0.0000001879
   12    1    8    3       -0.0000564087
   12    1    9    3       -0.0000010057
   12    1   10    3        0.0000187705
   12    1   11    3       -0.0000007384
   12    1   12    3       -0.0034090223
   12    1   13    3       -0.0000002239
   12    1    4    4        0.0000002705
   12    1    5    4        0.0000000580
   12    1    6    4        0.0000089666
   12    1    7    4        0.0000119767
   12    1    8    4        0.0007191923
   12    1    9    4        0.0000001391
   12    1   10    4        0.0000000601
   12    1   11    4       -0.0000002484
   12    1   12    4        0.0000013571
   12    1   13    4        0.0000001853
   12    1    5    5        0.0000000421
   12    1    6    5       -0.0000448202
   12    1    7    5       -0.0000011951
   12    1    8    5       -0.0030673309
   12    1    9    5       -0.0000028653
   12    1   10    5        0.0000007765
   12    1   11    5        0.0000034220
   12    1   12    5       -0.0000158640
   12    1   13    5       -0.0000031299
   12    1    6    6        0.0000005661
   12    1    7    6        0.0000000409
   12    1    8    6       -0.0000053681
   12    1    9    6        0.0000004702
   12    1   10    6       -0.0000081116
   12    1   11    6        0.0000005055
   12    1   12    6        0.0009653852
   12    1   13    6        0.0000006574
   12    1    7    7        0.0000011079
   12    1    8    7        0.0000083899
   12    1    9    7        0.0000000145
   12    1   10    7        0.0000016782
   12    1   11    7        0.0000001689
   12    1   12    7        0.0005063548
   12    1   13    7        0.0000001526
   12    1    8    8        0.0000000382
   12    1    9    8        0.0000202974
   12    1   10    8        0.0001534554
   12    1   11    8        0.0000125299
   12    1   12    8        0.0000012095
   12    1   13    8        0.0000159879
   12    1    9    9        0.0000018732
   12    1   10    9       -0.0000229517
   12    1   11    9        0.0000006500
   12    1   12    9       -0.0018068524
   12    1   13    9       -0.0000011890
   12    1   10   10        0.0000004542
   12    1   11   10       -0.0000148179
   12    1   12   10       -0.0000263615
   12    1   13   10        0.0000074925
   12    1   11   11        0.0000007500
   12    1   12   11       -0.0000769390
   12    1   13   11        0.0000006921
   12    1   12   12        0.0000000014
   12    1   13   12       -0.0011648911
   12    1   13   13        0.0000029587
   13    1   13    1        0.0050965633
   13    1    2    2        0.0254862575
   13    1    3    2       -0.0000145412
   13    1    4    2       -0.0000000054
   13    1    5    2        0.0000000842
   13    1    6    2        0.0000160372
   13    1    7    2       -0.0000000040
   13    1    8    2        0.0057009590
   13    1    9    2       -0.0000124291
   13    1   10    2       -0.0000011214
   13    1   11    2       -0.0000131445
   13    1   12    2       -0.0000018954
   13    1   13    2       -0.0000123965
   13    1    3    3        0.0010150638
   13    1    4    3       -0.0000002684
   13    1    5    3        0.0000051029
   13    1    6    3       -0.0001251539
   13    1    7    3        0.0000000028
   13    1    8    3        0.0000074382
   13    1    9    3        0.0010705714
   13    1   10    3        0.0000010018
   13    1   11    3        0.0000027682
   13    1   12    3       -0.0000000602
   13    1   13    3        0.0009086626
   13    1    4    4        0.0011010930
   13    1    5    4       -0.0000000017
   13    1    6    4        0.0000002057
   13    1    7    4        0.0000011642
   13    1    8    4        0.0000000051
   13    1    9    4        0.0000000628
   13    1   10    4        0.0000000680
   13    1   11    4        0.0000000230
   13    1   12    4       -0.0000029882
   13    1   13    4        0.0000001048
   13    1    5    5        0.0011005846
   13    1    6    5       -0.0000023783
   13    1    7    5        0.0000001601
   13    1    8    5       -0.0000000406
   13    1    9    5        0.0000000951
   13    1   10    5       -0.0014262439
   13    1   11    5        0.0000023518
   13    1   12    5        0.0000141624
   13    1   13    5       -0.0000010926
   13    1    6    6        0.0002428418
   13    1    7    6        0.0000000007
   13    1    8    6       -0.0000020499
   13    1    9    6       -0.0001060553
   13    1   10    6        0.0000037755
   13    1   11    6       -0.0002390936
   13    1   12    6       -0.0000000108
   13    1   13    6        0.0000508011
   13    1    7    7        0.0001822676
   13    1    8    7       -0.0000000011
   13    1    9    7        0.0000000008
   13    1   10    7       -0.0000001538
   13    1   11    7       -0.0000000007
   13    1   12    7        0.0000000024
   13    1   13    7       -0.0000000015
   13    1    8    8        0.0015456580
   13    1    9    8       -0.0000001032
   13    1   10    8       -0.0000003062
   13    1   11    8       -0.0000007312
   13    1   12    8        0.0000052902
   13    1   13    8       -0.0000006048
   13    1    9    9        0.0012771113
   13    1   10    9       -0.0000024574
   13    1   11    9       -0.0000371893
   13    1   12    9       -0.0000000206
   13    1   13    9        0.0012217531
   13    1   10   10        0.0020479591
   13    1   11   10       -0.0000017499
   13    1   12   10       -0.0000025497
   13    1   13   10        0.0000000090
   13    1   11   11        0.0006504036
   13    1   12   11        0.0000000230
   13    1   13   11       -0.0001066129
   13    1   12   12        0.0010698687
   13    1   13   12        0.0000000076
   13    1   13   13        0.0013760000
    2    2    2    2        0.3576973621
    2    2    3    2       -0.0000694486
    2    2    4    2       -0.0000000111
    2    2    5    2        0.0000002880
    2    2    6    2        0.0000577696
    2    2    7    2       -0.0000000284
    2    2    8    2        0.0397324283
    2    2    9    2       -0.0000248880
    2    2   10    2       -0.0000062718
    2    2   11    2       -0.0000288502
    2    2   12    2       -0.0000032120
    2    2   13    2       -0.0000241728
    2    2    3    3        0.1331226064
    2    2    4    3        0.0000002777
    2    2    5    3       -0.0000032988
    2    2    6    3       -0.0038052315
    2    2    7    3       -0.0000000003
    2    2    8    3       -0.0000110433
    2    2    9    3        0.0294837864
    2    2   10    3        0.0000028326
    2    2   11    3        0.0020658626
    2    2   12    3        0.0000000514
    2    2   13    3        0.0152978166
    2    2    4    4        0.1577053415
    2    2    5    4        0.0000000039
    2    2    6    4        0.0000017930
    2    2    7    4       -0.0000254636
    2    2    8    4       -0.0000000029
    2    2    9    4        0.0000011839
    2    2   10    4        0.0000018825
    2    2   11    4        0.0000071383
    2    2   12    4        0.0000050961
    2    2   13    4       -0.0000005420
    2    2    5    5        0.1576953051
    2    2    6    5       -0.0000230291
    2    2    7    5       -0.0000018635
    2    2    8    5        0.0000004818
    2    2    9    5       -0.0000146977
    2    2   10    5       -0.0384028311
    2    2   11    5       -0.0000038226
    2    2   12    5       -0.0000011547
    2    2   13    5       -0.0000023914
    2    2    6    6        0.1478878980
    2    2    7    6        0.0000000005
    2    2    8    6        0.0000166556
    2    2    9    6       -0.0051355199
    2    2   10    6        0.0000300036
    2    2   11    6       -0.0319877773
    2    2   12    6       -0.0000008793
    2    2   13    6       -0.0012700834
    2    2    7    7        0.1344316293
    2    2    8    7       -0.0000000033
    2    2    9    7       -0.0000000004
    2    2   10    7        0.0000031828
    2    2   11    7       -0.0000000090
    2    2   12    7        0.0000006336
    2    2   13    7        0.0000000038
    2    2    8    8        0.1379389384
    2    2    9    8       -0.0000094185
    2    2   10    8       -0.0000056063
    2    2   11    8       -0.0000165244
    2    2   12    8        0.0000014608
    2    2   13    8       -0.0000142666
    2    2    9    9        0.1340020079
    2    2   10    9        0.0000103075
    2    2   11    9        0.0042168866
    2    2   12    9        0.0000000813
    2    2   13    9        0.0308130918
    2    2   10   10        0.1581040575
    2    2   11   10       -0.0000220146
    2    2   12   10       -0.0000117014
    2    2   13   10        0.0000156112
    2    2   11   11        0.1469323654
    2    2   12   11       -0.0000002577
    2    2   13   11        0.0057489035
    2    2   12   12        0.1608424468
    2    2   13   12        0.0000001652
    2    2   13   13        0.1333782036
    3    2    3    2        0.0036723455
    3    2    4    2       -0.0000002293
    3    2    5    2        0.0000031325
    3    2    6    2       -0.0003121305
    3    2    7    2       -0.0000000000
    3    2    8    2       -0.0000124111
    3    2    9    2        0.0039763430
    3    2   10    2       -0.0000031503
    3    2   11    2       -0.0004829492
    3    2   12    2       -0.0000000594
    3    2   13    2        0.0035765885
    3    2    3    3        0.0000564571
    3    2    4    3       -0.0000000100
    3    2    5    3        0.0000001357
    3    2    6    3       -0.0000734336
    3    2    7    3        0.0000000013
    3    2    8    3       -0.0019533514
    3    2    9    3       -0.0000215058
    3    2   10    3        0.0000000923
    3    2   11    3       -0.0000031494
    3    2   12    3       -0.0000143360
    3    2   13    3       -0.0000133117
    3    2    4    4        0.0000384892
    3    2    5    4        0.0000000083
    3    2    6    4        0.0000000035
    3    2    7    4        0.0000001380
    3    2    8    4        0.0000009787
    3    2    9    4        0.0000000107
    3    2   10    4       -0.0000000682
    3    2   11    4       -0.0000000008
    3    2   12    4        0.0005673702
    3    2   13    4        0.0000000022
    3    2    5    5        0.0000384972
    3    2    6    5       -0.0000000527
    3    2    7    5        0.0000000099
    3    2    8    5       -0.0000131919
    3    2    9    5       -0.0000001439
    3    2   10    5        0.0000380274
    3    2   11    5       -0.0000001021
    3    2   12    5       -0.0024202409
    3    2   13    5       -0.0000000180
    3    2    6    6        0.0000985856
    3    2    7    6       -0.0000000004
    3    2    8    6        0.0003030500
    3    2    9    6       -0.0000255058
    3    2   10    6       -0.0000004652
    3    2   11    6       -0.0000314874
    3    2   12    6        0.0000072672
    3    2   13    6        0.0000027749
    3    2    7    7        0.0000449019
    3    2    8    7        0.0000000000
    3    2    9    7       -0.0000000002
    3    2   10    7       -0.0000000170
    3    2   11    7       -0.0000001001
    3    2   12    7        0.0000007179
    3    2   13    7       -0.0000000012
    3    2    8    8       -0.0000071730
    3    2    9    8        0.0008306485
    3    2   10    8       -0.0000008345
    3    2   11    8        0.0002629108
    3    2   12    8        0.0000001455
    3    2   13    8        0.0010588717
    3    2    9    9        0.0000682870
    3    2   10    9       -0.0000000041
    3    2   11    9        0.0000548062
    3    2   12    9       -0.0000009156
    3    2   13    9       -0.0000227692
    3    2   10   10        0.0000380632
    3    2   11   10       -0.0000000435
    3    2   12   10       -0.0008177910
    3    2   13   10       -0.0000000405
    3    2   11   11        0.0000704507
    3    2   12   11        0.0000027313
    3    2   13   11        0.0000514637
    3    2   12   12       -0.0000088916
    3    2   13   12       -0.0000002494
    3    2   13   13        0.0000937963
    4    2    4    2        0.0038160186
    4    2    5    2        0.0000000000
    4    2    6    2       -0.0000001221
    4    2    7    2        0.0000008724
    4    2    8    2       -0.0000000010
    4    2    9    2        0.0000001835
    4    2   10    2        0.0000001830
    4    2   11    2        0.0000011936
    4    2   12    2        0.0000010569
    4    2   13    2        0.0000001973
    4    2    3    3       -0.0000000713
    4    2    4    3        0.0000520848
    4    2    5    3        0.0000000130
    4    2    6    3        0.0000000196
    4    2    7    3        0.0000011860
    4    2    8    3        0.0000041605
    4    2    9    3        0.0000001010
    4    2   10    3       -0.0000001070
    4    2   11    3        0.0000000566
    4    2   12    3        0.0009072802
    4    2   13    3        0.0000000238
    4    2    4    4        0.0000000697
    4    2    5    4       -0.0000004922
    4    2    6    4       -0.0000561588
    4    2    7    4       -0.0000023938
    4    2    8    4       -0.0036738808
    4    2    9    4       -0.0000017949
    4    2   10    4       -0.0000003853
    4    2   11    4        0.0000032919
    4    2   12    4        0.0000173531
    4    2   13    4       -0.0000024245
    4    2    5    5       -0.0000000605
    4    2    6    5       -0.0000000044
    4    2    7    5        0.0000160742
    4    2    8    5        0.0000000000
    4    2    9    5        0.0000000065
    4    2   10    5       -0.0000001559
    4    2   11    5       -0.0000000606
    4    2   12    5       -0.0000020661
    4    2   13    5        0.0000000034
    4    2    6    6       -0.0000000120
    4    2    7    6       -0.0000007638
    4    2    8    6        0.0000007209
    4    2    9    6       -0.0000000590
    4    2   10    6        0.0000000333
    4    2   11    6       -0.0000000845
    4    2   12    6       -0.0002749029
    4    2   13    6       -0.0000000592
    4    2    7    7       -0.0000000974
    4    2    8    7       -0.0000661399
    4    2    9    7       -0.0000005684
    4    2   10    7       -0.0000182450
    4    2   11    7       -0.0000011470
    4    2   12    7       -0.0018047317
    4    2   13    7       -0.0000015687
    4    2    8    8       -0.0000000175
    4    2    9    8       -0.0000021697
    4    2   10    8        0.0000000029
    4    2   11    8       -0.0000010802
    4    2   12    8       -0.0000013409
    4    2   13    8       -0.0000014698
    4    2    9    9       -0.0000001626
    4    2   10    9       -0.0000000505
    4    2   11    9       -0.0000000321
    4    2   12    9        0.0004444635
    4    2   13    9        0.0000001185
    4    2   10   10       -0.0000002990
    4    2   11   10        0.0000000924
    4    2   12   10       -0.0000001260
    4    2   13   10       -0.0000000322
    4    2   11   11       -0.0000000376
    4    2   12   11        0.0000260304
    4    2   13   11       -0.0000000418
    4    2   12   12        0.0000000152
    4    2   13   12        0.0002795136
    4    2   13   13       -0.0000002538
    5    2    5    2        0.0038145285
    5    2    6    2        0.0000016293
    5    2    7    2        0.0000000658
    5    2    8    2        0.0000000774
    5    2    9    2       -0.0000023193
    5    2   10    2       -0.0037056958
    5    2   11    2       -0.0000052938
    5    2   12    2       -0.0000059389
    5    2   13    2       -0.0000036699
    5    2    3    3        0.0000009831
    5    2    4    3        0.0000000268
    5    2    5    3        0.0000520945
    5    2    6    3       -0.0000002799
    5    2    7    3        0.0000000882
    5    2    8    3       -0.0000565582
    5    2    9    3       -0.0000013621
    5    2   10    3        0.0000260844
    5    2   11    3       -0.0000009598
    5    2   12    3       -0.0038695031
    5    2   13    3       -0.0000003042
    5    2    4    4        0.0000000574
    5    2    5    4       -0.0000000221
    5    2    6    4        0.0000000013
    5    2    7    4        0.0000160782
    5    2    8    4        0.0000000003
    5    2    9    4        0.0000000123
    5    2   10    4       -0.0000000670
    5    2   11    4       -0.0000000634
    5    2   12    4        0.0000016039
    5    2   13    4        0.0000000076
    5    2    5    5       -0.0000001596
    5    2    6    5       -0.0000561516
    5    2    7    5        0.0000024166
    5    2    8    5       -0.0036731417
    5    2    9    5       -0.0000017818
    5    2   10    5        0.0000009318
    5    2   11    5        0.0000032771
    5    2   12    5       -0.0000042165
    5    2   13    5       -0.0000024145
    5    2    6    6        0.0000001899
    5    2    7    6       -0.0000000562
    5    2    8    6       -0.0000099897
    5    2    9    6        0.0000007853
    5    2   10    6       -0.0000126925
    5    2   11    6        0.0000010622
    5    2   12    6        0.0011726085
    5    2   13    6        0.0000007967
    5    2    7    7        0.0000013279
    5    2    8    7       -0.0000048963
    5    2    9    7       -0.0000000424
    5    2   10    7       -0.0000027883
    5    2   11    7       -0.0000000877
    5    2   12    7        0.0001488874
    5    2   13    7       -0.0000001169
    5    2    8    8        0.0000002707
    5    2    9    8        0.0000292036
    5    2   10    8        0.0000595847
    5    2   11    8        0.0000133253
    5    2   12    8        0.0000080235
    5    2   13    8        0.0000199205
    5    2    9    9        0.0000022157
    5    2   10    9       -0.0000350951
    5    2   11    9        0.0000004475
    5    2   12    9       -0.0018953446
    5    2   13    9       -0.0000015964
    5    2   10   10        0.0000004512
    5    2   11   10       -0.0000171281
    5    2   12   10       -0.0000377424
    5    2   13   10        0.0000075235
    5    2   11   11        0.0000007009
    5    2   12   11       -0.0001110129
    5    2   13   11        0.0000004949
    5    2   12   12        0.0000000681
    5    2   13   12       -0.0011919545
    5    2   13   13        0.0000034706
    6    2    6    2        0.0041245505
    6    2    7    2        0.0000000002
    6    2    8    2        0.0000136768
    6    2    9    2       -0.0008065694
    6    2   10    2       -0.0000005608
    6    2   11    2       -0.0045698659
    6    2   12    2       -0.0000001215
    6    2   13    2       -0.0006064634
    6    2    3    3       -0.0001345190
    6    2    4    3       -0.0000000279
    6    2    5    3        0.0000003797
    6    2    6    3        0.0001808656
    6    2    7    3       -0.0000000034
    6    2    8    3        0.0045490417
    6    2    9    3        0.0000018729
    6    2   10    3       -0.0000005312
    6    2   11    3       -0.0000282793
    6    2   12    3        0.0000078240
    6    2   13    3        0.0000068460
    6    2    4    4       -0.0001041116
    6    2    5    4       -0.0000000224
    6    2    6    4        0.0000000236
    6    2    7    4       -0.0000000247
    6    2    8    4       -0.0000002287
    6    2    9    4       -0.0000000199
    6    2   10    4        0.0000001796
    6    2   11    4        0.0000000023
    6    2   12    4       -0.0015152022
    6    2   13    4       -0.0000000102
    6    2    5    5       -0.0001041301
    6    2    6    5       -0.0000003102
    6    2    7    5       -0.0000000011
    6    2    8    5        0.0000027282
    6    2    9    5        0.0000002749
    6    2   10    5       -0.0000570494
    6    2   11    5        0.0000001813
    6    2   12    5        0.0064625992
    6    2   13    5        0.0000001212
    6    2    6    6       -0.0002801693
    6    2    7    6        0.0000000013
    6    2    8    6       -0.0014202483
    6    2    9    6        0.0001037846
    6    2   10    6        0.0000011014
    6    2   11    6        0.0001444927
    6    2   12    6       -0.0000209985
    6    2   13    6        0.0000336343
    6    2    7    7       -0.0000974588
    6    2    8    7       -0.0000000006
    6    2    9    7       -0.0000000015
    6    2   10    7        0.0000000128
    6    2   11    7        0.0000001597
    6    2   12    7        0.0000007974
    6    2   13    7        0.0000000005
    6    2    8    8        0.0000077028
    6    2    9    8        0.0010865800
    6    2   10    8       -0.0000018639
    6    2   11    8       -0.0006487371
    6    2   12    8       -0.0000000235
    6    2   13    8        0.0003104197
    6    2    9    9       -0.0001591065
    6    2   10    9       -0.0000010307
    6    2   11    9       -0.0001517479
    6    2   12    9        0.0000043924
    6    2   13    9       -0.0000021369
    6    2   10   10       -0.0000825747
    6    2   11   10       -0.0000003870
    6    2   12   10       -0.0016253195
    6    2   13   10       -0.0000004520
    6    2   11   11       -0.0002229038
    6    2   12   11        0.0000062697
    6    2   13   11       -0.0001496728
    6    2   12   12       -0.0000035275
    6    2   13   12        0.0000026266
    6    2   13   13       -0.0002135935
    7    2    7    2        0.0004899176
    7    2    8    2       -0.0000000053
    7    2    9    2       -0.0000000001
    7    2   10    2        0.0000000815
    7    2   11    2       -0.0000000004
    7    2   12    2        0.0000000094
    7    2   13    2       -0.0000000000
    7    2    3    3       -0.0000000013
    7    2    4    3        0.0000003310
    7    2    5    3        0.0000000241
    7    2    6    3        0.0000000001
    7    2    7    3        0.0000179204
    7    2    8    3        0.0000000003
    7    2    9    3       -0.0000000017
    7    2   10    3        0.0000000062
    7    2   11    3       -0.0000000558
    7    2   12    3        0.0000018151
    7    2   13    3       -0.0000000018
    7    2    4    4       -0.0000003687
    7    2    5    4        0.0000024559
    7    2    6    4       -0.0000002160
    7    2    7    4       -0.0000000085
    7    2    8    4       -0.0000137405
    7    2    9    4       -0.0000000616
    7    2   10    4       -0.0000081890
    7    2   11    4       -0.0000000556
[...]
   10    7   10   10        0.0000150290
   10    7   11   10       -0.0004401180
   10    7   12   10        0.0000003433
   10    7   13   10        0.0006172240
   10    7   11   11       -0.0000353574
   10    7   12   11       -0.0000003018
   10    7   13   11        0.0000070001
   10    7   12   12       -0.0000636892
   10    7   13   12       -0.0000012516
   10    7   13   13       -0.0000414828
   11    7   11    7        0.0065774973
   11    7   12    7        0.0000024276
   11    7   13    7        0.0024312499
   11    7    8    8        0.0000001136
   11    7    9    8        0.0000000841
   11    7   10    8        0.0000000088
   11    7   11    8       -0.0000005032
   11    7   12    8        0.0000514964
   11    7   13    8       -0.0000000746
   11    7    9    9        0.0000001004
   11    7   10    9        0.0000143393
   11    7   11    9       -0.0000000803
   11    7   12    9       -0.0000002535
   11    7   13    9       -0.0000000254
   11    7   10   10       -0.0000172265
   11    7   11   10       -0.0000054753
   11    7   12   10        0.0000029967
   11    7   13   10        0.0000019404
   11    7   11   11        0.0000001464
   11    7   12   11        0.0000000505
   11    7   13   11       -0.0000000332
   11    7   12   12        0.0002747395
   11    7   13   12       -0.0000003585
   11    7   13   13        0.0000001142
   12    7   12    7        0.0051736801
   12    7   13    7        0.0000033508
   12    7    8    8        0.0000002760
   12    7    9    8        0.0000016112
   12    7   10    8        0.0002761343
   12    7   11    8        0.0000086254
   12    7   12    8        0.0000013016
   12    7   13    8        0.0000089476
   12    7    9    9        0.0000005097
   12    7   10    9        0.0000004576
   12    7   11    9       -0.0000001628
   12    7   12    9       -0.0006710950
   12    7   13    9        0.0000001660
   12    7   10   10        0.0000007629
   12    7   11   10       -0.0000002108
   12    7   12   10       -0.0000040204
   12    7   13   10        0.0000009855
   12    7   11   11        0.0000003828
   12    7   12   11        0.0001588179
   12    7   13   11       -0.0000001560
   12    7   12   12        0.0000002471
   12    7   13   12       -0.0001715735
   12    7   13   13        0.0000007165
   13    7   13    7        0.0064522638
   13    7    8    8       -0.0000000089
   13    7    9    8        0.0000000012
   13    7   10    8        0.0000000103
   13    7   11    8       -0.0000001151
   13    7   12    8        0.0000430921
   13    7   13    8        0.0000000021
   13    7    9    9       -0.0000000112
   13    7   10    9        0.0000124606
   13    7   11    9       -0.0000000271
   13    7   12    9       -0.0000000346
   13    7   13    9        0.0000000084
   13    7   10   10        0.0004653889
   13    7   11   10       -0.0000045583
   13    7   12   10        0.0000038093
   13    7   13   10        0.0000006237
   13    7   11   11        0.0000000229
   13    7   12   11       -0.0000001161
   13    7   13   11        0.0000000012
   13    7   12   12       -0.0000457323
   13    7   13   12       -0.0000001364
   13    7   13   13       -0.0000000166
    8    8    8    8        0.1227338243
    8    8    9    8       -0.0000001016
    8    8   10    8       -0.0000013619
    8    8   11    8       -0.0000017727
    8    8   12    8        0.0008092389
    8    8   13    8       -0.0000010195
    8    8    9    9        0.1134489477
    8    8   10    9       -0.0005719149
    8    8   11    9       -0.0031025019
    8    8   12    9       -0.0000000331
    8    8   13    9        0.0076764860
    8    8   10   10        0.1212380465
    8    8   11   10        0.0001940010
    8    8   12   10       -0.0000017088
    8    8   13   10       -0.0000913939
    8    8   11   11        0.1168289493
    8    8   12   11        0.0000003438
    8    8   13   11       -0.0017781389
    8    8   12   12        0.1271325339
    8    8   13   12       -0.0000000197
    8    8   13   13        0.1117283856
    9    8    9    8        0.0061292108
    9    8   10    8       -0.0001273559
    9    8   11    8       -0.0018855070
    9    8   12    8        0.0000002154
    9    8   13    8       -0.0003716495
    9    8    9    9        0.0001536594
    9    8   10    9       -0.0000042798
    9    8   11    9        0.0000262780
    9    8   12    9        0.0000769252
    9    8   13    9       -0.0001331617
    9    8   10   10        0.0000865245
    9    8   11   10       -0.0000022079
    9    8   12   10       -0.0043533349
    9    8   13   10        0.0000018305
    9    8   11   11       -0.0000164902
    9    8   12   11       -0.0000099547
    9    8   13   11       -0.0000370315
    9    8   12   12       -0.0000084292
    9    8   13   12       -0.0000186969
    9    8   13   13        0.0001079183
   10    8   10    8        0.0056969893
   10    8   11    8        0.0000539320
   10    8   12    8       -0.0000052388
   10    8   13    8        0.0000325690
   10    8    9    9       -0.0000068040
   10    8   10    9        0.0001000400
   10    8   11    9       -0.0000016398
   10    8   12    9       -0.0027170349
   10    8   13    9        0.0000036271
   10    8   10   10       -0.0000049286
   10    8   11   10        0.0000461073
   10    8   12   10        0.0001160110
   10    8   13   10       -0.0000229658
   10    8   11   11       -0.0000022176
   10    8   12   11        0.0003472851
   10    8   13   11       -0.0000002681
   10    8   12   12       -0.0000022440
   10    8   13   12       -0.0002415464
   10    8   13   13       -0.0000065277
   11    8   11    8        0.0034249219
   11    8   12    8       -0.0000003369
   11    8   13    8        0.0003593494
   11    8    9    9        0.0000835855
   11    8   10    9        0.0000001397
   11    8   11    9        0.0000454466
   11    8   12    9       -0.0000407971
   11    8   13    9       -0.0000329431
   11    8   10   10        0.0000702699
   11    8   11   10       -0.0000002265
   11    8   12   10        0.0006933044
   11    8   13   10        0.0000002065
   11    8   11   11        0.0000645155
   11    8   12   11        0.0000424951
   11    8   13   11        0.0000549596
   11    8   12   12        0.0000023465
   11    8   13   12        0.0000050625
   11    8   13   13        0.0001395175
   12    8   12    8        0.0243111486
   12    8   13    8        0.0000002780
   12    8    9    9        0.0008801986
   12    8   10    9       -0.0137580409
   12    8   11    9       -0.0002085526
   12    8   12    9       -0.0000035830
   12    8   13    9       -0.0002606640
   12    8   10   10        0.0005618618
   12    8   11   10        0.0037820654
   12    8   12   10       -0.0000000968
   12    8   13   10       -0.0037474882
   12    8   11   11        0.0008748185
   12    8   12   11        0.0000115040
   12    8   13   11       -0.0001960747
   12    8   12   12        0.0004299001
   12    8   13   12       -0.0000008472
   12    8   13   13        0.0009764924
   13    8   13    8        0.0024272388
   13    8    9    9       -0.0000366913
   13    8   10    9        0.0000003018
   13    8   11    9       -0.0000081547
   13    8   12    9       -0.0000362835
   13    8   13    9        0.0000286827
   13    8   10   10        0.0000055527
   13    8   11   10        0.0000000547
   13    8   12   10       -0.0009523301
   13    8   13   10       -0.0000005153
   13    8   11   11        0.0000117095
   13    8   12   11        0.0000134400
   13    8   13   11        0.0000344818
   13    8   12   12       -0.0000040689
   13    8   13   12        0.0000226264
   13    8   13   13        0.0000358613
    9    9    9    9        0.1156497283
    9    9   10    9       -0.0007402472
    9    9   11    9        0.0002666238
    9    9   12    9        0.0000031269
    9    9   13    9        0.0034080994
    9    9   10   10        0.1171968332
    9    9   11   10        0.0001555811
    9    9   12   10       -0.0000992891
    9    9   13   10       -0.0000007601
    9    9   11   11        0.1121465153
    9    9   12   11        0.0000013995
    9    9   13   11       -0.0002480999
    9    9   12   12        0.1179966531
    9    9   13   12       -0.0000013936
    9    9   13   13        0.1104221981
   10    9   10    9        0.0125183915
   10    9   11    9        0.0001437394
   10    9   12    9       -0.0000389063
   10    9   13    9        0.0002718920
   10    9   10   10       -0.0004593728
   10    9   11   10       -0.0025079336
   10    9   12   10        0.0000043911
   10    9   13   10        0.0020469481
   10    9   11   11       -0.0005816056
   10    9   12   11       -0.0000195557
   10    9   13   11        0.0001474722
   10    9   12   12       -0.0003539482
   10    9   13   12        0.0000169002
   10    9   13   13       -0.0007406549
   11    9   11    9        0.0061268101
   11    9   12    9        0.0000007744
   11    9   13    9       -0.0005377889
   11    9   10   10       -0.0014084803
   11    9   11   10       -0.0000826977
   11    9   12   10       -0.0000115902
   11    9   13   10        0.0000717796
   11    9   11   11        0.0015728789
   11    9   12   11        0.0000000521
   11    9   13   11        0.0062613206
   11    9   12   12       -0.0005873301
   11    9   13   12       -0.0000000943
   11    9   13   13        0.0001720035
   12    9   12    9        0.0034475854
   12    9   13    9       -0.0000027170
   12    9   10   10        0.0000017604
   12    9   11   10       -0.0000127979
   12    9   12   10       -0.0000483035
   12    9   13   10        0.0000181379
   12    9   11   11       -0.0000000021
   12    9   12   11       -0.0002429326
   12    9   13   11       -0.0000007506
   12    9   12   12       -0.0000000920
   12    9   13   12        0.0007325036
   12    9   13   13        0.0000017539
   13    9   13    9        0.0110935688
   13    9   10   10        0.0110298808
   13    9   11   10        0.0000111220
   13    9   12   10        0.0000861877
   13    9   13   10       -0.0000869245
   13    9   11   11        0.0131015176
   13    9   12   11       -0.0000007843
   13    9   13   11        0.0002802421
   13    9   12   12        0.0129134446
   13    9   13   12        0.0000012758
   13    9   13   13        0.0059859105
   10   10   10   10        0.1321260906
   10   10   11   10        0.0000849680
   10   10   12   10       -0.0001134377
   10   10   13   10       -0.0000149319
   10   10   11   11        0.1195160956
   10   10   12   11        0.0000009137
   10   10   13   11       -0.0007230885
   10   10   12   12        0.1337406273
   10   10   13   12        0.0000000163
   10   10   13   13        0.1152944672
   11   10   11   10        0.0041664965
   11   10   12   10        0.0000025858
   11   10   13   10       -0.0023732716
   11   10   11   11        0.0002752458
   11   10   12   11       -0.0000019628
   11   10   13   11       -0.0000940977
   11   10   12   12        0.0000622694
   11   10   13   12        0.0000066710
   11   10   13   13        0.0002182421
   12   10   12   10        0.0072772058
   12   10   13   10       -0.0000011625
   12   10   11   11        0.0000188965
   12   10   12   11       -0.0000159067
   12   10   13   11        0.0000204791
   12   10   12   12       -0.0000073287
   12   10   13   12        0.0000037804
   12   10   13   13       -0.0000848231
   13   10   13   10        0.0042017734
   13   10   11   11       -0.0001417407
   13   10   12   11        0.0000033568
   13   10   13   11        0.0000958707
   13   10   12   12       -0.0000417583
   13   10   13   12       -0.0000101577
   13   10   13   13       -0.0000425648
   11   11   11   11        0.1288680374
   11   11   12   11        0.0000011859
   11   11   13   11       -0.0000933231
   11   11   12   12        0.1240880536
   11   11   13   12       -0.0000000147
   11   11   13   13        0.1154238212
   12   11   12   11        0.0015982323
   12   11   13   11       -0.0000000117
   12   11   12   12       -0.0000000989
   12   11   13   12        0.0001249440
   12   11   13   13        0.0000024465
   13   11   13   11        0.0121566963
   13   11   12   12        0.0010558248
   13   11   13   12        0.0000010912
   13   11   13   13        0.0013189177
   12   12   12   12        0.1540639054
   12   12   13   12       -0.0000001441
   12   12   13   13        0.1166200976
   13   12   13   12        0.0012896955
   13   12   13   13       -0.0000003993
   13   13   13   13        0.1135479280
 end_two_electron_integrals


 output epsi filename:./pspw_hf_H2.emovecs

 Total PSPW energy     :  -0.8718278728E+00


=== Spin Contamination ===

 <Sexact^2> =    0.0000000000000000     
 <S^2>      =    0.0000000000000000     



== Center of Charge ==

spin up     (    0.0000,    0.0000,    0.0001 )
spin down   (    0.0000,    0.0000,    0.0001 )
     total  (    0.0000,    0.0000,    0.0001 )
ionic       (    0.0000,    0.0000,    0.0000 )


== Molecular Dipole wrt Center of Mass ==

mu   =  (   -0.0000,   -0.0000,   -0.0002 ) au
|mu| =     0.0002 au,       0.0006 Debye

 output psi filename:./pspw_hf_H2.movecs

 Writing Crystallographic Information File:./H2.cif
   - cell not shifted (nwpw:cif_shift_cell .false.)


== Timing ==

cputime in seconds
  prologue    :   0.800444E+01
  main loop   :   0.322638E+03
  epilogue    :   0.667302E-02
  total       :   0.330649E+03
  cputime/step:   0.225621E+01       (     143 evalulations,      60 linesearches)


Time spent doing                        total          step       percent
  total time                 :   0.330650E+03  0.231224E+01       100.0 %
  i/o time                   :   0.259454E+01  0.181436E-01         0.8 %
  FFTs                       :   0.287633E+03  0.201142E+01        87.0 %
  dot products               :   0.416145E+00  0.291010E-02         0.1 %
  geodesic                   :   0.634494E-01  0.443702E-03         0.0 %
  ffm_dgemm                  :   0.933681E-02  0.652923E-04         0.0 %
  fmf_dgemm                  :   0.302789E-01  0.211741E-03         0.0 %
  mmm_dgemm                  :   0.135805E-02  0.949687E-05         0.0 %
  m_diagonalize              :   0.543484E-02  0.380058E-04         0.0 %
  local pseudopotentials     :   0.987106E-02  0.690284E-04         0.0 %
  non-local pseudopotentials :   0.839462E+00  0.587036E-02         0.3 %
  structure factors          :   0.397596E+00  0.278039E-02         0.1 %
  phase factors              :   0.596900E-05  0.417413E-07         0.0 %
  masking and packing        :   0.516003E+01  0.360841E-01         1.6 %
  queue fft                  :   0.128405E+01  0.897937E-02         0.4 %
  queue fft (serial)         :   0.760977E+00  0.532151E-02         0.2 %
  queue fft (message passing):   0.476725E+00  0.333374E-02         0.1 %
  HFX potential              :   0.223559E+03  0.156335E+01        67.6 %
  non-local psp FFM          :   0.451462E+00  0.315708E-02         0.1 %
  non-local psp FMF          :   0.100925E+00  0.705772E-03         0.0 %
  non-local psp FFM A        :   0.119743E+00  0.837366E-03         0.0 %
  non-local psp FFM B        :   0.846048E-01  0.591642E-03         0.0 %

== HFX Counters ==
  HFX Evalulations         =   143
  Lin ACE HFX Evalulations =     0


     >>>  JOB COMPLETED     AT Thu May  1 18:39:22 2025  <<<

 Task  times  cpu:      330.4s     wall:      330.7s
 Summary of allocated global arrays
-----------------------------------
  No active global arrays


MA_summarize_allocated_blocks: starting scan ...
MA_summarize_allocated_blocks: scan completed: 0 heap blocks, 0 stack blocks
MA usage statistics:

	allocation statistics:
					      heap	     stack
					      ----	     -----
	current number of blocks	         0	         0
	maximum number of blocks	       313	        17
	current total bytes		         0	         0
	maximum total bytes		 369662368	  89294088
	maximum total K-bytes		    369663	     89295
	maximum total M-bytes		       370	        90


                                NWChem Input Module
                                -------------------




                                     CITATION
                                     --------
                Please cite the following reference when publishing
                           results obtained with NWChem:

          E. Apra, E. J. Bylaska, W. A. de Jong, N. Govind, K. Kowalski,
       T. P. Straatsma, M. Valiev, H. J. J. van Dam, Y. Alexeev, J. Anchell,
       V. Anisimov, F. W. Aquino, R. Atta-Fynn, J. Autschbach, N. P. Bauman,
     J. C. Becca, D. E. Bernholdt, K. Bhaskaran-Nair, S. Bogatko, P. Borowski,
         J. Boschen, J. Brabec, A. Bruner, E. Cauet, Y. Chen, G. N. Chuev,
      C. J. Cramer, J. Daily, M. J. O. Deegan, T. H. Dunning Jr., M. Dupuis,
   K. G. Dyall, G. I. Fann, S. A. Fischer, A. Fonari, H. Fruchtl, L. Gagliardi,
      J. Garza, N. Gawande, S. Ghosh, K. Glaesemann, A. W. Gotz, J. Hammond,
       V. Helms, E. D. Hermes, K. Hirao, S. Hirata, M. Jacquelin, L. Jensen,
   B. G. Johnson, H. Jonsson, R. A. Kendall, M. Klemm, R. Kobayashi, V. Konkov,
      S. Krishnamoorthy, M. Krishnan, Z. Lin, R. D. Lins, R. J. Littlefield,
      A. J. Logsdail, K. Lopata, W. Ma, A. V. Marenich, J. Martin del Campo,
   D. Mejia-Rodriguez, J. E. Moore, J. M. Mullin, T. Nakajima, D. R. Nascimento,
    J. A. Nichols, P. J. Nichols, J. Nieplocha, A. Otero-de-la-Roza, B. Palmer,
    A. Panyala, T. Pirojsirikul, B. Peng, R. Peverati, J. Pittner, L. Pollack,
   R. M. Richard, P. Sadayappan, G. C. Schatz, W. A. Shelton, D. W. Silverstein,
   D. M. A. Smith, T. A. Soares, D. Song, M. Swart, H. L. Taylor, G. S. Thomas,
            V. Tipparaju, D. G. Truhlar, K. Tsemekhman, T. Van Voorhis,
      A. Vazquez-Mayagoitia, P. Verma, O. Villa, A. Vishnu, K. D. Vogiatzis,
        D. Wang, J. H. Weare, M. J. Williamson, T. L. Windus, K. Wolinski,
        A. T. Wong, Q. Wu, C. Yang, Q. Yu, M. Zacharias, Z. Zhang, Y. Zhao,
                                and R. J. Harrison
                        "NWChem: Past, present, and future
                         J. Chem. Phys. 152, 184102 (2020)
                               doi:10.1063/5.0004997

                                      AUTHORS
                                      -------
  E. Apra, E. J. Bylaska, N. Govind, K. Kowalski, M. Valiev, D. Mejia-Rodriguez,
       A. Kunitsa, N. P. Bauman, A. Panyala, W. A. de Jong, T. P. Straatsma,
   H. J. J. van Dam, D. Wang, T. L. Windus, J. Hammond, J. Autschbach, A. Woods,
    K. Bhaskaran-Nair, J. Brabec, K. Lopata, S. A. Fischer, S. Krishnamoorthy,
     M. Jacquelin, W. Ma, M. Klemm, O. Villa, Y. Chen, V. Anisimov, F. Aquino,
     S. Hirata, M. T. Hackler, E. Hermes, L. Jensen, J. E. Moore, J. C. Becca,
      V. Konjkov, T. Risthaus, M. Malagoli, A. Marenich, A. Otero-de-la-Roza,
        J. Mullin, P. Nichols, R. Peverati, J. Pittner, Y. Zhao, P.-D. Fan,
        A. Fonari, M. J. Williamson, R. J. Harrison, J. R. Rehr, M. Dupuis,
     D. Silverstein, D. M. A. Smith, J. Nieplocha, V. Tipparaju, M. Krishnan,
     B. E. Van Kuiken, A. Vazquez-Mayagoitia, M. Swart, Q. Wu, T. Van Voorhis,
     A. A. Auer, M. Nooijen, L. D. Crosby, E. Brown, G. Cisneros, G. I. Fann,
   H. Fruchtl, J. Garza, K. Hirao, R. A. Kendall, J. A. Nichols, K. Tsemekhman,
    K. Wolinski, J. Anchell, D. E. Bernholdt, P. Borowski, T. Clark, D. Clerc,
   H. Dachsel, M. J. O. Deegan, K. Dyall, D. Elwood, E. Glendening, M. Gutowski,
   A. C. Hess, J. Jaffe, B. G. Johnson, J. Ju, R. Kobayashi, R. Kutteh, Z. Lin,
   R. Littlefield, X. Long, B. Meng, T. Nakajima, S. Niu, L. Pollack, M. Rosing,
   K. Glaesemann, G. Sandrone, M. Stave, H. Taylor, G. Thomas, J. H. van Lenthe,
                               A. T. Wong, Z. Zhang.

 Total times  cpu:      330.4s     wall:      330.7s
