 argument  1 = H2-2.0.nw



============================== echo of input deck ==============================
title "swnc: e theory=pspw4 xc=hf formula=H2 charge=0 mult=1"
#machinejob:expert

echo

start pspw_hf_H2

memory heap 1200 mb stack 1200 mb global 10 mb

charge 0

geometry
H    0.00000    0.00000   -1.00000
H    0.00000    0.00000    1.00000
end

nwpw
  ### pseudopotential block begin ###
  ### pseudopotential block end   ###
  simulation_cell
     SC 15.0000
     boundary_conditions aperiodic
  end

  cutoff 50.0
  mult 1
  xc hf
  lmbfgs
  tolerances 1.0e-9 1.0e-9

  virtual 12
end
set nwpw:cif_filename H2

#set nwpw:CI_maxit_orb 15
#set nwpw:CI_maxit_linesearch 15
set pspw:HFX_screening_radius 14.0


set nwpw:2qintegrals .true.
#set nwpw:3x3_virtual .true.

task pspw energy

================================================================================


                                         
                                         


             Northwest Computational Chemistry Package (NWChem) 7.2.2
             --------------------------------------------------------


                    Environmental Molecular Sciences Laboratory
                       Pacific Northwest National Laboratory
                                Richland, WA 99352

                              Copyright (c) 1994-2022
                       Pacific Northwest National Laboratory
                            Battelle Memorial Institute

             NWChem is an open-source computational chemistry package
                        distributed under the terms of the
                      Educational Community License (ECL) 2.0
             A copy of the license is included with this distribution
                              in the LICENSE.TXT file

                                  ACKNOWLEDGMENT
                                  --------------

            This software and its documentation were developed at the
            EMSL at Pacific Northwest National Laboratory, a multiprogram
            national laboratory, operated for the U.S. Department of Energy
            by Battelle under Contract Number DE-AC05-76RL01830. Support
            for this work was provided by the Department of Energy Office
            of Biological and Environmental Research, Office of Basic
            Energy Sciences, and the Office of Advanced Scientific Computing.


           Job information
           ---------------

    hostname        = LAPTOP-JJQSTSEL
    program         = nwchem
    date            = Thu May  1 18:40:46 2025

    compiled        = Fri_Jun_07_07:50:04_2024
    source          = /home/conda/feedstock_root/build_artifacts/nwchem_1717738148552/work
    nwchem branch   = 7.2.2
    nwchem revision = 64ba0f0
    ga revision     = 5.8.0
    use scalapack   = T
    input           = H2-2.0.nw
    prefix          = pspw_hf_H2.
    data base       = ./pspw_hf_H2.db
    status          = startup
    nproc           =        1
    time left       =     -1s



           Memory information
           ------------------

    heap     =  157286400 doubles =   1200.0 Mbytes
    stack    =  157286397 doubles =   1200.0 Mbytes
    global   =    1310720 doubles =     10.0 Mbytes (distinct from heap & stack)
    total    =  315883517 doubles =   2410.0 Mbytes
    verify   = yes
    hardfail = no 


           Directory information
           ---------------------

  0 permanent = .
  0 scratch   = .




                                NWChem Input Module
                                -------------------


               swnc: e theory=pspw4 xc=hf formula=H2 charge=0 mult=1
               -----------------------------------------------------

 Scaling coordinates for geometry "geometry" by  1.889725989
 (inverse scale =  0.529177249)

 ORDER OF PRIMARY AXIS IS BEING SET TO 4
 D4H symmetry detected

          ------
          auto-z
          ------
     1 autoz failed with cvr_scaling = 1.2 changing to 1.3
     2 autoz failed with cvr_scaling = 1.3 changing to 1.4
     3 autoz failed with cvr_scaling = 1.4 changing to 1.5
     4 autoz failed with cvr_scaling = 1.5 changing to 1.6
     5 autoz failed with cvr_scaling = 1.6 changing to 1.7

 AUTOZ failed to generate good internal coordinates.
 Cartesian coordinates will be used in optimizations.



                             Geometry "geometry" -> ""
                             -------------------------

 Output coordinates in angstroms (scale by  1.889725989 to convert to a.u.)

  No.       Tag          Charge          X              Y              Z
 ---- ---------------- ---------- -------------- -------------- --------------
    1 H                    1.0000     0.00000000     0.00000000    -1.00000000
    2 H                    1.0000     0.00000000     0.00000000     1.00000000

      Atomic Mass 
      ----------- 

      H                  1.007825


 Effective nuclear repulsion energy (a.u.)       0.2645886245

            Nuclear Dipole moment (a.u.) 
            ----------------------------
        X                 Y               Z
 ---------------- ---------------- ----------------
     0.0000000000     0.0000000000     0.0000000000

      Symmetry information
      --------------------

 Group name             D4h       
 Group number             28
 Group order              16
 No. of unique centers     1

      Symmetry unique atoms

     1


            XYZ format geometry
            -------------------
     2
 geometry
 H                     0.00000000     0.00000000    -1.00000000
 H                     0.00000000     0.00000000     1.00000000

          ****************************************************
          *                                                  *
          *               NWPW PSPW Calculation              *
          *                                                  *
          * [ (Grassmann/Stiefel manifold implementation)  ] *
          *                                                  *
          *      [ NorthWest Chemistry implementation ]      *
          *                                                  *
          *            version #5.10   06/12/02              *
          *                                                  *
          *    This code was developed by Eric J. Bylaska,   *
          *    and was based upon algorithms and code        *
          *    developed by the group of Prof. John H. Weare *
          *                                                  *
          ****************************************************
     >>>  JOB STARTED       AT Thu May  1 18:40:46 2025  <<<
          ================ input data ========================

 input psi filename:./pspw_hf_H2.movecs

 number of processors used:         1
 processor grid           :   1 x   1
 parallel mapping         :2d-hilbert
 parallel mapping         :  balanced
 number of threads        :         1
 parallel io              :       off

 options:
      boundary conditions  = aperiodic   (version4)
      electron spin        = restricted
      exchange-correlation = Hartree-Fock
      - HFX relaxed
      - HFX restricted orbitals :    1
      - HFX free-space coulomb solver


 elements involved in the cluster:
      1: H   valence charge:  1.0000  lmax=  1
             comment    : Parameterized (Chem.Phys.Lett., vol 322, page 447) Hamman psp
             pseudpotential type            :   0
             highest angular component      :   1
             local potential used           :   1
             number of non-local projections:   1
             aperiodic cutoff radius        :  1.000
             cutoff =   0.800   0.800


 total charge:   0.000

 atomic composition:
     H   :    2

 number of electrons: spin up=     1 (   1 per task)  down=     1 (   1 per task) (Fourier space)
 number of orbitals : spin up=     1 (   1 per task)  down=     1 (   1 per task) (Fourier space)

 supercell:
      cell_name:  cell_default                                      
      lattice:    a1=<  15.000   0.000   0.000 >
                  a2=<   0.000  15.000   0.000 >
                  a3=<   0.000   0.000  15.000 >
      reciprocal: b1=<   0.419   0.000   0.000 >
                  b2=<   0.000   0.419   0.000 >
                  b3=<   0.000   0.000   0.419 >
      lattice:    a=      15.000 b=     15.000 c=      15.000
                  alpha=  90.000 beta=  90.000 gamma=  90.000
                  omega=      3375.0

      density cutoff=100.000  fft= 70x 70x 70(    80618 waves    80618 per task)
      wavefnc cutoff= 50.000  fft= 70x 70x 70(    28526 waves    28526 per task)

 technical parameters:
      time step=      5.80     fictitious mass=  400000.0
      tolerance=0.100E-08 (energy)   0.100E-08 (density)
      maximum iterations =      1000 (   10 inner    100 outer )





== Energy Calculation ==


          ============ Grassmann lmbfgs iteration ============
     >>>  ITERATION STARTED AT Thu May  1 18:40:53 2025  <<<
    iter.           Energy         DeltaE       DeltaRho 
    ------------------------------------------------------
      10   -0.9222983505E+00   -0.15765E-02    0.88502E-02
     -  10 steepest descent iterations performed
      20   -0.9257956886E+00   -0.69062E-04    0.26179E-04
      30   -0.9259299732E+00   -0.26717E-05    0.28690E-05
      40   -0.9259372227E+00   -0.10770E-06    0.86338E-07
      50   -0.9259375654E+00   -0.67165E-08    0.56920E-09
      60   -0.9259375835E+00   -0.62767E-09    0.11270E-09
  *** tolerance ok. iteration terminated
     >>>  ITERATION ENDED   AT Thu May  1 18:41:30 2025  <<<


==  Summary Of Results  ==

 number of electrons: spin up=    1.00000  down=    1.00000 (real space)

 total     energy    :  -0.9259375835E+00 (   -0.46297E+00/ion)
 total orbital energy:  -0.7793400630E+00 (   -0.77934E+00/electron)
 hartree   energy    :   0.8223722900E+00 (    0.82237E+00/electron)
 exc-corr  energy    :   0.0000000000E+00 (    0.00000E+00/electron)
 HF exchange energy  :  -0.4111861450E+00 (   -0.41119E+00/electron)
 ion-ion   energy    :   0.2645886245E+00 (    0.13229E+00/ion)

 kinetic (planewave) :   0.6284800146E+00 (    0.62848E+00/electron)
 V_local (planewave) :  -0.2076666372E+01 (   -0.20767E+01/electron)
 V_nl    (planewave) :  -0.1535259956E+00 (   -0.15353E+00/electron)
 V_Coul  (planewave) :   0.1644744580E+01 (    0.16447E+01/electron)
 V_xc.   (planewave) :   0.0000000000E+00 (    0.00000E+00/electron)
 K.S. HFX energy     :  -0.8223722900E+00 (   -0.82237E+00/electron)
 Virial Coefficient  :  -0.9315296811E+00

 orbital energies:
    -0.3896700E+00 ( -10.604eV)


== Virtual Orbital Calculation ==


 input epsi filename:./pspw_hf_H2.emovecs
     orbital   1 current e=-0.446E-01 (error=0.924E-09) iterations  62(  45 preconditioned, Ep,Sp= 20.0  200.0)
     orbital   2 current e= 0.121E-01 (error=0.796E-09) iterations  67(  41 preconditioned, Ep,Sp= 20.0  200.0)
     orbital   3 current e= 0.830E-01 (error=0.790E-09) iterations  57(  28 preconditioned, Ep,Sp= 20.0  200.0)
     orbital   4 current e= 0.830E-01 (error=0.828E-09) iterations  57(  29 preconditioned, Ep,Sp= 20.0  200.0)
     orbital   5 current e= 0.849E-01 (error=0.886E-09) iterations  81(  24 preconditioned, Ep,Sp= 20.0  200.0)
     orbital   6 current e= 0.882E-01 (error=0.899E-09) iterations  38(   2 preconditioned, Ep,Sp= 20.0  200.0)
     orbital   7 current e= 0.106E+00 (error=0.897E-09) iterations  67(  37 preconditioned, Ep,Sp= 20.0  200.0)
     orbital   8 current e= 0.123E+00 (error=0.912E-09) iterations  89(  45 preconditioned, Ep,Sp= 20.0  200.0)
     orbital   9 current e= 0.167E+00 (error=0.884E-09) iterations  96(  71 preconditioned, Ep,Sp= 20.0  200.0)
     orbital  10 current e= 0.171E+00 (error=0.798E-09) iterations  76(  36 preconditioned, Ep,Sp= 20.0  200.0)
     orbital  11 current e= 0.172E+00 (error=0.839E-09) iterations  55(  34 preconditioned, Ep,Sp= 20.0  200.0)
     orbital  12 current e= 0.237E+00 (error=0.801E-09) iterations 107(  51 preconditioned, Ep,Sp= 20.0  200.0)

 virtual orbital energies:
     0.2370311E+00 (   6.450eV)
     0.1717445E+00 (   4.673eV)
     0.1708345E+00 (   4.649eV)
     0.1672429E+00 (   4.551eV)
     0.1230348E+00 (   3.348eV)
     0.1061341E+00 (   2.888eV)
     0.8817980E-01 (   2.400eV)
     0.8486885E-01 (   2.309eV)
     0.8303003E-01 (   2.259eV)
     0.8303003E-01 (   2.259eV)
     0.1214255E-01 (   0.330eV)
    -0.4458309E-01 (  -1.213eV)


 == Generating One-Electron and Two-Electron Integrals ==

 begin_one_electron_integrals
    1    1        -0.8008561765
    2    1         0.0000163006
    3    1        -0.0331368864
    4    1         0.0000007857
    5    1         0.0000104690
    6    1        -0.0067490768
    7    1         0.0000000000
    8    1        -0.0000014275
    9    1        -0.0356435148
   10    1         0.0000063969
   11    1         0.0046896473
   12    1        -0.0000000239
   13    1        -0.0308743556
    2    2        -0.6469052352
    3    2        -0.0001716482
    4    2         0.0000000089
    5    2         0.0000001523
    6    2        -0.0000865162
    7    2        -0.0000000005
    8    2         0.0753175323
    9    2        -0.0000200933
   10    2        -0.0000077584
   11    2         0.0000485897
   12    2        -0.0000017457
   13    2        -0.0000616787
    3    3        -0.2544252010
    4    3         0.0000000954
    5    3         0.0000012309
    6    3        -0.0036464823
    7    3         0.0000000001
    8    3         0.0000321406
    9    3        -0.0577445411
   10    3         0.0000019234
   11    3         0.0020589710
   12    3        -0.0000000119
   13    3        -0.0293284138
    4    4        -0.2346091107
    5    4         0.0000000012
    6    4        -0.0000031296
    7    4         0.0000427317
    8    4        -0.0000000026
    9    4         0.0000006328
   10    4        -0.0000035747
   11    4        -0.0000069054
   12    4         0.0000118849
   13    4         0.0000071339
    5    5        -0.2345853501
    6    5        -0.0000414382
    7    5        -0.0000031641
    8    5         0.0000002639
    9    5         0.0000083359
   10    5        -0.0833472096
   11    5        -0.0000299979
   12    5        -0.0000100471
   13    5        -0.0000000688
    6    6        -0.2019138796
    7    6         0.0000000001
    8    6         0.0000204071
    9    6        -0.0030561359
   10    6        -0.0000872260
   11    6         0.0510347825
   12    6        -0.0000002441
   13    6         0.0004840642
    7    7        -0.1851681266
    8    7         0.0000000002
    9    7        -0.0000000000
   10    7        -0.0000051862
   11    7         0.0000000021
   12    7         0.0000014665
   13    7        -0.0000000141
    8    8        -0.1751692967
    9    8         0.0000110229
   10    8         0.0000072231
   11    8        -0.0000196958
   12    8         0.0000004372
   13    8         0.0000585611
    9    9        -0.1450571415
   10    9         0.0000066026
   11    9         0.0026091249
   12    9        -0.0000000245
   13    9        -0.0619984607
   10   10        -0.1633650618
   11   10         0.0000242660
   12   10        -0.0000211931
   13   10         0.0000089573
   11   11        -0.1115796345
   12   11        -0.0000000781
   13   11         0.0023148208
   12   12        -0.1452223842
   13   12        -0.0000000237
   13   13        -0.0287710457
 end_one_electron_integrals

 begin_two_electron_integrals
    1    1    1    1        0.4111861450
    1    1    2    1       -0.0000162937
    1    1    3    1        0.0331317558
    1    1    4    1       -0.0000007867
    1    1    5    1       -0.0000104816
    1    1    6    1        0.0067607808
    1    1    7    1       -0.0000000000
    1    1    8    1        0.0000014045
    1    1    9    1        0.0356387918
    1    1   10    1       -0.0000063913
    1    1   11    1       -0.0046843786
    1    1   12    1        0.0000000238
    1    1   13    1        0.0308695940
    1    1    2    2        0.3677069616
    1    1    3    2        0.0001005535
    1    1    4    2       -0.0000000040
    1    1    5    2       -0.0000000744
    1    1    6    2        0.0000390301
    1    1    7    2        0.0000000003
    1    1    8    2       -0.0536112464
    1    1    9    2        0.0000082398
    1    1   10    2        0.0000056683
    1    1   11    2       -0.0000192244
    1    1   12    2        0.0000012703
    1    1   13    2        0.0000438536
    1    1    3    3        0.1355723189
    1    1    4    3        0.0000000673
    1    1    5    3        0.0000009458
    1    1    6    3        0.0023562097
    1    1    7    3       -0.0000000000
    1    1    8    3       -0.0000221486
    1    1    9    3        0.0314940183
    1    1   10    3        0.0000010966
    1    1   11    3       -0.0014450613
    1    1   12    3        0.0000000052
    1    1   13    3        0.0170444006
    1    1    4    4        0.1613990830
    1    1    5    4       -0.0000000008
    1    1    6    4        0.0000016216
    1    1    7    4       -0.0000204630
    1    1    8    4        0.0000000013
    1    1    9    4       -0.0000003062
    1    1   10    4        0.0000019285
    1    1   11    4        0.0000036962
    1    1   12    4       -0.0000065272
    1    1   13    4       -0.0000039378
    1    1    5    5        0.1613862713
    1    1    6    5        0.0000214656
    1    1    7    5        0.0000015152
    1    1    8    5       -0.0000001405
    1    1    9    5       -0.0000040282
    1    1   10    5        0.0449381487
    1    1   11    5        0.0000157745
    1    1   12    5        0.0000047903
    1    1   13    5       -0.0000011662
    1    1    6    6        0.1442481329
    1    1    7    6       -0.0000000000
    1    1    8    6       -0.0000115556
    1    1    9    6        0.0021635746
    1    1   10    6        0.0000457140
    1    1   11    6       -0.0264569968
    1    1   12    6        0.0000001236
    1    1   13    6        0.0002807929
    1    1    7    7        0.1368896772
    1    1    8    7       -0.0000000002
    1    1    9    7        0.0000000000
    1    1   10    7        0.0000025677
    1    1   11    7       -0.0000000010
    1    1   12    7       -0.0000007415
    1    1   13    7        0.0000000071
    1    1    8    8        0.1448700837
    1    1    9    8       -0.0000059829
    1    1   10    8       -0.0000042384
    1    1   11    8        0.0000104143
    1    1   12    8        0.0000002418
    1    1   13    8       -0.0000334380
    1    1    9    9        0.1371122532
    1    1   10    9       -0.0000026730
    1    1   11    9       -0.0018149564
    1    1   12    9        0.0000000179
    1    1   13    9        0.0338307450
    1    1   10   10        0.1696193168
    1    1   11   10       -0.0000122571
    1    1   12   10        0.0000118162
    1    1   13   10       -0.0000054134
    1    1   11   11        0.1422941307
    1    1   12   11        0.0000000422
    1    1   13   11       -0.0015695736
    1    1   12   12        0.1596288606
    1    1   13   12        0.0000000182
    1    1   13   13        0.1355640778
    2    1    2    1        0.1330917805
    2    1    3    1        0.0000383911
    2    1    4    1        0.0000000009
    2    1    5    1        0.0000000040
    2    1    6    1       -0.0000082637
    2    1    7    1        0.0000000002
    2    1    8    1       -0.0319061428
    2    1    9    1       -0.0000035977
    2    1   10    1        0.0000036289
    2    1   11    1        0.0000102284
    2    1   12    1        0.0000007784
    2    1   13    1        0.0000259914
    2    1    2    2       -0.0000164049
    2    1    3    2        0.0086265472
    2    1    4    2        0.0000012917
    2    1    5    2        0.0000171235
    2    1    6    2       -0.0126540020
    2    1    7    2        0.0000000000
    2    1    8    2        0.0000147347
    2    1    9    2        0.0094566604
    2    1   10    2        0.0000064142
    2    1   11    2        0.0150098916
    2    1   12    2       -0.0000000591
    2    1   13    2        0.0093145822
    2    1    3    3        0.0003380893
    2    1    4    3       -0.0000000405
    2    1    5    3       -0.0000005393
    2    1    6    3        0.0003881634
    2    1    7    3       -0.0000000000
    2    1    8    3       -0.0187369933
    2    1    9    3       -0.0000396073
    2    1   10    3        0.0000015296
    2    1   11    3       -0.0000609017
    2    1   12    3       -0.0000018193
    2    1   13    3       -0.0000329478
    2    1    4    4        0.0002518040
    2    1    5    4        0.0000000044
    2    1    6    4       -0.0000000360
    2    1    7    4       -0.0000000312
    2    1    8    4        0.0000001678
    2    1    9    4       -0.0000000177
    2    1   10    4       -0.0000007459
    2    1   11    4        0.0000000194
    2    1   12    4       -0.0057929590
    2    1   13    4        0.0000000235
    2    1    5    5        0.0002518718
    2    1    6    5       -0.0000004784
    2    1    7    5        0.0000000023
    2    1    8    5        0.0000022837
    2    1    9    5       -0.0000002367
    2    1   10    5       -0.0001627248
    2    1   11    5        0.0000001368
    2    1   12    5       -0.0247118157
    2    1   13    5        0.0000000689
    2    1    6    6        0.0005945069
    2    1    7    6        0.0000000001
    2    1    8    6       -0.0016006053
    2    1    9    6        0.0001617468
    2    1   10    6        0.0000008679
    2    1   11    6       -0.0002892980
    2    1   12    6       -0.0000343726
    2    1   13    6       -0.0000274988
    2    1    7    7        0.0002397412
    2    1    8    7        0.0000000000
    2    1    9    7       -0.0000000005
    2    1   10    7        0.0000000000
    2    1   11    7       -0.0000004508
    2    1   12    7        0.0000038825
    2    1   13    7        0.0000000208
    2    1    8    8       -0.0000006092
    2    1    9    8       -0.0084935700
    2    1   10    8       -0.0000009688
    2    1   11    8       -0.0036203146
    2    1   12    8        0.0000000623
    2    1   13    8       -0.0063501241
    2    1    9    9        0.0003750529
    2    1   10    9        0.0000021103
    2    1   11    9       -0.0002987958
    2    1   12    9        0.0000009178
    2    1   13    9       -0.0000242030
    2    1   10   10        0.0002410451
    2    1   11   10        0.0000001021
    2    1   12   10       -0.0103830864
    2    1   13   10        0.0000009047
    2    1   11   11        0.0004725543
    2    1   12   11        0.0000115616
    2    1   13   11       -0.0002490015
    2    1   12   12        0.0000306438
    2    1   13   12       -0.0000004776
    2    1   13   13        0.0004706201
    3    1    3    1        0.0045768908
    3    1    4    1        0.0000002273
    3    1    5    1        0.0000030906
    3    1    6    1        0.0010812315
    3    1    7    1       -0.0000000000
    3    1    8    1       -0.0000124023
    3    1    9    1        0.0052424875
    3    1   10    1        0.0000041142
    3    1   11    1       -0.0008383325
    3    1   12    1       -0.0000000013
    3    1   13    1        0.0047590201
    3    1    2    2        0.0262415957
    3    1    3    2        0.0000204621
    3    1    4    2        0.0000000005
    3    1    5    2        0.0000000051
    3    1    6    2        0.0000079088
    3    1    7    2        0.0000000000
    3    1    8    2       -0.0067203201
    3    1    9    2        0.0000108446
    3    1   10    2        0.0000008038
    3    1   11    2       -0.0000034230
    3    1   12    2       -0.0000062277
    3    1   13    2        0.0000138585
    3    1    3    3        0.0012884098
    3    1    4    3       -0.0000011768
    3    1    5    3       -0.0000158892
    3    1    6    3       -0.0000092446
    3    1    7    3       -0.0000000000
    3    1    8    3        0.0000078795
    3    1    9    3        0.0015950544
    3    1   10    3        0.0000003304
    3    1   11    3       -0.0000913418
    3    1   12    3        0.0000000355
    3    1   13    3        0.0014396265
    3    1    4    4        0.0024253725
    3    1    5    4       -0.0000000023
    3    1    6    4        0.0000004330
    3    1    7    4       -0.0000091591
    3    1    8    4        0.0000000023
    3    1    9    4       -0.0000002916
    3    1   10    4        0.0000001221
    3    1   11    4        0.0000000342
    3    1   12    4        0.0000021308
    3    1   13    4       -0.0000004086
    3    1    5    5        0.0024245101
    3    1    6    5        0.0000058126
    3    1    7    5        0.0000006783
    3    1    8    5        0.0000000210
    3    1    9    5       -0.0000039311
    3    1   10    5        0.0028953891
    3    1   11    5       -0.0000013549
    3    1   12    5        0.0000119253
    3    1   13    5       -0.0000022365
    3    1    6    6        0.0010736876
    3    1    7    6       -0.0000000000
    3    1    8    6        0.0000027407
    3    1    9    6        0.0000539334
    3    1   10    6        0.0000065921
    3    1   11    6       -0.0009710554
    3    1   12    6        0.0000000556
    3    1   13    6        0.0000660930
    3    1    7    7        0.0007639425
    3    1    8    7       -0.0000000000
    3    1    9    7        0.0000000000
    3    1   10    7        0.0000009529
    3    1   11    7       -0.0000000010
    3    1   12    7       -0.0000000316
    3    1   13    7        0.0000000014
    3    1    8    8        0.0024281957
    3    1    9    8       -0.0000049240
    3    1   10    8       -0.0000003223
    3    1   11    8        0.0000019820
    3    1   12    8       -0.0000161736
    3    1   13    8       -0.0000061965
    3    1    9    9        0.0020165232
    3    1   10    9       -0.0000122612
    3    1   11    9       -0.0000160947
    3    1   12    9       -0.0000000044
    3    1   13    9        0.0019948425
    3    1   10   10        0.0040261510
    3    1   11   10       -0.0000060993
    3    1   12   10       -0.0000045860
    3    1   13   10       -0.0000039712
    3    1   11   11        0.0013002045
    3    1   12   11        0.0000000129
    3    1   13   11        0.0000804077
    3    1   12   12        0.0019293869
    3    1   13   12        0.0000000024
    3    1   13   13        0.0020263381
    4    1    4    1        0.0051590218
    4    1    5    1       -0.0000000003
    4    1    6    1        0.0000001051
    4    1    7    1        0.0000017573
    4    1    8    1        0.0000000002
    4    1    9    1        0.0000000089
    4    1   10    1        0.0000002814
    4    1   11    1        0.0000004877
    4    1   12    1       -0.0000011674
    4    1   13    1       -0.0000007403
    4    1    2    2       -0.0000002744
    4    1    3    2        0.0000000031
    4    1    4    2        0.0000047682
    4    1    5    2        0.0000000006
    4    1    6    2       -0.0000000028
    4    1    7    2        0.0000000631
    4    1    8    2       -0.0000010410
    4    1    9    2       -0.0000000025
    4    1   10    2       -0.0000001594
    4    1   11    2       -0.0000000024
    4    1   12    2       -0.0012432408
    4    1   13    2       -0.0000000004
    4    1    3    3       -0.0000115698
    4    1    4    3       -0.0060901313
    4    1    5    3       -0.0000000016
    4    1    6    3        0.0000057511
    4    1    7    3       -0.0001505756
    4    1    8    3        0.0000000060
    4    1    9    3        0.0000030120
    4    1   10    3       -0.0000000243
    4    1   11    3       -0.0000006657
    4    1   12    3        0.0000008541
    4    1   13    3        0.0000031199
    4    1    4    4        0.0000028425
    4    1    5    4        0.0000466901
    4    1    6    4        0.0013932354
    4    1    7    4       -0.0004113180
    4    1    8    4        0.0000046600
    4    1    9    4       -0.0031890148
    4    1   10    4       -0.0000712794
    4    1   11    4       -0.0009750575
    4    1   12    4        0.0000000657
    4    1   13    4       -0.0023620740
    4    1    5    5       -0.0000115030
    4    1    6    5        0.0000000014
    4    1    7    5       -0.0027607447
    4    1    8    5        0.0000000005
    4    1    9    5        0.0000000045
    4    1   10    5        0.0000148865
    4    1   11    5       -0.0000000005
    4    1   12    5        0.0000000189
    4    1   13    5        0.0000000074
    4    1    6    6       -0.0000097080
    4    1    7    6        0.0000574654
    4    1    8    6       -0.0000000026
    4    1    9    6        0.0000017384
    4    1   10    6       -0.0000000026
    4    1   11    6       -0.0000071757
    4    1   12    6       -0.0000011534
    4    1   13    6       -0.0000018830
    4    1    7    7       -0.0000162877
    4    1    8    7        0.0000001378
    4    1    9    7       -0.0000405943
    4    1   10    7       -0.0045477351
    4    1   11    7       -0.0001047305
    4    1   12    7        0.0000067513
    4    1   13    7        0.0000589707
    4    1    8    8       -0.0000135452
    4    1    9    8       -0.0000000067
    4    1   10    8       -0.0000001707
    4    1   11    8       -0.0000000059
    4    1   12    8       -0.0013215855
    4    1   13    8       -0.0000000038
    4    1    9    9       -0.0000132579
    4    1   10    9       -0.0000002049
    4    1   11    9       -0.0000045847
    4    1   12    9        0.0000009072
    4    1   13    9        0.0000032529
    4    1   10   10       -0.0000208629
    4    1   11   10       -0.0000000900
    4    1   12   10        0.0000002077
    4    1   13   10       -0.0000001331
    4    1   11   11       -0.0000159355
    4    1   12   11        0.0000001982
    4    1   13   11       -0.0000030499
    4    1   12   12        0.0000124091
    4    1   13   12        0.0000011118
    4    1   13   13       -0.0000154447
    5    1    5    1        0.0051571590
    5    1    6    1        0.0000013338
    5    1    7    1       -0.0000001302
    5    1    8    1       -0.0000000197
    5    1    9    1        0.0000001550
    5    1   10    1        0.0065341703
    5    1   11    1        0.0000015468
    5    1   12    1       -0.0000004826
    5    1   13    1       -0.0000023817
    5    1    2    2       -0.0000036977
    5    1    3    2        0.0000000421
    5    1    4    2        0.0000000008
    5    1    5    2        0.0000047698
    5    1    6    2       -0.0000000372
    5    1    7    2       -0.0000000047
    5    1    8    2       -0.0000140489
    5    1    9    2       -0.0000000335
    5    1   10    2        0.0000000027
    5    1   11    2        0.0000000169
    5    1   12    2       -0.0053026727
    5    1   13    2       -0.0000000369
    5    1    3    3       -0.0001561702
    5    1    4    3       -0.0000000017
    5    1    5    3       -0.0060892125
    5    1    6    3        0.0000777311
    5    1    7    3        0.0000111514
    5    1    8    3        0.0000000858
    5    1    9    3        0.0000406628
    5    1   10    3       -0.0007250879
    5    1   11    3       -0.0000083437
    5    1   12    3        0.0000032851
    5    1   13    3        0.0000412681
    5    1    4    4       -0.0000559728
    5    1    5    4       -0.0000038962
    5    1    6    4        0.0000000015
    5    1    7    4       -0.0027608468
    5    1    8    4        0.0000000008
    5    1    9    4        0.0000000045
    5    1   10    4        0.0000055790
    5    1   11    4        0.0000000192
    5    1   12    4        0.0000000469
    5    1   13    4       -0.0000000059
    5    1    5    5       -0.0000607736
    5    1    6    5        0.0013926282
    5    1    7    5        0.0004111550
    5    1    8    5        0.0000046624
    5    1    9    5       -0.0031877700
    5    1   10    5        0.0000604326
    5    1   11    5       -0.0009744030
    5    1   12    5       -0.0000001124
    5    1   13    5       -0.0023612319
    5    1    6    6       -0.0001311377
    5    1    7    6       -0.0000042607
    5    1    8    6       -0.0000000400
    5    1    9    6        0.0000235064
    5    1   10    6        0.0018357452
    5    1   11    6       -0.0000901394
    5    1   12    6        0.0000125811
    5    1   13    6       -0.0000248769
    5    1    7    7       -0.0002198414
    5    1    8    7       -0.0000000115
    5    1    9    7        0.0000030064
    5    1   10    7        0.0006770753
    5    1   11    7        0.0000072182
    5    1   12    7       -0.0000004472
    5    1   13    7       -0.0000039158
    5    1    8    8       -0.0001828011
    5    1    9    8       -0.0000000737
    5    1   10    8       -0.0000032105
    5    1   11    8        0.0000000389
    5    1   12    8       -0.0056370533
    5    1   13    8       -0.0000000811
    5    1    9    9       -0.0001789675
    5    1   10    9       -0.0046527519
    5    1   11    9       -0.0000584891
    5    1   12    9        0.0000002508
    5    1   13    9        0.0000385595
    5    1   10   10       -0.0000990816
    5    1   11   10       -0.0023071580
    5    1   12   10        0.0000002878
    5    1   13   10       -0.0029868149
    5    1   11   11       -0.0002111134
    5    1   12   11        0.0000000829
    5    1   13   11       -0.0000420470
    5    1   12   12       -0.0000606362
    5    1   13   12        0.0000017001
    5    1   13   13       -0.0002152245
    6    1    6    1        0.0017135326
    6    1    7    1        0.0000000000
    6    1    8    1       -0.0000032005
    6    1    9    1        0.0012732002
    6    1   10    1        0.0000042053
    6    1   11    1       -0.0018738577
    6    1   12    1        0.0000000029
    6    1   13    1        0.0010558311
    6    1    2    2        0.0010831783
    6    1    3    2        0.0000120725
    6    1    4    2       -0.0000000009
    6    1    5    2       -0.0000000119
    6    1    6    2        0.0000154802
    6    1    7    2        0.0000000000
    6    1    8    2       -0.0005743428
    6    1    9    2        0.0000108954
    6    1   10    2        0.0000001661
    6    1   11    2       -0.0000121934
    6    1   12    2       -0.0000031122
    6    1   13    2        0.0000089101
    6    1    3    3        0.0003992628
    6    1    4    3        0.0000004256
    6    1    5    3        0.0000058389
    6    1    6    3       -0.0022967552
    6    1    7    3       -0.0000000003
    6    1    8    3        0.0000271830
    6    1    9    3        0.0003757902
    6    1   10    3       -0.0000002097
    6    1   11    3        0.0007535958
    6    1   12    3        0.0000000332
    6    1   13    3        0.0003482278
    6    1    4    4        0.0010985316
    6    1    5    4        0.0000000024
    6    1    6    4       -0.0000000019
    6    1    7    4        0.0000013517
    6    1    8    4        0.0000000013
    6    1    9    4        0.0000001286
    6    1   10    4        0.0000000293
    6    1   11    4       -0.0000003306
    6    1   12    4        0.0000067333
    6    1   13    4       -0.0000001260
    6    1    5    5        0.0010980620
    6    1    6    5       -0.0000001042
    6    1    7    5       -0.0000001052
    6    1    8    5        0.0000000130
    6    1    9    5        0.0000017703
    6    1   10    5        0.0015214370
    6    1   11    5       -0.0000020940
    6    1   12    5        0.0000367409
    6    1   13    5       -0.0000005968
    6    1    6    6       -0.0007467486
    6    1    7    6        0.0000000001
    6    1    8    6        0.0000078605
    6    1    9    6       -0.0019879890
    6    1   10    6        0.0000031546
    6    1   11    6        0.0018660687
    6    1   12    6        0.0000000505
    6    1   13    6       -0.0008927674
    6    1    7    7        0.0010456501
    6    1    8    7        0.0000000000
    6    1    9    7       -0.0000000001
    6    1   10    7       -0.0000000741
    6    1   11    7        0.0000000010
    6    1   12    7       -0.0000000895
    6    1   13    7        0.0000000004
    6    1    8    8        0.0009665652
    6    1    9    8       -0.0000011149
    6    1   10    8        0.0000000112
    6    1   11    8        0.0000030784
    6    1   12    8        0.0000030414
    6    1   13    8       -0.0000020066
    6    1    9    9        0.0005759891
    6    1   10    9        0.0000030101
    6    1   11    9        0.0019206144
    6    1   12    9       -0.0000000092
    6    1   13    9        0.0005258642
    6    1   10   10        0.0022991910
    6    1   11   10       -0.0000004191
    6    1   12   10       -0.0000014144
    6    1   13   10        0.0000001903
    6    1   11   11       -0.0008803011
    6    1   12   11       -0.0000000115
    6    1   13   11        0.0020862774
    6    1   12   12        0.0003068926
    6    1   13   12       -0.0000000082
    6    1   13   13        0.0005957989
    7    1    7    1        0.0004314249
    7    1    8    1       -0.0000000001
    7    1    9    1       -0.0000000000
    7    1   10    1       -0.0000000504
    7    1   11    1        0.0000000001
    7    1   12    1       -0.0000000164
    7    1   13    1        0.0000000000
    7    1    2    2       -0.0000000000
    7    1    3    2        0.0000000000
    7    1    4    2        0.0000000195
    7    1    5    2       -0.0000000015
    7    1    6    2       -0.0000000000
    7    1    7    2        0.0000010961
    7    1    8    2        0.0000000000
    7    1    9    2        0.0000000000
    7    1   10    2       -0.0000000004
    7    1   11    2       -0.0000000169
    7    1   12    2       -0.0000005126
    7    1   13    2        0.0000000008
    7    1    3    3       -0.0000000000
    7    1    4    3       -0.0000167508
    7    1    5    3        0.0000012407
    7    1    6    3       -0.0000000000
    7    1    7    3       -0.0015685820
    7    1    8    3       -0.0000000000
    7    1    9    3       -0.0000000000
    7    1   10    3        0.0000000349
    7    1   11    3       -0.0000000000
    7    1   12    3        0.0000000237
    7    1   13    3       -0.0000000001
    7    1    4    4       -0.0000796654
    7    1    5    4       -0.0005346428
    7    1    6    4        0.0000035564
    7    1    7    4       -0.0000006565
    7    1    8    4        0.0000000429
    7    1    9    4       -0.0000042116
    7    1   10    4       -0.0013603362
    7    1   11    4       -0.0000020655
    7    1   12    4        0.0000017750
    7    1   13    4       -0.0000008854
    7    1    5    5        0.0000796109
    7    1    6    5       -0.0000002643
    7    1    7    5       -0.0000088509
    7    1    8    5       -0.0000000035
    7    1    9    5        0.0000003119
    7    1   10    5        0.0002025366
    7    1   11    5       -0.0000000057
    7    1   12    5       -0.0000001399
    7    1   13    5        0.0000002002
    7    1    6    6        0.0000000000
    7    1    7    6        0.0004494716
    7    1    8    6        0.0000000000
    7    1    9    6       -0.0000000000
    7    1   10    6       -0.0000001395
    7    1   11    6       -0.0000000012
    7    1   12    6       -0.0000000599
    7    1   13    6        0.0000000004
    7    1    7    7       -0.0000000000
    7    1    8    7        0.0000020495
    7    1    9    7       -0.0011770540
    7    1   10    7       -0.0000095204
    7    1   11    7       -0.0012057164
    7    1   12    7        0.0000000377
    7    1   13    7       -0.0002014588
    7    1    8    8       -0.0000000000
    7    1    9    8       -0.0000000001
    7    1   10    8        0.0000000001
    7    1   11    8       -0.0000000448
    7    1   12    8       -0.0000024215
    7    1   13    8        0.0000000021
    7    1    9    9       -0.0000000000
    7    1   10    9        0.0000008748
    7    1   11    9       -0.0000000006
    7    1   12    9        0.0000000494
    7    1   13    9        0.0000000007
    7    1   10   10        0.0001492298
    7    1   11   10        0.0000002832
    7    1   12   10        0.0000002725
    7    1   13   10        0.0000003005
    7    1   11   11       -0.0000000018
    7    1   12   11        0.0000000220
    7    1   13   11        0.0000000003
    7    1   12   12       -0.0001496779
    7    1   13   12        0.0000000534
    7    1   13   13       -0.0000000001
    8    1    8    1        0.0084367763
    8    1    9    1       -0.0000015950
    8    1   10    1       -0.0000010361
    8    1   11    1        0.0000014591
    8    1   12    1        0.0000008647
    8    1   13    1       -0.0000083440
    8    1    2    2        0.0000043166
    8    1    3    2       -0.0034881025
    8    1    4    2       -0.0000003317
    8    1    5    2       -0.0000044221
    8    1    6    2        0.0019241210
    8    1    7    2        0.0000000000
    8    1    8    2       -0.0000019511
    8    1    9    2       -0.0037826634
    8    1   10    2       -0.0000020594
    8    1   11    2       -0.0027597697
    8    1   12    2        0.0000000366
    8    1   13    2       -0.0035308455
    8    1    3    3       -0.0000241773
    8    1    4    3        0.0000000089
    8    1    5    3        0.0000001422
    8    1    6    3       -0.0000280088
    8    1    7    3       -0.0000000001
    8    1    8    3        0.0019037204
    8    1    9    3       -0.0000050313
    8    1   10    3       -0.0000003165
    8    1   11    3        0.0000097302
    8    1   12    3       -0.0000057281
    8    1   13    3       -0.0000021538
    8    1    4    4       -0.0000167890
    8    1    5    4       -0.0000000004
    8    1    6    4        0.0000000091
    8    1    7    4        0.0000000489
    8    1    8    4       -0.0000004439
    8    1    9    4       -0.0000000013
    8    1   10    4        0.0000000698
    8    1   11    4       -0.0000000008
    8    1   12    4        0.0005445712
    8    1   13    4       -0.0000000022
    8    1    5    5       -0.0000167932
    8    1    6    5        0.0000001159
    8    1    7    5       -0.0000000046
    8    1    8    5       -0.0000059903
    8    1    9    5       -0.0000000047
    8    1   10    5        0.0000083035
    8    1   11    5        0.0000000023
    8    1   12    5        0.0023228831
    8    1   13    5       -0.0000000023
    8    1    6    6       -0.0000470289
    8    1    7    6        0.0000000000
    8    1    8    6        0.0001956013
    8    1    9    6       -0.0000177375
    8    1   10    6       -0.0000001256
    8    1   11    6        0.0000295185
    8    1   12    6        0.0000031454
    8    1   13    6       -0.0000036380
    8    1    7    7       -0.0000138387
    8    1    8    7       -0.0000000000
    8    1    9    7       -0.0000000000
    8    1   10    7       -0.0000000039
    8    1   11    7        0.0000000216
    8    1   12    7       -0.0000008906
    8    1   13    7       -0.0000000010
    8    1    8    8        0.0000001422
    8    1    9    8        0.0018589121
    8    1   10    8        0.0000004744
    8    1   11    8        0.0003962446
    8    1   12    8        0.0000000105
    8    1   13    8        0.0016387195
    8    1    9    9       -0.0000233333
    8    1   10    9       -0.0000002051
    8    1   11    9        0.0000239610
    8    1   12    9       -0.0000005576
    8    1   13    9       -0.0000057207
    8    1   10   10       -0.0000118614
    8    1   11   10        0.0000000190
    8    1   12   10        0.0019353380
    8    1   13   10       -0.0000002681
    8    1   11   11       -0.0000398384
    8    1   12   11       -0.0000025531
    8    1   13   11        0.0000197610
    8    1   12   12       -0.0000036724
    8    1   13   12       -0.0000001502
    8    1   13   13       -0.0000302196
    9    1    9    1        0.0061325723
    9    1   10    1        0.0000012584
    9    1   11    1       -0.0010197280
    9    1   12    1        0.0000000112
    9    1   13    1        0.0056619909
    9    1    2    2        0.0274314293
    9    1    3    2        0.0000164683
    9    1    4    2       -0.0000000018
    9    1    5    2       -0.0000000263
    9    1    6    2        0.0000109964
    9    1    7    2        0.0000000000
    9    1    8    2       -0.0074093469
    9    1    9    2        0.0000072222
    9    1   10    2        0.0000009092
    9    1   11    2       -0.0000081807
    9    1   12    2       -0.0000023057
    9    1   13    2        0.0000115253
    9    1    3    3        0.0011147562
    9    1    4    3       -0.0000003639
    9    1    5    3       -0.0000049220
    9    1    6    3       -0.0000206425
    9    1    7    3        0.0000000000
    9    1    8    3        0.0000055207
    9    1    9    3        0.0012504783
    9    1   10    3       -0.0000020598
    9    1   11    3       -0.0000552273
    9    1   12    3       -0.0000000389
    9    1   13    3        0.0013279520
    9    1    4    4        0.0018277320
    9    1    5    4        0.0000000031
    9    1    6    4        0.0000003120
    9    1    7    4       -0.0000052294
    9    1    8    4       -0.0000000029
    9    1    9    4       -0.0000002500
    9    1   10    4        0.0000000959
    9    1   11    4       -0.0000000242
    9    1   12    4        0.0000022911
    9    1   13    4       -0.0000003151
    9    1    5    5        0.0018270990
    9    1    6    5        0.0000041816
    9    1    7    5        0.0000003876
    9    1    8    5       -0.0000000470
    9    1    9    5       -0.0000033774
    9    1   10    5        0.0023451970
    9    1   11    5       -0.0000016989
    9    1   12    5        0.0000122534
    9    1   13    5       -0.0000016187
    9    1    6    6        0.0004270218
    9    1    7    6       -0.0000000000
    9    1    8    6        0.0000019365
    9    1    9    6        0.0000271869
    9    1   10    6        0.0000050984
    9    1   11    6       -0.0003905602
    9    1   12    6        0.0000000183
    9    1   13    6        0.0000586165
    9    1    7    7        0.0003032485
    9    1    8    7       -0.0000000001
    9    1    9    7        0.0000000000
    9    1   10    7        0.0000005099
    9    1   11    7       -0.0000000002
    9    1   12    7       -0.0000000180
    9    1   13    7        0.0000000007
    9    1    8    8        0.0024455774
    9    1    9    8        0.0000000746
    9    1   10    8       -0.0000002850
    9    1   11    8        0.0000014420
    9    1   12    8       -0.0000050162
    9    1   13    8       -0.0000033843
    9    1    9    9        0.0017822491
    9    1   10    9       -0.0000042240
    9    1   11    9        0.0000233857
    9    1   12    9        0.0000000055
    9    1   13    9        0.0016883419
    9    1   10   10        0.0034837266
    9    1   11   10       -0.0000039495
    9    1   12   10        0.0000011681
    9    1   13   10       -0.0000031237
    9    1   11   11        0.0006514227
    9    1   12   11       -0.0000000059
    9    1   13   11        0.0001101005
    9    1   12   12        0.0013512740
    9    1   13   12       -0.0000000003
    9    1   13   13        0.0018462371
   10    1   10    1        0.0086307125
   10    1   11    1       -0.0000005280
   10    1   12    1        0.0000018233
   10    1   13    1       -0.0000017991
   10    1    2    2       -0.0000036210
   10    1    3    2        0.0000005244
   10    1    4    2       -0.0000000883
   10    1    5    2        0.0000010707
   10    1    6    2       -0.0000001309
   10    1    7    2       -0.0000000037
   10    1    8    2       -0.0000146510
   10    1    9    2        0.0000005330
   10    1   10    2       -0.0000016728
   10    1   11    2        0.0000002025
   10    1   12    2       -0.0061511902
   10    1   13    2        0.0000004877
   10    1    3    3       -0.0001560755
   10    1    4    3       -0.0000002463
   10    1    5    3       -0.0059013318
   10    1    6    3        0.0000788301
   10    1    7    3        0.0000114773
   10    1    8    3       -0.0000002387
   10    1    9    3        0.0000307660
   10    1   10    3       -0.0013563588
   10    1   11    3       -0.0000125736
   10    1   12    3       -0.0000054630
   10    1   13    3        0.0000416463
   10    1    4    4       -0.0000653934
   10    1    5    4       -0.0000025790
   10    1    6    4        0.0000000584
   10    1    7    4       -0.0034536231
   10    1    8    4       -0.0000000664
   10    1    9    4       -0.0000001623
   10    1   10    4        0.0000050860
   10    1   11    4       -0.0000000459
   10    1   12    4        0.0000000363
   10    1   13    4       -0.0000001309
   10    1    5    5       -0.0000531200
   10    1    6    5        0.0018886638
   10    1    7    5        0.0005141702
   10    1    8    5       -0.0000028374
   10    1    9    5       -0.0036670564
   10    1   10    5        0.0000581271
   10    1   11    5       -0.0014565416
   10    1   12    5       -0.0000002844
   10    1   13    5       -0.0028565645
   10    1    6    6       -0.0001326444
   10    1    7    6       -0.0000046845
   10    1    8    6        0.0000000123
   10    1    9    6        0.0000267435
   10    1   10    6        0.0024013893
   10    1   11    6       -0.0000832298
   10    1   12    6        0.0000080131
   10    1   13    6       -0.0000234508
   10    1    7    7       -0.0002289110
   10    1    8    7        0.0000000003
   10    1    9    7        0.0000036109
   10    1   10    7        0.0007514745
   10    1   11    7        0.0000075438
   10    1   12    7       -0.0000004560
   10    1   13    7       -0.0000036729
   10    1    8    8       -0.0001820739
   10    1    9    8       -0.0000001323
   10    1   10    8       -0.0000005375
   10    1   11    8       -0.0000000274
   10    1   12    8       -0.0053349210
   10    1   13    8       -0.0000002396
   10    1    9    9       -0.0001735545
   10    1   10    9       -0.0049920247
   10    1   11    9       -0.0000597210
   10    1   12    9       -0.0000006951
   10    1   13    9        0.0000308573
   10    1   10   10       -0.0000929949
   10    1   11   10       -0.0030443470
   10    1   12   10        0.0000002664
   10    1   13   10       -0.0036269143
   10    1   11   11       -0.0002104692
   10    1   12   11        0.0000001735
   10    1   13   11       -0.0000401388
   10    1   12   12       -0.0000520518
   10    1   13   12        0.0000009561
   10    1   13   13       -0.0002077250
   11    1   11    1        0.0021741742
   11    1   12    1       -0.0000000082
   11    1   13    1       -0.0008229228
   11    1    2    2        0.0016417826
   11    1    3    2       -0.0000075593
   11    1    4    2       -0.0000000000
   11    1    5    2        0.0000000199
   11    1    6    2       -0.0000124502
   11    1    7    2       -0.0000000111
   11    1    8    2       -0.0001249384
   11    1    9    2       -0.0000083574
   11    1   10    2       -0.0000000919
   11    1   11    2        0.0000109744
   11    1   12    2        0.0000004741
   11    1   13    2       -0.0000069450
   11    1    3    3       -0.0003068097
   11    1    4    3       -0.0000007934
   11    1    5    3       -0.0000058889
   11    1    6    3        0.0019193187
   11    1    7    3       -0.0000000091
   11    1    8    3       -0.0000172952
   11    1    9    3       -0.0002398990
   11    1   10    3       -0.0000015036
   11    1   11    3       -0.0010919686
   11    1   12    3        0.0000000298
   11    1   13    3       -0.0002096416
   11    1    4    4       -0.0009591348
   11    1    5    4        0.0000000078
   11    1    6    4       -0.0000002252
   11    1    7    4       -0.0000033655
   11    1    8    4        0.0000000013
   11    1    9    4       -0.0000004801
   11    1   10    4       -0.0000000357
   11    1   11    4        0.0000000596
   11    1   12    4       -0.0000044741
   11    1   13    4       -0.0000001807
   11    1    5    5       -0.0009586143
   11    1    6    5       -0.0000027916
   11    1    7    5        0.0000000030
   11    1    8    5        0.0000000358
   11    1    9    5       -0.0000035954
   11    1   10    5       -0.0013999519
   11    1   11    5       -0.0000003470
   11    1   12    5       -0.0000257894
   11    1   13    5       -0.0000013792
   11    1    6    6        0.0011724318
   11    1    7    6        0.0000000032
   11    1    8    6       -0.0000057175
   11    1    9    6        0.0019945359
   11    1   10    6       -0.0000017383
   11    1   11    6       -0.0018730818
   11    1   12    6       -0.0000000205
   11    1   13    6        0.0012447112
   11    1    7    7       -0.0012273170
   11    1    8    7       -0.0000000269
   11    1    9    7       -0.0000000025
   11    1   10    7       -0.0000001363
   11    1   11    7       -0.0000000081
   11    1   12    7        0.0000000773
   11    1   13    7        0.0000000037
   11    1    8    8       -0.0007031148
   11    1    9    8       -0.0000010601
   11    1   10    8       -0.0000000132
   11    1   11    8       -0.0000009702
   11    1   12    8       -0.0000033168
   11    1   13    8        0.0000003824
   11    1    9    9       -0.0004004208
   11    1   10    9       -0.0000035817
   11    1   11    9       -0.0019810151
   11    1   12    9        0.0000000033
   11    1   13    9       -0.0003369126
   11    1   10   10       -0.0022632434
   11    1   11   10        0.0000004525
   11    1   12   10       -0.0000014663
   11    1   13   10       -0.0000009871
   11    1   11   11        0.0013711640
   11    1   12   11        0.0000000119
   11    1   13   11       -0.0018710540
   11    1   12   12       -0.0002001569
   11    1   13   12       -0.0000000004
   11    1   13   13       -0.0004686913
   12    1   12    1        0.0022908126
   12    1   13    1        0.0000000113
   12    1    2    2       -0.0000000010
   12    1    3    2       -0.0000038012
   12    1    4    2       -0.0006939925
   12    1    5    2       -0.0029600990
   12    1    6    2       -0.0000032109
   12    1    7    2       -0.0000002994
   12    1    8    2        0.0000000240
   12    1    9    2        0.0000003511
   12    1   10    2       -0.0029564200
   12    1   11    2        0.0000000394
   12    1   12    2        0.0000035648
   12    1   13    2        0.0000016866
   12    1    3    3        0.0000006404
   12    1    4    3        0.0000066873
   12    1    5    3        0.0000250077
   12    1    6    3        0.0000003960
   12    1    7    3        0.0000001533
   12    1    8    3       -0.0000421671
   12    1    9    3       -0.0000008113
   12    1   10    3       -0.0000181306
   12    1   11    3        0.0000005233
   12    1   12    3       -0.0028475200
   12    1   13    3       -0.0000001322
   12    1    4    4        0.0000001776
   12    1    5    4       -0.0000000294
   12    1    6    4        0.0000063703
   12    1    7    4        0.0000089184
   12    1    8    4       -0.0005216123
   12    1    9    4       -0.0000007933
   12    1   10    4        0.0000001507
   12    1   11    4       -0.0000002685
   12    1   12    4       -0.0000010732
   12    1   13    4       -0.0000004778
   12    1    5    5        0.0000001111
   12    1    6    5        0.0000317803
   12    1    7    5        0.0000009829
   12    1    8    5       -0.0022251831
   12    1    9    5       -0.0000058295
   12    1   10    5       -0.0000002291
   12    1   11    5       -0.0000028341
   12    1   12    5       -0.0000135999
   12    1   13    5       -0.0000042223
   12    1    6    6        0.0000003164
   12    1    7    6        0.0000000249
   12    1    8    6        0.0000097267
   12    1    9    6       -0.0000002832
   12    1   10    6       -0.0000102768
   12    1   11    6        0.0000003230
   12    1   12    6       -0.0007890249
   12    1   13    6       -0.0000004485
   12    1    7    7        0.0000008113
   12    1    8    7       -0.0000065366
   12    1    9    7       -0.0000000208
   12    1   10    7        0.0000012453
   12    1   11    7        0.0000001513
   12    1   12    7       -0.0003842413
   12    1   13    7       -0.0000001085
   12    1    8    8       -0.0000000075
   12    1    9    8        0.0000166615
   12    1   10    8        0.0000630738
   12    1   11    8       -0.0000110908
   12    1   12    8        0.0000008906
   12    1   13    8        0.0000108068
   12    1    9    9        0.0000014631
   12    1   10    9        0.0000177338
   12    1   11    9       -0.0000004379
   12    1   12    9       -0.0015033836
   12    1   13    9       -0.0000008172
   12    1   10   10        0.0000011182
   12    1   11   10       -0.0000081711
   12    1   12   10        0.0000192890
   12    1   13   10       -0.0000042803
   12    1   11   11        0.0000005450
   12    1   12   11        0.0000870893
   12    1   13   11       -0.0000006177
   12    1   12   12       -0.0000000193
   12    1   13   12       -0.0010802925
   12    1   13   13        0.0000021719
   13    1   13    1        0.0053260591
   13    1    2    2        0.0235342519
   13    1    3    2        0.0000154113
   13    1    4    2       -0.0000000005
   13    1    5    2       -0.0000000237
   13    1    6    2        0.0000058431
   13    1    7    2        0.0000000006
   13    1    8    2       -0.0065975768
   13    1    9    2        0.0000083221
   13    1   10    2        0.0000008223
   13    1   11    2       -0.0000036320
   13    1   12    2        0.0000014431
   13    1   13    2        0.0000129987
   13    1    3    3        0.0008408908
   13    1    4    3        0.0000007597
   13    1    5    3        0.0000033506
   13    1    6    3        0.0001183865
   13    1    7    3        0.0000000132
   13    1    8    3       -0.0000029307
   13    1    9    3        0.0009789551
   13    1   10    3       -0.0000007235
   13    1   11    3       -0.0000544287
   13    1   12    3       -0.0000000307
   13    1   13    3        0.0009300205
   13    1    4    4        0.0010292681
   13    1    5    4       -0.0000000026
   13    1    6    4       -0.0000000721
   13    1    7    4        0.0000004381
   13    1    8    4       -0.0000000010
   13    1    9    4        0.0000003142
   13    1   10    4        0.0000000682
   13    1   11    4        0.0000001426
   13    1   12    4        0.0000001432
   13    1   13    4        0.0000000481
   13    1    5    5        0.0010288650
   13    1    6    5        0.0000008678
   13    1    7    5        0.0000002777
   13    1    8    5       -0.0000000329
   13    1    9    5       -0.0000000214
   13    1   10    5        0.0014823270
   13    1   11    5       -0.0000006900
   13    1   12    5        0.0000018880
   13    1   13    5       -0.0000009506
   13    1    6    6        0.0001336849
   13    1    7    6       -0.0000000052
   13    1    8    6       -0.0000002664
   13    1    9    6        0.0001319495
   13    1   10    6        0.0000020430
   13    1   11    6       -0.0000887488
   13    1   12    6       -0.0000000157
   13    1   13    6        0.0000909287
   13    1    7    7        0.0001004645
   13    1    8    7        0.0000000012
   13    1    9    7        0.0000000039
   13    1   10    7        0.0000004360
   13    1   11    7        0.0000000096
   13    1   12    7       -0.0000000002
   13    1   13    7       -0.0000000052
   13    1    8    8        0.0020088421
   13    1    9    8       -0.0000016842
   13    1   10    8       -0.0000002631
   13    1   11    8       -0.0000002145
   13    1   12    8        0.0000035136
   13    1   13    8       -0.0000030686
   13    1    9    9        0.0012444191
   13    1   10    9        0.0000014699
   13    1   11    9       -0.0000587488
   13    1   12    9       -0.0000000060
   13    1   13    9        0.0012904234
   13    1   10   10        0.0022324140
   13    1   11   10       -0.0000002744
   13    1   12   10       -0.0000000140
   13    1   13   10       -0.0000001282
   13    1   11   11        0.0003085086
   13    1   12   11       -0.0000000107
   13    1   13   11       -0.0000450370
   13    1   12   12        0.0006945015
   13    1   13   12        0.0000000068
   13    1   13   13        0.0014340592
    2    2    2    2        0.3506493752
    2    2    3    2        0.0000898386
    2    2    4    2       -0.0000000037
    2    2    5    2       -0.0000000701
    2    2    6    2        0.0000315092
    2    2    7    2        0.0000000003
    2    2    8    2       -0.0482074299
    2    2    9    2        0.0000031126
    2    2   10    2        0.0000047786
    2    2   11    2       -0.0000138941
    2    2   12    2        0.0000029828
    2    2   13    2        0.0000334470
    2    2    3    3        0.1339691781
    2    2    4    3        0.0000001058
    2    2    5    3        0.0000015333
    2    2    6    3        0.0052245473
    2    2    7    3       -0.0000000000
    2    2    8    3       -0.0000247105
    2    2    9    3        0.0295059789
    2    2   10    3        0.0000000799
    2    2   11    3       -0.0023829310
    2    2   12    3       -0.0000000065
    2    2   13    3        0.0151397573
    2    2    4    4        0.1578666831
    2    2    5    4        0.0000000002
    2    2    6    4        0.0000011442
    2    2    7    4       -0.0000170054
    2    2    8    4        0.0000000003
    2    2    9    4       -0.0000005310
    2    2   10    4        0.0000017662
    2    2   11    4        0.0000039985
    2    2   12    4       -0.0000064875
    2    2   13    4       -0.0000036599
    2    2    5    5        0.1578554286
    2    2    6    5        0.0000151200
    2    2    7    5        0.0000012592
    2    2    8    5       -0.0000001388
    2    2    9    5       -0.0000070067
    2    2   10    5        0.0398698874
    2    2   11    5        0.0000182657
    2    2   12    5       -0.0000094295
    2    2   13    5       -0.0000021727
    2    2    6    6        0.1447938028
    2    2    7    6       -0.0000000001
    2    2    8    6       -0.0000112937
    2    2    9    6        0.0049169107
    2    2   10    6        0.0000369269
    2    2   11    6       -0.0283754337
    2    2   12    6        0.0000001044
    2    2   13    6        0.0018081510
    2    2    7    7        0.1350007366
    2    2    8    7       -0.0000000001
    2    2    9    7       -0.0000000000
    2    2   10    7        0.0000021089
    2    2   11    7       -0.0000000011
    2    2   12    7       -0.0000006026
    2    2   13    7        0.0000000058
    2    2    8    8        0.1422267124
    2    2    9    8       -0.0000058780
    2    2   10    8       -0.0000040265
    2    2   11    8        0.0000091690
    2    2   12    8        0.0000053629
    2    2   13    8       -0.0000316122
    2    2    9    9        0.1344697816
    2    2   10    9       -0.0000003182
    2    2   11    9       -0.0043954684
    2    2   12    9        0.0000000288
    2    2   13    9        0.0311645227
    2    2   10   10        0.1620351742
    2    2   11   10       -0.0000078532
    2    2   12   10        0.0000078719
    2    2   13   10       -0.0000054065
    2    2   11   11        0.1430681030
    2    2   12   11        0.0000000342
    2    2   13   11       -0.0045106811
    2    2   12   12        0.1587120974
    2    2   13   12        0.0000000302
    2    2   13   13        0.1327523534
    3    2    3    2        0.0033227130
    3    2    4    2        0.0000003413
    3    2    5    2        0.0000046420
    3    2    6    2        0.0015679119
    3    2    7    2       -0.0000000000
    3    2    8    2       -0.0000218920
    3    2    9    2        0.0034191851
    3    2   10    2        0.0000030439
    3    2   11    2       -0.0008643984
    3    2   12    2       -0.0000000823
    3    2   13    2        0.0029002504
    3    2    3    3       -0.0001079986
    3    2    4    3       -0.0000000272
    3    2    5    3       -0.0000003690
    3    2    6    3       -0.0001307600
    3    2    7    3        0.0000000001
    3    2    8    3        0.0043783313
    3    2    9    3        0.0000403464
    3    2   10    3        0.0000001840
    3    2   11    3        0.0000076145
    3    2   12    3        0.0000223278
    3    2   13    3        0.0000267624
    3    2    4    4       -0.0000737593
    3    2    5    4       -0.0000000011
    3    2    6    4       -0.0000000101
    3    2    7    4       -0.0000002173
    3    2    8    4        0.0000015143
    3    2    9    4        0.0000000170
    3    2   10    4        0.0000001702
    3    2   11    4       -0.0000000116
    3    2   12    4        0.0013091625
    3    2   13    4       -0.0000000068
    3    2    5    5       -0.0000737885
    3    2    6    5       -0.0000001392
    3    2    7    5        0.0000000162
    3    2    8    5        0.0000204434
    3    2    9    5        0.0000002282
    3    2   10    5        0.0000760762
    3    2   11    5       -0.0000001101
    3    2   12    5        0.0055852259
    3    2   13    5       -0.0000000013
    3    2    6    6       -0.0001814822
    3    2    7    6       -0.0000000000
    3    2    8    6        0.0004828239
    3    2    9    6       -0.0000396172
    3    2   10    6       -0.0000000337
    3    2   11    6        0.0000702883
    3    2   12    6        0.0000085769
    3    2   13    6        0.0000228539
    3    2    7    7       -0.0000818413
    3    2    8    7       -0.0000000000
    3    2    9    7        0.0000000002
    3    2   10    7        0.0000000146
    3    2   11    7        0.0000001506
    3    2   12    7        0.0000009146
    3    2   13    7       -0.0000000069
    3    2    8    8        0.0000106944
    3    2    9    8       -0.0004799975
    3    2   10    8       -0.0000029516
    3    2   11    8        0.0006744576
    3    2   12    8       -0.0000002192
    3    2   13    8       -0.0007674212
    3    2    9    9       -0.0001274018
    3    2   10    9       -0.0000008085
    3    2   11    9        0.0000950141
    3    2   12    9        0.0000002183
    3    2   13    9        0.0000358244
    3    2   10   10       -0.0000776616
    3    2   11   10       -0.0000000585
    3    2   12   10       -0.0002204955
    3    2   13   10        0.0000002775
    3    2   11   11       -0.0001365183
    3    2   12   11        0.0000013441
    3    2   13   11        0.0000795690
    3    2   12   12        0.0000084668
    3    2   13   12        0.0000007995
    3    2   13   13       -0.0001589424
    4    2    4    2        0.0041830021
    4    2    5    2       -0.0000000000
    4    2    6    2       -0.0000001524
    4    2    7    2        0.0000051597
    4    2    8    2       -0.0000000026
    4    2    9    2       -0.0000002570
    4    2   10    2        0.0000001882
    4    2   11    2        0.0000008975
    4    2   12    2       -0.0000016521
    4    2   13    2       -0.0000007266
    4    2    3    3       -0.0000000967
    4    2    4    3       -0.0000606200
    4    2    5    3       -0.0000000014
    4    2    6    3       -0.0000000264
    4    2    7    3       -0.0000014014
    4    2    8    3        0.0000052484
    4    2    9    3        0.0000001253
    4    2   10    3        0.0000001419
    4    2   11    3       -0.0000000760
    4    2   12    3        0.0010940682
    4    2   13    3        0.0000000148
    4    2    4    4        0.0000000623
    4    2    5    4        0.0000004998
    4    2    6    4       -0.0000589562
    4    2    7    4       -0.0000026089
    4    2    8    4        0.0039789869
    4    2    9    4        0.0000102681
    4    2   10    4       -0.0000011595
    4    2   11    4        0.0000035419
    4    2   12    4       -0.0000219756
    4    2   13    4        0.0000066698
    4    2    5    5       -0.0000000929
    4    2    6    5        0.0000000000
    4    2    7    5       -0.0000175087
    4    2    8    5        0.0000000050
    4    2    9    5       -0.0000000003
    4    2   10    5        0.0000001918
    4    2   11    5        0.0000000524
    4    2   12    5       -0.0000009587
    4    2   13    5       -0.0000000030
    4    2    6    6       -0.0000000328
    4    2    7    6       -0.0000007741
    4    2    8    6       -0.0000014741
    4    2    9    6        0.0000000505
    4    2   10    6        0.0000000388
    4    2   11    6       -0.0000000843
    4    2   12    6        0.0003051647
    4    2   13    6        0.0000000553
    4    2    7    7       -0.0000001283
    4    2    8    7        0.0000768559
    4    2    9    7        0.0000008383
    4    2   10    7       -0.0000180280
    4    2   11    7       -0.0000014361
    4    2   12    7        0.0018613912
    4    2   13    7        0.0000016796
    4    2    8    8       -0.0000000236
    4    2    9    8       -0.0000026411
    4    2   10    8       -0.0000000167
    4    2   11    8        0.0000013504
    4    2   12    8       -0.0000019423
    4    2   13    8       -0.0000014103
    4    2    9    9       -0.0000002226
    4    2   10    9        0.0000000581
    4    2   11    9        0.0000000384
    4    2   12    9        0.0004817946
    4    2   13    9        0.0000001322
    4    2   10   10       -0.0000003842
    4    2   11   10        0.0000000763
    4    2   12   10        0.0000004303
    4    2   13   10        0.0000000403
    4    2   11   11       -0.0000000745
    4    2   12   11       -0.0000297133
    4    2   13   11        0.0000000668
    4    2   12   12        0.0000000170
    4    2   13   12        0.0003358282
    4    2   13   13       -0.0000003247
    5    2    5    2        0.0041819387
    5    2    6    2       -0.0000020534
    5    2    7    2       -0.0000003822
    5    2    8    2       -0.0000000458
    5    2    9    2       -0.0000034240
    5    2   10    2        0.0038706456
    5    2   11    2        0.0000069131
    5    2   12    2       -0.0000086899
    5    2   13    2       -0.0000048501
    5    2    3    3       -0.0000013114
    5    2    4    3       -0.0000000011
    5    2    5    3       -0.0000606288
    5    2    6    3       -0.0000003591
    5    2    7    3        0.0000001039
    5    2    8    3        0.0000709576
    5    2    9    3        0.0000016888
    5    2   10    3        0.0000382748
    5    2   11    3       -0.0000010264
    5    2   12    3        0.0046671665
    5    2   13    3        0.0000002530
    5    2    4    4       -0.0000001785
    5    2    5    4       -0.0000000431
    5    2    6    4       -0.0000000001
    5    2    7    4       -0.0000175097
    5    2    8    4        0.0000000050
    5    2    9    4       -0.0000000002
    5    2   10    4        0.0000000820
    5    2   11    4        0.0000000526
    5    2   12    4        0.0000044002
    5    2   13    4       -0.0000000031
    5    2    5    5       -0.0000002492
    5    2    6    5       -0.0000589578
    5    2    7    5        0.0000026076
    5    2    8    5        0.0039788822
    5    2    9    5        0.0000102758
    5    2   10    5        0.0000005560
    5    2   11    5        0.0000035256
    5    2   12    5        0.0000202509
    5    2   13    5        0.0000066643
    5    2    6    6       -0.0000004495
    5    2    7    6        0.0000000573
    5    2    8    6       -0.0000199659
    5    2    9    6        0.0000006788
    5    2   10    6        0.0000235390
    5    2   11    6       -0.0000010189
    5    2   12    6        0.0013019869
    5    2   13    6        0.0000007540
    5    2    7    7       -0.0000017371
    5    2    8    7       -0.0000056920
    5    2    9    7       -0.0000000620
    5    2   10    7        0.0000027393
    5    2   11    7        0.0000001049
    5    2   12    7        0.0001536430
    5    2   13    7       -0.0000001229
    5    2    8    8       -0.0000003199
    5    2    9    8       -0.0000356362
    5    2   10    8       -0.0003231293
    5    2   11    8        0.0000174331
    5    2   12    8       -0.0000106460
    5    2   13    8       -0.0000191971
    5    2    9    9       -0.0000030117
    5    2   10    9       -0.0000438675
    5    2   11    9        0.0000005486
    5    2   12    9        0.0020549204
    5    2   13    9        0.0000017406
    5    2   10   10       -0.0000021569
    5    2   11   10        0.0000141978
    5    2   12   10       -0.0000405228
    5    2   13   10        0.0000060936
    5    2   11   11       -0.0000011289
    5    2   12   11       -0.0001267993
    5    2   13   11        0.0000008942
    5    2   12   12       -0.0000001029
    5    2   13   12        0.0014323849
    5    2   13   13       -0.0000043475
    6    2    6    2        0.0044285555
    6    2    7    2       -0.0000000000
    6    2    8    2       -0.0000107835
    6    2    9    2        0.0018494835
    6    2   10    2        0.0000019438
    6    2   11    2       -0.0044274804
    6    2   12    2        0.0000000379
    6    2   13    2        0.0014323523
    6    2    3    3       -0.0001511664
    6    2    4    3        0.0000000227
    6    2    5    3        0.0000003039
    6    2    6    3       -0.0001949554
    6    2    7    3        0.0000000000
    6    2    8    3        0.0048715735
    6    2    9    3        0.0000139865
    6    2   10    3       -0.0000003639
    6    2   11    3        0.0000397087
    6    2   12    3        0.0000012166
    6    2   13    3        0.0000222913
    6    2    4    4       -0.0001141385
    6    2    5    4       -0.0000000011
    6    2    6    4        0.0000000113
    6    2    7    4        0.0000000142
    6    2    8    4       -0.0000001762
    6    2    9    4        0.0000000100
    6    2   10    4        0.0000002104
    6    2   11    4       -0.0000000158
    6    2   12    4        0.0016313721
    6    2   13    4       -0.0000000060
    6    2    5    5       -0.0001141669
    6    2    6    5        0.0000001500
    6    2    7    5       -0.0000000011
    6    2    8    5       -0.0000024552
    6    2    9    5        0.0000001335
    6    2   10    5        0.0000773617
    6    2   11    5       -0.0000000970
    6    2   12    5        0.0069595908
    6    2   13    5        0.0000000048
    6    2    6    6       -0.0002943846
    6    2    7    6       -0.0000000000
    6    2    8    6        0.0014849118
    6    2    9    6       -0.0000908217
    6    2   10    6       -0.0000003212
    6    2   11    6        0.0001577743
    6    2   12    6        0.0000134686
    6    2   13    6        0.0000078121
    6    2    7    7       -0.0001070627
    6    2    8    7        0.0000000001
    6    2    9    7        0.0000000002
    6    2   10    7       -0.0000000031
    6    2   11    7        0.0000001434
    6    2   12    7       -0.0000010610
    6    2   13    7       -0.0000000066
    6    2    8    8        0.0000060253
    6    2    9    8        0.0009235070
    6    2   10    8        0.0000012270
    6    2   11    8        0.0007806940
    6    2   12    8        0.0000000574
    6    2   13    8        0.0002331860
    6    2    9    9       -0.0001664624
    6    2   10    9       -0.0000004114
    6    2   11    9        0.0001512874
    6    2   12    9        0.0000027083
    6    2   13    9        0.0000091512
    6    2   10   10       -0.0001011973
    6    2   11   10        0.0000000712
    6    2   12   10        0.0014189247
    6    2   13   10       -0.0000000104
    6    2   11   11       -0.0002360238
    6    2   12   11       -0.0000033949
    6    2   13   11        0.0001283117
    6    2   12   12       -0.0000082635
    6    2   13   12        0.0000017690
    6    2   13   13       -0.0002048642
    7    2    7    2        0.0006904874
    7    2    8    2       -0.0000000001
    7    2    9    2       -0.0000000000
    7    2   10    2       -0.0000001076
    7    2   11    2        0.0000000003
    7    2   12    2       -0.0000000168
    7    2   13    2       -0.0000000002
    7    2    3    3        0.0000000001
    7    2    4    3       -0.0000005711
    7    2    5    3        0.0000000425
    7    2    6    3       -0.0000000000
    7    2    7    3       -0.0000234119
    7    2    8    3       -0.0000000000
    7    2    9    3        0.0000000001
    7    2   10    3       -0.0000000189
    7    2   11    3        0.0000000586
    7    2   12    3        0.0000032832
    7    2   13    3       -0.0000000027
    7    2    4    4       -0.0000003959
    7    2    5    4       -0.0000026561
    7    2    6    4       -0.0000003277
    7    2    7    4       -0.0000000176
    7    2    8    4        0.0000224418
    7    2    9    4        0.0000001389
    7    2   10    4       -0.0000099230
    7    2   11    4       -0.0000001087
    7    2   12    4        0.0005826730
    7    2   13    4        0.0000001056
    7    2    5    5        0.0000003955
    7    2    6    5        0.0000000242
    7    2    7    5       -0.0000002389
    7    2    8    5       -0.0000016622
    7    2    9    5       -0.0000000102
    7    2   10    5        0.0000014950
    7    2   11    5        0.0000000070
    7    2   12    5        0.0000480910
    7    2   13    5       -0.0000000069
    7    2    6    6        0.0000000000
    7    2    7    6       -0.0000192127
    7    2    8    6        0.0000000000
    7    2    9    6        0.0000000000
    7    2   10    6       -0.0000000120
    7    2   11    6        0.0000000052
    7    2   12    6        0.0000002398
    7    2   13    6       -0.0000000002
    7    2    7    7       -0.0000000000
    7    2    8    7        0.0020117007
    7    2    9    7        0.0000019027
    7    2   10    7       -0.0000003441
    7    2   11    7       -0.0000151411
    7    2   12    7        0.0000143678
    7    2   13    7        0.0000244901
    7    2    8    8        0.0000000001
    7    2    9    8       -0.0000000000
    7    2   10    8        0.0000000020
    7    2   11    8        0.0000000004
    7    2   12    8       -0.0000000257
    7    2   13    8       -0.0000000001
    7    2    9    9        0.0000000001
    7    2   10    9        0.0000000343
    7    2   11    9        0.0000000305
    7    2   12    9        0.0000002373
    7    2   13    9       -0.0000000014
    7    2   10   10       -0.0000019282
    7    2   11   10       -0.0000000027
    7    2   12   10        0.0001213208
    7    2   13   10       -0.0000000073
    7    2   11   11        0.0000000803
    7    2   12   11        0.0000007936
    7    2   13   11       -0.0000000148
    7    2   12   12       -0.0000004727
    7    2   13   12       -0.0000003499
    7    2   13   13        0.0000000012
    8    2    8    2        0.0116799003
    8    2    9    2       -0.0000041843
    8    2   10    2       -0.0000013105
    8    2   11    2        0.0000066360
    8    2   12    2        0.0000218195
    8    2   13    2       -0.0000112127
    8    2    3    3       -0.0023932088
    8    2    4    3        0.0000044950
    8    2    5    3        0.0000606544
    8    2    6    3       -0.0005214073
    8    2    7    3        0.0000000000
    8    2    8    3       -0.0000052348
    8    2    9    3       -0.0033525228
    8    2   10    3       -0.0000051555
    8    2   11    3        0.0005528508
[...]
   10    7   10   10        0.0000116625
   10    7   11   10       -0.0004133295
   10    7   12   10       -0.0000004582
   10    7   13   10       -0.0006547192
   10    7   11   11       -0.0000369190
   10    7   12   11        0.0000001481
   10    7   13   11       -0.0000076584
   10    7   12   12       -0.0000634811
   10    7   13   12       -0.0000011951
   10    7   13   13       -0.0000396284
   11    7   11    7        0.0079726380
   11    7   12    7       -0.0000025087
   11    7   13    7       -0.0024008123
   11    7    8    8        0.0000000614
   11    7    9    8        0.0000000348
   11    7   10    8       -0.0000000511
   11    7   11    8        0.0000004518
   11    7   12    8        0.0000613771
   11    7   13    8       -0.0000000717
   11    7    9    9        0.0000000474
   11    7   10    9       -0.0000201623
   11    7   11    9        0.0000000429
   11    7   12    9       -0.0000002741
   11    7   13    9       -0.0000000375
   11    7   10   10       -0.0000635247
   11    7   11   10       -0.0000077965
   11    7   12   10       -0.0000029773
   11    7   13   10       -0.0000050380
   11    7   11   11        0.0000000879
   11    7   12   11       -0.0000000857
   11    7   13   11        0.0000000018
   11    7   12   12        0.0002368229
   11    7   13   12       -0.0000003569
   11    7   13   13        0.0000000542
   12    7   12    7        0.0051549298
   12    7   13    7        0.0000031032
   12    7    8    8       -0.0000002509
   12    7    9    8       -0.0000023536
   12    7   10    8        0.0002474895
   12    7   11    8        0.0000102725
   12    7   12    8       -0.0000017731
   12    7   13    8       -0.0000085147
   12    7    9    9       -0.0000005283
   12    7   10    9        0.0000009719
   12    7   11    9       -0.0000001346
   12    7   12    9        0.0006413268
   12    7   13    9       -0.0000001650
   12    7   10   10       -0.0000008275
   12    7   11   10       -0.0000000025
   12    7   12   10       -0.0000034422
   12    7   13   10        0.0000007968
   12    7   11   11       -0.0000003786
   12    7   12   11        0.0001502958
   12    7   13   11       -0.0000000828
   12    7   12   12       -0.0000001902
   12    7   13   12        0.0001833824
   12    7   13   13       -0.0000007228
   13    7   13    7        0.0062194172
   13    7    8    8       -0.0000000433
   13    7    9    8       -0.0000000019
   13    7   10    8        0.0000000329
   13    7   11    8       -0.0000000981
   13    7   12    8       -0.0000422746
   13    7   13    8        0.0000000070
   13    7    9    9       -0.0000000440
   13    7   10    9        0.0000108349
   13    7   11    9       -0.0000000227
   13    7   12    9        0.0000000241
   13    7   13    9        0.0000000278
   13    7   10   10       -0.0005010991
   13    7   11   10        0.0000031545
   13    7   12   10        0.0000036670
   13    7   13   10        0.0000006726
   13    7   11   11       -0.0000000695
   13    7   12   11       -0.0000000941
   13    7   13   11        0.0000000027
   13    7   12   12        0.0000619245
   13    7   13   12        0.0000001114
   13    7   13   13       -0.0000000551
    8    8    8    8        0.1232508815
    8    8    9    8       -0.0000005018
    8    8   10    8       -0.0000004132
    8    8   11    8        0.0000007882
    8    8   12    8        0.0008040946
    8    8   13    8       -0.0000045646
    8    8    9    9        0.1138340303
    8    8   10    9        0.0005843737
    8    8   11    9        0.0027722785
    8    8   12    9        0.0000000094
    8    8   13    9        0.0081753775
    8    8   10   10        0.1219801410
    8    8   11   10        0.0001911350
    8    8   12   10        0.0000004136
    8    8   13   10        0.0000943373
    8    8   11   11        0.1169578687
    8    8   12   11       -0.0000005289
    8    8   13   11        0.0018969271
    8    8   12   12        0.1272271991
    8    8   13   12       -0.0000000177
    8    8   13   13        0.1120677751
    9    8    9    8        0.0058170673
    9    8   10    8        0.0001189613
    9    8   11    8        0.0017731277
    9    8   12    8       -0.0000000835
    9    8   13    8       -0.0004119712
    9    8    9    9        0.0001934949
    9    8   10    9        0.0000054703
    9    8   11    9       -0.0000356936
    9    8   12    9        0.0000763642
    9    8   13    9       -0.0001358248
    9    8   10   10        0.0001174547
    9    8   11   10       -0.0000012940
    9    8   12   10        0.0041669487
    9    8   13   10       -0.0000027963
    9    8   11   11        0.0000091255
    9    8   12   11        0.0000172204
    9    8   13   11        0.0000033089
    9    8   12   12       -0.0000062814
    9    8   13   12       -0.0000201553
    9    8   13   13        0.0001586929
   10    8   10    8        0.0052386458
   10    8   11    8        0.0000574257
   10    8   12    8        0.0000023362
   10    8   13    8       -0.0000309846
   10    8    9    9        0.0000060302
   10    8   10    9        0.0001127087
   10    8   11    9       -0.0000007547
   10    8   12    9        0.0026400772
   10    8   13    9       -0.0000059034
   10    8   10   10        0.0000036193
   10    8   11   10       -0.0000421376
   10    8   12   10        0.0001122191
   10    8   13   10       -0.0000260341
   10    8   11   11        0.0000001002
   10    8   12   11        0.0003286384
   10    8   13   11        0.0000005585
   10    8   12   12       -0.0000013659
   10    8   13   12        0.0001441035
   10    8   13   13        0.0000055126
   11    8   11    8        0.0037117343
   11    8   12    8       -0.0000001661
   11    8   13    8       -0.0004320192
   11    8    9    9       -0.0000793451
   11    8   10    9       -0.0000002143
   11    8   11    9        0.0000439801
   11    8   12    9        0.0000470625
   11    8   13    9        0.0000210107
   11    8   10   10       -0.0000745516
   11    8   11   10        0.0000000728
   11    8   12   10        0.0005758003
   11    8   13   10        0.0000001642
   11    8   11   11       -0.0000656708
   11    8   12   11        0.0000500319
   11    8   13   11        0.0000554184
   11    8   12   12       -0.0000039230
   11    8   13   12       -0.0000050276
   11    8   13   13       -0.0001336416
   12    8   12    8        0.0239562245
   12    8   13    8        0.0000004170
   12    8    9    9        0.0008456786
   12    8   10    9        0.0143089223
   12    8   11    9        0.0002293699
   12    8   12    9       -0.0000019263
   12    8   13    9       -0.0002730694
   12    8   10   10        0.0005173003
   12    8   11   10        0.0034352025
   12    8   12   10       -0.0000006337
   12    8   13   10        0.0038469573
   12    8   11   11        0.0009181495
   12    8   12   11       -0.0000101284
   12    8   13   11        0.0001810165
   12    8   12   12        0.0004544137
   12    8   13   12       -0.0000031230
   12    8   13   13        0.0009833146
   13    8   13    8        0.0023840538
   13    8    9    9       -0.0000406043
   13    8   10    9       -0.0000008578
   13    8   11    9       -0.0000007997
   13    8   12    9       -0.0000346669
   13    8   13    9        0.0000360435
   13    8   10   10       -0.0000025386
   13    8   11   10        0.0000004037
   13    8   12   10        0.0007719021
   13    8   13   10        0.0000006595
   13    8   11   11        0.0000158187
   13    8   12   11       -0.0000128044
   13    8   13   11       -0.0000334869
   13    8   12   12       -0.0000102545
   13    8   13   12        0.0000230778
   13    8   13   13        0.0000278633
    9    9    9    9        0.1160603054
    9    9   10    9        0.0007407253
    9    9   11    9        0.0000151231
    9    9   12    9        0.0000036210
    9    9   13    9        0.0034870284
    9    9   10   10        0.1183545445
    9    9   11   10        0.0001552246
    9    9   12   10        0.0001422244
    9    9   13   10       -0.0000033147
    9    9   11   11        0.1119698570
    9    9   12   11       -0.0000011436
    9    9   13   11        0.0002179527
    9    9   12   12        0.1181409716
    9    9   13   12       -0.0000015579
    9    9   13   13        0.1105982356
   10    9   10    9        0.0137947290
   10    9   11    9        0.0001713904
   10    9   12    9        0.0000530560
   10    9   13    9       -0.0002909847
   10    9   10   10        0.0004476245
   10    9   11   10        0.0027405875
   10    9   12   10        0.0000048844
   10    9   13   10        0.0025414639
   10    9   11   11        0.0006374910
   10    9   12   11       -0.0000191830
   10    9   13   11        0.0001238323
   10    9   12   12        0.0003751487
   10    9   13   12       -0.0000200781
   10    9   13   13        0.0007758877
   11    9   11    9        0.0063614771
   11    9   12    9       -0.0000004718
   11    9   13    9        0.0001859445
   11    9   10   10        0.0014273427
   11    9   11   10        0.0000812070
   11    9   12   10       -0.0000326889
   11    9   13   10        0.0000575743
   11    9   11   11       -0.0023730471
   11    9   12   11       -0.0000000014
   11    9   13   11        0.0059157828
   11    9   12   12        0.0002354543
   11    9   13   12        0.0000000923
   11    9   13   13        0.0000752626
   12    9   12    9        0.0035480135
   12    9   13    9       -0.0000030762
   12    9   10   10        0.0000023957
   12    9   11   10       -0.0000159404
   12    9   12   10        0.0000537748
   12    9   13   10       -0.0000216052
   12    9   11   11        0.0000001039
   12    9   12   11        0.0001976251
   12    9   13   11        0.0000004950
   12    9   12   12       -0.0000000344
   12    9   13   12        0.0008244977
   12    9   13   13        0.0000026974
   13    9   13    9        0.0113580501
   13    9   10   10        0.0118798479
   13    9   11   10       -0.0000045645
   13    9   12   10       -0.0000855604
   13    9   13   10        0.0000882650
   13    9   11   11        0.0126194699
   13    9   12   11        0.0000003976
   13    9   13   11       -0.0000059968
   13    9   12   12        0.0129958770
   13    9   13   12        0.0000014463
   13    9   13   13        0.0057884369
   10   10   10   10        0.1355010378
   10   10   11   10        0.0000703029
   10   10   12   10        0.0001534911
   10   10   13   10       -0.0000058721
   10   10   11   11        0.1188139395
   10   10   12   11       -0.0000008562
   10   10   13   11        0.0009068222
   10   10   12   12        0.1346432711
   10   10   13   12       -0.0000007753
   10   10   13   13        0.1157791316
   11   10   11   10        0.0035028226
   11   10   12   10       -0.0000017233
   11   10   13   10        0.0023080507
   11   10   11   11        0.0002593322
   11   10   12   11        0.0000032654
   11   10   13   11        0.0000822041
   11   10   12   12        0.0000647740
   11   10   13   12        0.0000033929
   11   10   13   13        0.0002061459
   12   10   12   10        0.0070100994
   12   10   13   10       -0.0000025878
   12   10   11   11        0.0000172227
   12   10   12   11       -0.0000065515
   12   10   13   11       -0.0000129428
   12   10   12   12        0.0000081294
   12   10   13   12       -0.0000070307
   12   10   13   13        0.0001345583
   13   10   13   10        0.0046572424
   13   10   11   11        0.0001584483
   13   10   12   11        0.0000005848
   13   10   13   11        0.0000759535
   13   10   12   12        0.0000298136
   13   10   13   12        0.0000109242
   13   10   13   13        0.0000486357
   11   11   11   11        0.1278311018
   11   11   12   11       -0.0000011329
   11   11   13   11        0.0005918473
   11   11   12   12        0.1232804512
   11   11   13   12       -0.0000000423
   11   11   13   13        0.1144717920
   12   11   12   11        0.0016422495
   12   11   13   11        0.0000002170
   12   11   12   12       -0.0000004082
   12   11   13   12       -0.0001517719
   12   11   13   13       -0.0000021228
   13   11   13   11        0.0113116022
   13   11   12   12       -0.0005105113
   13   11   13   12       -0.0000006919
   13   11   13   13       -0.0001861518
   12   12   12   12        0.1532444525
   12   12   13   12       -0.0000001276
   12   12   13   13        0.1161638010
   13   12   13   12        0.0014349423
   13   12   13   13       -0.0000008009
   13   13   13   13        0.1132218579
 end_two_electron_integrals


 output epsi filename:./pspw_hf_H2.emovecs

 Total PSPW energy     :  -0.9259375835E+00


=== Spin Contamination ===

 <Sexact^2> =    0.0000000000000000     
 <S^2>      =    0.0000000000000000     



== Center of Charge ==

spin up     (    0.0000,    0.0000,    0.0000 )
spin down   (    0.0000,    0.0000,    0.0000 )
     total  (    0.0000,    0.0000,    0.0000 )
ionic       (    0.0000,    0.0000,    0.0000 )


== Molecular Dipole wrt Center of Mass ==

mu   =  (   -0.0000,   -0.0000,   -0.0000 ) au
|mu| =     0.0000 au,       0.0001 Debye

 output psi filename:./pspw_hf_H2.movecs

 Writing Crystallographic Information File:./H2.cif
   - cell not shifted (nwpw:cif_shift_cell .false.)


== Timing ==

cputime in seconds
  prologue    :   0.668312E+01
  main loop   :   0.326722E+03
  epilogue    :   0.490638E-02
  total       :   0.333410E+03
  cputime/step:   0.238483E+01       (     137 evalulations,      57 linesearches)


Time spent doing                        total          step       percent
  total time                 :   0.333410E+03  0.243365E+01       100.0 %
  i/o time                   :   0.905747E-01  0.661129E-03         0.0 %
  FFTs                       :   0.291479E+03  0.212758E+01        87.4 %
  dot products               :   0.419860E+00  0.306467E-02         0.1 %
  geodesic                   :   0.586144E-01  0.427842E-03         0.0 %
  ffm_dgemm                  :   0.723045E-02  0.527770E-04         0.0 %
  fmf_dgemm                  :   0.284988E-01  0.208020E-03         0.0 %
  mmm_dgemm                  :   0.128930E-02  0.941097E-05         0.0 %
  m_diagonalize              :   0.736604E-03  0.537667E-05         0.0 %
  local pseudopotentials     :   0.989007E-02  0.721903E-04         0.0 %
  non-local pseudopotentials :   0.855185E+00  0.624222E-02         0.3 %
  structure factors          :   0.408986E+00  0.298530E-02         0.1 %
  phase factors              :   0.614800E-05  0.448759E-07         0.0 %
  masking and packing        :   0.520979E+01  0.380277E-01         1.6 %
  queue fft                  :   0.122327E+01  0.892895E-02         0.4 %
  queue fft (serial)         :   0.728493E+00  0.531747E-02         0.2 %
  queue fft (message passing):   0.450521E+00  0.328847E-02         0.1 %
  HFX potential              :   0.228504E+03  0.166791E+01        68.5 %
  non-local psp FFM          :   0.463026E+00  0.337975E-02         0.1 %
  non-local psp FMF          :   0.995070E-01  0.726328E-03         0.0 %
  non-local psp FFM A        :   0.121550E+00  0.887225E-03         0.0 %
  non-local psp FFM B        :   0.858826E-01  0.626880E-03         0.0 %

== HFX Counters ==
  HFX Evalulations         =   137
  Lin ACE HFX Evalulations =     0


     >>>  JOB COMPLETED     AT Thu May  1 18:46:20 2025  <<<

 Task  times  cpu:      333.4s     wall:      333.4s
 Summary of allocated global arrays
-----------------------------------
  No active global arrays


MA_summarize_allocated_blocks: starting scan ...
MA_summarize_allocated_blocks: scan completed: 0 heap blocks, 0 stack blocks
MA usage statistics:

	allocation statistics:
					      heap	     stack
					      ----	     -----
	current number of blocks	         0	         0
	maximum number of blocks	       313	        17
	current total bytes		         0	         0
	maximum total bytes		 369662368	  89294088
	maximum total K-bytes		    369663	     89295
	maximum total M-bytes		       370	        90


                                NWChem Input Module
                                -------------------




                                     CITATION
                                     --------
                Please cite the following reference when publishing
                           results obtained with NWChem:

          E. Apra, E. J. Bylaska, W. A. de Jong, N. Govind, K. Kowalski,
       T. P. Straatsma, M. Valiev, H. J. J. van Dam, Y. Alexeev, J. Anchell,
       V. Anisimov, F. W. Aquino, R. Atta-Fynn, J. Autschbach, N. P. Bauman,
     J. C. Becca, D. E. Bernholdt, K. Bhaskaran-Nair, S. Bogatko, P. Borowski,
         J. Boschen, J. Brabec, A. Bruner, E. Cauet, Y. Chen, G. N. Chuev,
      C. J. Cramer, J. Daily, M. J. O. Deegan, T. H. Dunning Jr., M. Dupuis,
   K. G. Dyall, G. I. Fann, S. A. Fischer, A. Fonari, H. Fruchtl, L. Gagliardi,
      J. Garza, N. Gawande, S. Ghosh, K. Glaesemann, A. W. Gotz, J. Hammond,
       V. Helms, E. D. Hermes, K. Hirao, S. Hirata, M. Jacquelin, L. Jensen,
   B. G. Johnson, H. Jonsson, R. A. Kendall, M. Klemm, R. Kobayashi, V. Konkov,
      S. Krishnamoorthy, M. Krishnan, Z. Lin, R. D. Lins, R. J. Littlefield,
      A. J. Logsdail, K. Lopata, W. Ma, A. V. Marenich, J. Martin del Campo,
   D. Mejia-Rodriguez, J. E. Moore, J. M. Mullin, T. Nakajima, D. R. Nascimento,
    J. A. Nichols, P. J. Nichols, J. Nieplocha, A. Otero-de-la-Roza, B. Palmer,
    A. Panyala, T. Pirojsirikul, B. Peng, R. Peverati, J. Pittner, L. Pollack,
   R. M. Richard, P. Sadayappan, G. C. Schatz, W. A. Shelton, D. W. Silverstein,
   D. M. A. Smith, T. A. Soares, D. Song, M. Swart, H. L. Taylor, G. S. Thomas,
            V. Tipparaju, D. G. Truhlar, K. Tsemekhman, T. Van Voorhis,
      A. Vazquez-Mayagoitia, P. Verma, O. Villa, A. Vishnu, K. D. Vogiatzis,
        D. Wang, J. H. Weare, M. J. Williamson, T. L. Windus, K. Wolinski,
        A. T. Wong, Q. Wu, C. Yang, Q. Yu, M. Zacharias, Z. Zhang, Y. Zhao,
                                and R. J. Harrison
                        "NWChem: Past, present, and future
                         J. Chem. Phys. 152, 184102 (2020)
                               doi:10.1063/5.0004997

                                      AUTHORS
                                      -------
  E. Apra, E. J. Bylaska, N. Govind, K. Kowalski, M. Valiev, D. Mejia-Rodriguez,
       A. Kunitsa, N. P. Bauman, A. Panyala, W. A. de Jong, T. P. Straatsma,
   H. J. J. van Dam, D. Wang, T. L. Windus, J. Hammond, J. Autschbach, A. Woods,
    K. Bhaskaran-Nair, J. Brabec, K. Lopata, S. A. Fischer, S. Krishnamoorthy,
     M. Jacquelin, W. Ma, M. Klemm, O. Villa, Y. Chen, V. Anisimov, F. Aquino,
     S. Hirata, M. T. Hackler, E. Hermes, L. Jensen, J. E. Moore, J. C. Becca,
      V. Konjkov, T. Risthaus, M. Malagoli, A. Marenich, A. Otero-de-la-Roza,
        J. Mullin, P. Nichols, R. Peverati, J. Pittner, Y. Zhao, P.-D. Fan,
        A. Fonari, M. J. Williamson, R. J. Harrison, J. R. Rehr, M. Dupuis,
     D. Silverstein, D. M. A. Smith, J. Nieplocha, V. Tipparaju, M. Krishnan,
     B. E. Van Kuiken, A. Vazquez-Mayagoitia, M. Swart, Q. Wu, T. Van Voorhis,
     A. A. Auer, M. Nooijen, L. D. Crosby, E. Brown, G. Cisneros, G. I. Fann,
   H. Fruchtl, J. Garza, K. Hirao, R. A. Kendall, J. A. Nichols, K. Tsemekhman,
    K. Wolinski, J. Anchell, D. E. Bernholdt, P. Borowski, T. Clark, D. Clerc,
   H. Dachsel, M. J. O. Deegan, K. Dyall, D. Elwood, E. Glendening, M. Gutowski,
   A. C. Hess, J. Jaffe, B. G. Johnson, J. Ju, R. Kobayashi, R. Kutteh, Z. Lin,
   R. Littlefield, X. Long, B. Meng, T. Nakajima, S. Niu, L. Pollack, M. Rosing,
   K. Glaesemann, G. Sandrone, M. Stave, H. Taylor, G. Thomas, J. H. van Lenthe,
                               A. T. Wong, Z. Zhang.

 Total times  cpu:      333.5s     wall:      333.4s
