 argument  1 = H2-4.0.nw



============================== echo of input deck ==============================
title "swnc: e theory=pspw4 xc=hf formula=H2 charge=0 mult=1"
#machinejob:expert

echo

start pspw_hf_H2

memory heap 1200 mb stack 1200 mb global 10 mb

charge 0

geometry
H    0.00000    0.00000   -2.00000
H    0.00000    0.00000    2.00000
end

nwpw
  ### pseudopotential block begin ###
  ### pseudopotential block end   ###
  simulation_cell
     SC 20.0000
     boundary_conditions aperiodic
  end

  cutoff 50.0
  mult 1
  xc hf
  lmbfgs
  tolerances 1.0e-9 1.0e-9

  virtual 12
end
set nwpw:cif_filename H2

#set nwpw:CI_maxit_orb 15
#set nwpw:CI_maxit_linesearch 15
set pspw:HFX_screening_radius 14.0


set nwpw:2qintegrals .true.
#set nwpw:3x3_virtual .true.

task pspw energy

================================================================================


                                         
                                         


             Northwest Computational Chemistry Package (NWChem) 7.2.2
             --------------------------------------------------------


                    Environmental Molecular Sciences Laboratory
                       Pacific Northwest National Laboratory
                                Richland, WA 99352

                              Copyright (c) 1994-2022
                       Pacific Northwest National Laboratory
                            Battelle Memorial Institute

             NWChem is an open-source computational chemistry package
                        distributed under the terms of the
                      Educational Community License (ECL) 2.0
             A copy of the license is included with this distribution
                              in the LICENSE.TXT file

                                  ACKNOWLEDGMENT
                                  --------------

            This software and its documentation were developed at the
            EMSL at Pacific Northwest National Laboratory, a multiprogram
            national laboratory, operated for the U.S. Department of Energy
            by Battelle under Contract Number DE-AC05-76RL01830. Support
            for this work was provided by the Department of Energy Office
            of Biological and Environmental Research, Office of Basic
            Energy Sciences, and the Office of Advanced Scientific Computing.


           Job information
           ---------------

    hostname        = LAPTOP-JJQSTSEL
    program         = nwchem
    date            = Thu May  1 16:47:14 2025

    compiled        = Fri_Jun_07_07:50:04_2024
    source          = /home/conda/feedstock_root/build_artifacts/nwchem_1717738148552/work
    nwchem branch   = 7.2.2
    nwchem revision = 64ba0f0
    ga revision     = 5.8.0
    use scalapack   = T
    input           = H2-4.0.nw
    prefix          = pspw_hf_H2.
    data base       = ./pspw_hf_H2.db
    status          = startup
    nproc           =        1
    time left       =     -1s



           Memory information
           ------------------

    heap     =  157286400 doubles =   1200.0 Mbytes
    stack    =  157286397 doubles =   1200.0 Mbytes
    global   =    1310720 doubles =     10.0 Mbytes (distinct from heap & stack)
    total    =  315883517 doubles =   2410.0 Mbytes
    verify   = yes
    hardfail = no 


           Directory information
           ---------------------

  0 permanent = .
  0 scratch   = .




                                NWChem Input Module
                                -------------------


               swnc: e theory=pspw4 xc=hf formula=H2 charge=0 mult=1
               -----------------------------------------------------

 Scaling coordinates for geometry "geometry" by  1.889725989
 (inverse scale =  0.529177249)

 ORDER OF PRIMARY AXIS IS BEING SET TO 4
 D4H symmetry detected

          ------
          auto-z
          ------
     1 autoz failed with cvr_scaling = 1.2 changing to 1.3
     2 autoz failed with cvr_scaling = 1.3 changing to 1.4
     3 autoz failed with cvr_scaling = 1.4 changing to 1.5
     4 autoz failed with cvr_scaling = 1.5 changing to 1.6
     5 autoz failed with cvr_scaling = 1.6 changing to 1.7

 AUTOZ failed to generate good internal coordinates.
 Cartesian coordinates will be used in optimizations.



                             Geometry "geometry" -> ""
                             -------------------------

 Output coordinates in angstroms (scale by  1.889725989 to convert to a.u.)

  No.       Tag          Charge          X              Y              Z
 ---- ---------------- ---------- -------------- -------------- --------------
    1 H                    1.0000     0.00000000     0.00000000    -2.00000000
    2 H                    1.0000     0.00000000     0.00000000     2.00000000

      Atomic Mass 
      ----------- 

      H                  1.007825


 Effective nuclear repulsion energy (a.u.)       0.1322943122

            Nuclear Dipole moment (a.u.) 
            ----------------------------
        X                 Y               Z
 ---------------- ---------------- ----------------
     0.0000000000     0.0000000000     0.0000000000

      Symmetry information
      --------------------

 Group name             D4h       
 Group number             28
 Group order              16
 No. of unique centers     1

      Symmetry unique atoms

     1


            XYZ format geometry
            -------------------
     2
 geometry
 H                     0.00000000     0.00000000    -2.00000000
 H                     0.00000000     0.00000000     2.00000000

          ****************************************************
          *                                                  *
          *               NWPW PSPW Calculation              *
          *                                                  *
          * [ (Grassmann/Stiefel manifold implementation)  ] *
          *                                                  *
          *      [ NorthWest Chemistry implementation ]      *
          *                                                  *
          *            version #5.10   06/12/02              *
          *                                                  *
          *    This code was developed by Eric J. Bylaska,   *
          *    and was based upon algorithms and code        *
          *    developed by the group of Prof. John H. Weare *
          *                                                  *
          ****************************************************
     >>>  JOB STARTED       AT Thu May  1 16:47:14 2025  <<<
          ================ input data ========================

 input psi filename:./pspw_hf_H2.movecs

 number of processors used:         1
 processor grid           :   1 x   1
 parallel mapping         :2d-hilbert
 parallel mapping         :  balanced
 number of threads        :         1
 parallel io              :       off

 options:
      boundary conditions  = aperiodic   (version4)
      electron spin        = restricted
      exchange-correlation = Hartree-Fock
      - HFX relaxed
      - HFX restricted orbitals :    1
      - HFX free-space coulomb solver


 elements involved in the cluster:
      1: H   valence charge:  1.0000  lmax=  1
             comment    : Parameterized (Chem.Phys.Lett., vol 322, page 447) Hamman psp
             pseudpotential type            :   0
             highest angular component      :   1
             local potential used           :   1
             number of non-local projections:   1
             aperiodic cutoff radius        :  1.000
             cutoff =   0.800   0.800


 total charge:   0.000

 atomic composition:
     H   :    2

 number of electrons: spin up=     1 (   1 per task)  down=     1 (   1 per task) (Fourier space)
 number of orbitals : spin up=     1 (   1 per task)  down=     1 (   1 per task) (Fourier space)

 supercell:
      cell_name:  cell_default                                      
      lattice:    a1=<  20.000   0.000   0.000 >
                  a2=<   0.000  20.000   0.000 >
                  a3=<   0.000   0.000  20.000 >
      reciprocal: b1=<   0.314   0.000   0.000 >
                  b2=<   0.000   0.314   0.000 >
                  b3=<   0.000   0.000   0.314 >
      lattice:    a=      20.000 b=     20.000 c=      20.000
                  alpha=  90.000 beta=  90.000 gamma=  90.000
                  omega=      8000.0

      density cutoff=100.000  fft= 96x 96x 96(   191162 waves   191162 per task)
      wavefnc cutoff= 50.000  fft= 96x 96x 96(    67522 waves    67522 per task)

 technical parameters:
      time step=      5.80     fictitious mass=  400000.0
      tolerance=0.100E-08 (energy)   0.100E-08 (density)
      maximum iterations =      1000 (   10 inner    100 outer )





== Energy Calculation ==


          ============ Grassmann lmbfgs iteration ============
     >>>  ITERATION STARTED AT Thu May  1 16:47:21 2025  <<<
    iter.           Energy         DeltaE       DeltaRho 
    ------------------------------------------------------
      10   -0.7873519989E+00   -0.14660E-02    0.73928E-02
     -  10 steepest descent iterations performed
      20   -0.7918707134E+00   -0.12095E-03    0.44722E-04
      30   -0.7921179966E+00   -0.61992E-05    0.37882E-05
      40   -0.7921369265E+00   -0.35542E-06    0.13340E-06
      50   -0.7921381609E+00   -0.19000E-07    0.80720E-08
      60   -0.7921382249E+00   -0.16796E-08    0.17695E-09
      70   -0.7921382281E+00   -0.68804E-09    0.36808E-11
  *** tolerance ok. iteration terminated
     >>>  ITERATION ENDED   AT Thu May  1 16:49:08 2025  <<<


==  Summary Of Results  ==

 number of electrons: spin up=    1.00000  down=    1.00000 (real space)

 total     energy    :  -0.7921382281E+00 (   -0.39607E+00/ion)
 total orbital energy:  -0.6061953976E+00 (   -0.60620E+00/electron)
 hartree   energy    :   0.6364742854E+00 (    0.63647E+00/electron)
 exc-corr  energy    :   0.0000000000E+00 (    0.00000E+00/electron)
 HF exchange energy  :  -0.3182371427E+00 (   -0.31824E+00/electron)
 ion-ion   energy    :   0.1322943122E+00 (    0.66147E-01/ion)

 kinetic (planewave) :   0.6453360328E+00 (    0.64534E+00/electron)
 V_local (planewave) :  -0.1737538473E+01 (   -0.17375E+01/electron)
 V_nl    (planewave) :  -0.1504672430E+00 (   -0.15047E+00/electron)
 V_Coul  (planewave) :   0.1272948571E+01 (    0.12729E+01/electron)
 V_xc.   (planewave) :   0.0000000000E+00 (    0.00000E+00/electron)
 K.S. HFX energy     :  -0.6364742854E+00 (   -0.63647E+00/electron)
 Virial Coefficient  :  -0.9530804321E+00

 orbital energies:
    -0.3030977E+00 (  -8.248eV)


== Virtual Orbital Calculation ==


 input epsi filename:./pspw_hf_H2.emovecs
     orbital   1 current e=-0.159E+00 (error=0.844E-09) iterations  63(  43 preconditioned, Ep,Sp= 20.0  200.0)
     orbital   2 current e= 0.674E-02 (error=0.965E-09) iterations  83(  47 preconditioned, Ep,Sp= 20.0  200.0)
     orbital   3 current e= 0.475E-01 (error=0.947E-09) iterations  58(  14 preconditioned, Ep,Sp= 20.0  200.0)
     orbital   4 current e= 0.475E-01 (error=0.922E-09) iterations  58(  14 preconditioned, Ep,Sp= 20.0  200.0)
     orbital   5 current e= 0.475E-01 (error=0.924E-09) iterations 100(  29 preconditioned, Ep,Sp= 20.0  200.0)
     orbital   6 current e= 0.497E-01 (error=0.914E-09) iterations  34(   1 preconditioned, Ep,Sp= 20.0  200.0)
     orbital   7 current e= 0.568E-01 (error=0.871E-09) iterations  84(  42 preconditioned, Ep,Sp= 20.0  200.0)
     orbital   8 current e= 0.695E-01 (error=0.931E-09) iterations 116(  53 preconditioned, Ep,Sp= 20.0  200.0)
     orbital   9 current e= 0.942E-01 (error=0.814E-09) iterations 103(  47 preconditioned, Ep,Sp= 20.0  200.0)
     orbital  10 current e= 0.958E-01 (error=0.921E-09) iterations 114(  86 preconditioned, Ep,Sp= 20.0  200.0)
     orbital  11 current e= 0.961E-01 (error=0.156E-05) iterations 121(  45 preconditioned, Ep,Sp= 20.0  200.0)
     orbital  11 current e= 0.958E-01 (error=0.672E-07) iterations 121( 106 preconditioned, Ep,Sp= 20.0  200.0)
     orbital  11 current e= 0.132E+00 (error=0.210E-07) iterations 121( 102 preconditioned, Ep,Sp= 20.0  200.0)
     orbital  11 current e= 0.132E+00 (error=0.951E-09) iterations  79(   4 preconditioned, Ep,Sp= 20.0  200.0)
     orbital  12 current e= 0.117E+00 (error=0.490E-03) iterations 121( 120 preconditioned, Ep,Sp= 20.0  200.0)
     orbital  12 current e= 0.965E-01 (error=0.480E-04) iterations 121( 120 preconditioned, Ep,Sp= 20.0  200.0)
     orbital  12 current e= 0.154E+00 (error=0.155E-05) iterations 121(  91 preconditioned, Ep,Sp= 20.0  200.0)
     orbital  12 current e= 0.154E+00 (error=0.245E-06) iterations 121( 120 preconditioned, Ep,Sp= 20.0  200.0)
     orbital  12 current e= 0.154E+00 (error=0.606E-04) iterations 121( 120 preconditioned, Ep,Sp= 20.0  200.0)
     orbital  12 current e= 0.157E+00 (error=0.227E-02) iterations 121( 120 preconditioned, Ep,Sp= 20.0  200.0)
     orbital  12 current e= 0.970E-01 (error=0.541E-04) iterations 121( 120 preconditioned, Ep,Sp= 20.0  200.0)

 virtual orbital energies:
     0.1319158E+00 (   3.590eV)
     0.9704400E-01 (   2.641eV)
     0.9582482E-01 (   2.608eV)
     0.9423410E-01 (   2.564eV)
     0.6952451E-01 (   1.892eV)
     0.5677340E-01 (   1.545eV)
     0.4966452E-01 (   1.351eV)
     0.4753939E-01 (   1.294eV)
     0.4748917E-01 (   1.292eV)
     0.4748917E-01 (   1.292eV)
     0.6740621E-02 (   0.183eV)
    -0.1585977E+00 (  -4.316eV)


 == Generating One-Electron and Two-Electron Integrals ==

 begin_one_electron_integrals
    1    1        -0.6213348415
    2    1         0.0000038452
    3    1        -0.0203624813
    4    1        -0.0000071889
    5    1         0.0000002205
    6    1         0.0032687690
    7    1         0.0000000036
    8    1        -0.0000002080
    9    1         0.0252268613
   10    1         0.0016240649
   11    1         0.0000005709
   12    1         0.0000263218
   13    1         0.0287195583
    2    2        -0.6133333854
    3    2        -0.0000336540
    4    2        -0.0000001265
    5    2         0.0000000040
    6    2         0.0000589949
    7    2         0.0000000388
    8    2         0.0244044602
    9    2         0.0000347322
   10    2         0.0000533075
   11    2         0.0000057485
   12    2         0.0006543623
   13    2         0.0000454719
    3    3        -0.1905545444
    4    3         0.0000079675
    5    3        -0.0000002401
    6    3        -0.0031751242
    7    3         0.0000000001
    8    3         0.0000021804
    9    3         0.0413500583
   10    3         0.0011334080
   11    3         0.0000002899
   12    3        -0.0002134283
   13    3         0.0241895583
    4    4        -0.1834431433
    5    4         0.0000000460
    6    4        -0.0000199919
    7    4         0.0000003410
    8    4         0.0000000424
    9    4         0.0000013835
   10    4         0.0001226772
   11    4         0.0514062686
   12    4         0.0084191361
   13    4        -0.0000236809
    5    5        -0.1834555216
    6    5         0.0000006174
    7    5         0.0000107639
    8    5         0.0000000018
    9    5        -0.0000000289
   10    5        -0.0000029361
   11    5         0.0001737278
   12    5         0.0002931818
   13    5         0.0000007639
    6    6        -0.1742116645
    7    6         0.0000000110
    8    6        -0.0000070673
    9    6         0.0000439766
   10    6        -0.0518731393
   11    6         0.0001208136
   12    6         0.0019810164
   13    6         0.0101579312
    7    7        -0.1517647160
    8    7        -0.0000000108
    9    7        -0.0000000027
   10    7        -0.0000000061
   11    7        -0.0000015757
   12    7         0.0000300125
   13    7        -0.0000000063
    8    8        -0.1444258961
    9    8        -0.0000032661
   10    8        -0.0000113149
   11    8        -0.0000070227
   12    8        -0.0008327079
   13    8        -0.0000158814
    9    9        -0.1301592417
   10    9         0.0022258533
   11    9        -0.0000018470
   12    9        -0.0000317958
   13    9        -0.0494445431
   10   10        -0.1347573237
   11   10        -0.0000001348
   12   10         0.0031354348
   13   10         0.0052492515
   11   11        -0.1348488275
   12   11        -0.0041738335
   13   11        -0.0000016933
   12   12        -0.1378489106
   13   12        -0.0018336033
   13   13        -0.0909461647
 end_one_electron_integrals

 begin_two_electron_integrals
    1    1    1    1        0.3182371427
    1    1    2    1       -0.0000038617
    1    1    3    1        0.0203579475
    1    1    4    1        0.0000071847
    1    1    5    1       -0.0000002204
    1    1    6    1       -0.0032669259
    1    1    7    1       -0.0000000036
    1    1    8    1        0.0000001801
    1    1    9    1       -0.0252289933
    1    1   10    1       -0.0016293761
    1    1   11    1       -0.0000005699
    1    1   12    1       -0.0000265332
    1    1   13    1       -0.0287163810
    1    1    2    2        0.3215202039
    1    1    3    2        0.0000169844
    1    1    4    2        0.0000000557
    1    1    5    2       -0.0000000018
    1    1    6    2       -0.0000263642
    1    1    7    2       -0.0000000337
    1    1    8    2       -0.0210613209
    1    1    9    2       -0.0000152435
    1    1   10    2       -0.0000225923
    1    1   11    2       -0.0000049528
    1    1   12    2       -0.0005641071
    1    1   13    2       -0.0000233398
    1    1    3    3        0.0997831712
    1    1    4    3       -0.0000040385
    1    1    5    3        0.0000001219
    1    1    6    3        0.0014550701
    1    1    7    3       -0.0000000004
    1    1    8    3       -0.0000018378
    1    1    9    3       -0.0221561433
    1    1   10    3       -0.0006038186
    1    1   11    3        0.0000001654
    1    1   12    3        0.0001024035
    1    1   13    3       -0.0138651904
    1    1    4    4        0.1165125862
    1    1    5    4       -0.0000000241
    1    1    6    4        0.0000102318
    1    1    7    4       -0.0000001672
    1    1    8    4       -0.0000000238
    1    1    9    4       -0.0000008118
    1    1   10    4       -0.0000643457
    1    1   11    4       -0.0269198954
    1    1   12    4       -0.0043525161
    1    1   13    4        0.0000120227
    1    1    5    5        0.1165190732
    1    1    6    5       -0.0000003160
    1    1    7    5       -0.0000052732
    1    1    8    5       -0.0000000009
    1    1    9    5        0.0000000181
    1    1   10    5        0.0000015372
    1    1   11    5       -0.0000909753
    1    1   12    5       -0.0001637473
    1    1   13    5       -0.0000003873
    1    1    6    6        0.1117801479
    1    1    7    6       -0.0000000059
    1    1    8    6        0.0000046954
    1    1    9    6        0.0001339204
    1    1   10    6        0.0271971521
    1    1   11    6       -0.0000630948
    1    1   12    6       -0.0010915803
    1    1   13    6       -0.0052577542
    1    1    7    7        0.1007834999
    1    1    8    7        0.0000000073
    1    1    9    7        0.0000000023
    1    1   10    7        0.0000000026
    1    1   11    7        0.0000007902
    1    1   12    7       -0.0000150676
    1    1   13    7        0.0000000056
    1    1    8    8        0.1017005756
    1    1    9    8        0.0000022713
    1    1   10    8        0.0000068412
    1    1   11    8        0.0000037928
    1    1   12    8        0.0004475598
    1    1   13    8        0.0000090901
    1    1    9    9        0.1017969776
    1    1   10    9       -0.0010996339
    1    1   11    9        0.0000008762
    1    1   12    9        0.0000260442
    1    1   13    9        0.0271071729
    1    1   10   10        0.1162866528
    1    1   11   10        0.0000001827
    1    1   12   10       -0.0017152953
    1    1   13   10       -0.0031458528
    1    1   11   11        0.1167986517
    1    1   12   11        0.0022508623
    1    1   13   11        0.0000011299
    1    1   12   12        0.1182888126
    1    1   13   12        0.0009792649
    1    1   13   13        0.1145545374
    2    1    2    1        0.1883047191
    2    1    3    1        0.0000003896
    2    1    4    1       -0.0000000150
    2    1    5    1        0.0000000004
    2    1    6    1        0.0000062544
    2    1    7    1       -0.0000000287
    2    1    8    1       -0.0177215288
    2    1    9    1        0.0000042471
    2    1   10    1        0.0000081354
    2    1   11    1       -0.0000041571
    2    1   12    1       -0.0004736027
    2    1   13    1       -0.0000011754
    2    1    2    2       -0.0000067101
    2    1    3    2        0.0176521827
    2    1    4    2       -0.0000146690
    2    1    5    2        0.0000004463
    2    1    6    2        0.0067553263
    2    1    7    2       -0.0000000076
    2    1    8    2        0.0000033604
    2    1    9    2       -0.0230795730
    2    1   10    2        0.0118410160
    2    1   11    2       -0.0000026330
    2    1   12    2       -0.0012100869
    2    1   13    2       -0.0314790778
    2    1    3    3        0.0002355529
    2    1    4    3        0.0000006814
    2    1    5    3       -0.0000000208
    2    1    6    3       -0.0003115851
    2    1    7    3       -0.0000000051
    2    1    8    3       -0.0180986969
    2    1    9    3       -0.0000249757
    2    1   10    3       -0.0000462241
    2    1   11    3       -0.0000021525
    2    1   12    3       -0.0002625760
    2    1   13    3       -0.0000441240
    2    1    4    4        0.0002115732
    2    1    5    4       -0.0000000057
    2    1    6    4       -0.0000006082
    2    1    7    4       -0.0000000008
    2    1    8    4       -0.0000087809
    2    1    9    4       -0.0000003686
    2    1   10    4       -0.0000000201
    2    1   11    4       -0.0004123165
    2    1   12    4        0.0232085452
    2    1   13    4       -0.0000013328
    2    1    5    5        0.0002117213
    2    1    6    5        0.0000000193
    2    1    7    5       -0.0000000150
    2    1    8    5        0.0000002556
    2    1    9    5        0.0000000117
    2    1   10    5        0.0000000992
    2    1   11    5       -0.0000081458
    2    1   12    5        0.0028781610
    2    1   13    5       -0.0000001183
    2    1    6    6        0.0004917847
    2    1    7    6        0.0000000048
    2    1    8    6        0.0040128621
    2    1    9    6        0.0001706293
    2    1   10    6        0.0002374867
    2    1   11    6        0.0000008869
    2    1   12    6        0.0002676589
    2    1   13    6        0.0001341603
    2    1    7    7        0.0001873984
    2    1    8    7       -0.0000000026
    2    1    9    7        0.0000000091
    2    1   10    7        0.0000003427
    2    1   11    7        0.0000000178
    2    1   12    7        0.0004434739
    2    1   13    7        0.0000000061
    2    1    8    8        0.0000016788
    2    1    9    8        0.0093027851
    2    1   10    8       -0.0006643218
    2    1   11    8        0.0000005700
    2    1   12    8       -0.0002700281
    2    1   13    8        0.0072933423
    2    1    9    9        0.0002871133
    2    1   10    9        0.0002928515
    2    1   11    9        0.0000036940
    2    1   12    9        0.0004457914
    2    1   13    9        0.0000494135
    2    1   10   10        0.0004406440
    2    1   11   10        0.0000005423
    2    1   12   10        0.0000807611
    2    1   13   10        0.0002871042
    2    1   11   11        0.0006191588
    2    1   12   11       -0.0119162008
    2    1   13   11        0.0000025739
    2    1   12   12        0.0027089190
    2    1   13   12        0.0002340188
    2    1   13   13        0.0004343497
    3    1    3    1        0.0022711767
    3    1    4    1       -0.0000000675
    3    1    5    1        0.0000000024
    3    1    6    1       -0.0002829098
    3    1    7    1       -0.0000000005
    3    1    8    1       -0.0000015199
    3    1    9    1       -0.0029589129
    3    1   10    1       -0.0000763380
    3    1   11    1        0.0000006224
    3    1   12    1       -0.0000081713
    3    1   13    1       -0.0035386257
    3    1    2    2        0.0208290607
    3    1    3    2        0.0000034002
    3    1    4    2        0.0000000094
    3    1    5    2       -0.0000000003
    3    1    6    2       -0.0000049384
    3    1    7    2       -0.0000000043
    3    1    8    2       -0.0023700718
    3    1    9    2       -0.0000039441
    3    1   10    2       -0.0000049707
    3    1   11    2       -0.0000005723
    3    1   12    2       -0.0000670545
    3    1   13    2       -0.0000050034
    3    1    3    3        0.0005404698
    3    1    4    3        0.0000034487
    3    1    5    3       -0.0000001083
    3    1    6    3        0.0000620243
    3    1    7    3       -0.0000000001
    3    1    8    3        0.0000082560
    3    1    9    3       -0.0007170209
    3    1   10    3        0.0000272024
    3    1   11    3       -0.0000001595
    3    1   12    3        0.0000003786
    3    1   13    3       -0.0008271824
    3    1    4    4        0.0009171118
    3    1    5    4       -0.0000000007
    3    1    6    4        0.0000010302
    3    1    7    4       -0.0000000601
    3    1    8    4       -0.0000000009
    3    1    9    4       -0.0000006438
    3    1   10    4       -0.0000020326
    3    1   11    4       -0.0009822021
    3    1   12    4       -0.0001908450
    3    1   13    4        0.0000002035
    3    1    5    5        0.0009173509
    3    1    6    5       -0.0000000322
    3    1    7    5       -0.0000019106
    3    1    8    5       -0.0000000000
    3    1    9    5        0.0000000200
    3    1   10    5        0.0000000479
    3    1   11    5       -0.0000033167
    3    1   12    5       -0.0000028839
    3    1   13    5       -0.0000000069
    3    1    6    6        0.0007802485
    3    1    7    6       -0.0000000003
    3    1    8    6       -0.0000030457
    3    1    9    6       -0.0000524732
    3    1   10    6        0.0009463674
    3    1   11    6       -0.0000024856
    3    1   12    6       -0.0000734499
    3    1   13    6       -0.0002893962
    3    1    7    7        0.0002597514
    3    1    8    7        0.0000000010
    3    1    9    7        0.0000000001
    3    1   10    7       -0.0000000003
    3    1   11    7        0.0000001135
    3    1   12    7       -0.0000004653
    3    1   13    7        0.0000000004
    3    1    8    8        0.0005904840
    3    1    9    8       -0.0000004622
    3    1   10    8        0.0000007119
    3    1   11    8        0.0000002000
    3    1   12    8        0.0000125560
    3    1   13    8        0.0000009001
    3    1    9    9        0.0009874473
    3    1   10    9       -0.0001036795
    3    1   11    9        0.0000026940
    3    1   12    9        0.0000061152
    3    1   13    9        0.0012336922
    3    1   10   10        0.0013610247
    3    1   11   10       -0.0000009993
    3    1   12   10       -0.0001035306
    3    1   13   10       -0.0004801146
    3    1   11   11        0.0012559905
    3    1   12   11        0.0001665104
    3    1   13   11        0.0000005889
    3    1   12   12        0.0009572030
    3    1   13   12        0.0000496294
    3    1   13   13        0.0017551779
    4    1    4    1        0.0020928553
    4    1    5    1       -0.0000000022
    4    1    6    1        0.0000002756
    4    1    7    1        0.0000000065
    4    1    8    1       -0.0000000065
    4    1    9    1       -0.0000004973
    4    1   10    1       -0.0000060692
    4    1   11    1       -0.0024397169
    4    1   12    1       -0.0002917018
    4    1   13    1        0.0000003762
    4    1    2    2        0.0000038277
    4    1    3    2        0.0000000059
    4    1    4    2        0.0000008687
    4    1    5    2       -0.0000000004
    4    1    6    2       -0.0000000108
    4    1    7    2       -0.0000000000
    4    1    8    2        0.0000000575
    4    1    9    2       -0.0000000098
    4    1   10    2        0.0000000240
    4    1   11    2       -0.0000379131
    4    1   12    2        0.0019936020
    4    1   13    2       -0.0000001005
    4    1    3    3        0.0000626946
    4    1    4    3       -0.0034940242
    4    1    5    3        0.0000000028
    4    1    6    3        0.0000184653
    4    1    7    3       -0.0000018629
    4    1    8    3       -0.0000000108
    4    1    9    3        0.0000215663
    4    1   10    3       -0.0000000879
    4    1   11    3        0.0007534487
    4    1   12    3        0.0001333783
    4    1   13    3        0.0000267239
    4    1    4    4        0.0000267581
    4    1    5    4       -0.0000006877
    4    1    6    4       -0.0006526180
    4    1    7    4        0.0000922310
    4    1    8    4        0.0000027334
    4    1    9    4        0.0018300176
    4    1   10    4       -0.0004581050
    4    1   11    4        0.0000282737
    4    1   12    4       -0.0000036138
    4    1   13    4        0.0016415037
    4    1    5    5        0.0000234380
    4    1    6    5        0.0000000002
    4    1    7    5        0.0014682055
    4    1    8    5       -0.0000000005
    4    1    9    5       -0.0000000021
    4    1   10    5       -0.0000000013
    4    1   11    5       -0.0000009072
    4    1   12    5        0.0000015473
    4    1   13    5       -0.0000000018
    4    1    6    6        0.0000429927
    4    1    7    6       -0.0000004341
    4    1    8    6       -0.0000000103
    4    1    9    6       -0.0000041304
    4    1   10    6       -0.0000393937
    4    1   11    6        0.0004322539
    4    1   12    6        0.0015684974
    4    1   13    6        0.0000079014
    4    1    7    7        0.0000863920
    4    1    8    7        0.0000000012
    4    1    9    7        0.0000004429
    4    1   10    7       -0.0000008779
    4    1   11    7       -0.0001759889
    4    1   12    7       -0.0001018135
    4    1   13    7       -0.0000014889
    4    1    8    8        0.0000677116
    4    1    9    8       -0.0000000354
    4    1   10    8        0.0000000470
    4    1   11    8       -0.0000617846
    4    1   12    8        0.0033042078
    4    1   13    8       -0.0000001809
    4    1    9    9        0.0000714429
    4    1   10    9       -0.0000229685
    4    1   11    9       -0.0027028112
    4    1   12    9       -0.0003280141
    4    1   13    9       -0.0000241907
    4    1   10   10        0.0000671653
    4    1   11   10        0.0010960529
    4    1   12   10        0.0003132546
    4    1   13   10       -0.0000097213
    4    1   11   11        0.0000487138
    4    1   12   11       -0.0000275059
    4    1   13   11       -0.0017347202
    4    1   12   12        0.0000800154
    4    1   13   12       -0.0004143634
    4    1   13   13        0.0000738973
    5    1    5    1        0.0020934505
    5    1    6    1       -0.0000000085
    5    1    7    1        0.0000002127
    5    1    8    1        0.0000000001
    5    1    9    1        0.0000000145
    5    1   10    1        0.0000001395
    5    1   11    1       -0.0000082445
    5    1   12    1       -0.0000330341
    5    1   13    1       -0.0000000115
    5    1    2    2       -0.0000001180
    5    1    3    2       -0.0000000002
    5    1    4    2       -0.0000000005
    5    1    5    2        0.0000008794
    5    1    6    2        0.0000000004
    5    1    7    2        0.0000000011
    5    1    8    2       -0.0000000033
    5    1    9    2        0.0000000003
    5    1   10    2        0.0000000085
    5    1   11    2       -0.0000007117
    5    1   12    2        0.0002505060
    5    1   13    2       -0.0000000108
    5    1    3    3       -0.0000019668
    5    1    4    3        0.0000000028
    5    1    5    3       -0.0034944954
    5    1    6    3       -0.0000005830
    5    1    7    3       -0.0000593576
    5    1    8    3        0.0000000004
    5    1    9    3       -0.0000006772
    5    1   10    3        0.0000000150
    5    1   11    3        0.0000025478
    5    1   12    3        0.0000018223
    5    1   13    3       -0.0000008384
    5    1    4    4       -0.0000020059
    5    1    5    4       -0.0000185643
    5    1    6    4        0.0000000003
    5    1    7    4        0.0014681044
    5    1    8    4       -0.0000000007
    5    1    9    4       -0.0000000021
    5    1   10    4       -0.0000000035
    5    1   11    4       -0.0000029574
    5    1   12    4       -0.0000015552
    5    1   13    4       -0.0000000017
    5    1    5    5        0.0000004366
    5    1    6    5       -0.0006526632
    5    1    7    5       -0.0000922707
    5    1    8    5        0.0000027490
    5    1    9    5        0.0018305993
    5    1   10    5       -0.0004584045
    5    1   11    5       -0.0000316462
    5    1   12    5        0.0000041814
    5    1   13    5        0.0016419221
    5    1    6    6       -0.0000013524
    5    1    7    6       -0.0000139022
    5    1    8    6        0.0000000004
    5    1    9    6        0.0000001296
    5    1   10    6        0.0000011353
    5    1   11    6        0.0000014610
    5    1   12    6       -0.0002654443
    5    1   13    6       -0.0000002288
    5    1    7    7       -0.0000027101
    5    1    8    7        0.0000000454
    5    1    9    7        0.0000141425
    5    1   10    7       -0.0000254783
    5    1   11    7       -0.0026576750
    5    1   12    7        0.0000817364
    5    1   13    7       -0.0000475832
    5    1    8    8       -0.0000021275
    5    1    9    8        0.0000000010
    5    1   10    8        0.0000000152
    5    1   11    8       -0.0000011752
    5    1   12    8        0.0004168759
    5    1   13    8       -0.0000000177
    5    1    9    9       -0.0000022431
    5    1   10    9        0.0000006670
    5    1   11    9       -0.0000091322
    5    1   12    9       -0.0000359050
    5    1   13    9        0.0000007588
    5    1   10   10       -0.0000020924
    5    1   11   10        0.0000037028
    5    1   12   10       -0.0000174138
    5    1   13   10        0.0000002850
    5    1   11   11       -0.0000047970
    5    1   12   11       -0.0000013139
    5    1   13   11       -0.0000058621
    5    1   12   12        0.0000857894
    5    1   13   12        0.0000135686
    5    1   13   13       -0.0000023245
    6    1    6    1        0.0018092421
    6    1    7    1       -0.0000000006
    6    1    8    1        0.0000026387
    6    1    9    1        0.0003154116
    6    1   10    1        0.0025058568
    6    1   11    1       -0.0000053574
    6    1   12    1       -0.0002016368
    6    1   13    1       -0.0003575677
    6    1    2    2       -0.0017252920
    6    1    3    2       -0.0000033502
    6    1    4    2       -0.0000000103
    6    1    5    2        0.0000000004
    6    1    6    2        0.0000061829
    6    1    7    2        0.0000000016
    6    1    8    2        0.0002871677
    6    1    9    2        0.0000046050
    6    1   10    2        0.0000070834
    6    1   11    2        0.0000000691
    6    1   12    2        0.0000188347
    6    1   13    2        0.0000047601
    6    1    3    3       -0.0006284300
    6    1    4    3       -0.0000020701
    6    1    5    3        0.0000000621
    6    1    6    3       -0.0017360642
    6    1    7    3       -0.0000000001
    6    1    8    3       -0.0000170678
    6    1    9    3        0.0002561198
    6    1   10    3       -0.0005808172
    6    1   11    3        0.0000016206
    6    1   12    3       -0.0000163552
    6    1   13    3        0.0001617993
    6    1    4    4       -0.0011487509
    6    1    5    4        0.0000000005
    6    1    6    4       -0.0000027339
    6    1    7    4        0.0000000788
    6    1    8    4       -0.0000000022
    6    1    9    4       -0.0000000883
    6    1   10    4       -0.0000023328
    6    1   11    4        0.0007306543
    6    1   12    4        0.0010329040
    6    1   13    4       -0.0000004218
    6    1    5    5       -0.0011488334
    6    1    6    5        0.0000000827
    6    1    7    5        0.0000024293
    6    1    8    5        0.0000000001
    6    1    9    5        0.0000000029
    6    1   10    5        0.0000000194
    6    1   11    5        0.0000024680
    6    1   12    5       -0.0001539495
    6    1   13    5        0.0000000248
    6    1    6    6       -0.0001779928
    6    1    7    6        0.0000000014
    6    1    8    6        0.0000070302
    6    1    9    6        0.0016474851
    6    1   10    6        0.0007507640
    6    1   11    6        0.0000021737
    6    1   12    6        0.0000900276
    6    1   13    6        0.0016539653
    6    1    7    7       -0.0010176004
    6    1    8    7       -0.0000000003
    6    1    9    7        0.0000000001
    6    1   10    7        0.0000000006
    6    1   11    7       -0.0000002399
    6    1   12    7        0.0000027243
    6    1   13    7        0.0000000001
    6    1    8    8       -0.0008276869
    6    1    9    8        0.0000022353
    6    1   10    8       -0.0000001099
    6    1   11    8       -0.0000000832
    6    1   12    8        0.0000070792
    6    1   13    8       -0.0000001012
    6    1    9    9       -0.0005625422
    6    1   10    9        0.0017512689
    6    1   11    9       -0.0000048932
    6    1   12    9       -0.0000037866
    6    1   13    9       -0.0003637011
    6    1   10   10        0.0000214387
    6    1   11   10        0.0000013416
    6    1   12   10        0.0000903512
    6    1   13   10        0.0023650131
    6    1   11   11       -0.0016372360
    6    1   12   11       -0.0005076282
    6    1   13   11       -0.0000037169
    6    1   12   12       -0.0008217723
    6    1   13   12       -0.0000703848
    6    1   13   13       -0.0007229108
    7    1    7    1        0.0001377610
    7    1    8    1        0.0000000041
    7    1    9    1        0.0000000007
    7    1   10    1       -0.0000000008
    7    1   11    1        0.0000000016
    7    1   12    1       -0.0000001160
    7    1   13    1        0.0000000012
    7    1    2    2       -0.0000000045
    7    1    3    2       -0.0000000041
    7    1    4    2       -0.0000000000
    7    1    5    2        0.0000000011
    7    1    6    2        0.0000000008
    7    1    7    2        0.0000001077
    7    1    8    2        0.0000000005
    7    1    9    2        0.0000000056
    7    1   10    2        0.0000000032
    7    1   11    2        0.0000000001
    7    1   12    2        0.0000038220
    7    1   13    2        0.0000000067
    7    1    3    3       -0.0000000001
    7    1    4    3       -0.0000001187
    7    1    5    3       -0.0000037854
    7    1    6    3        0.0000000002
    7    1    7    3       -0.0007514053
    7    1    8    3       -0.0000000003
    7    1    9    3        0.0000000001
    7    1   10    3       -0.0000000001
    7    1   11    3       -0.0000000002
    7    1   12    3        0.0000002273
    7    1   13    3        0.0000000001
    7    1    4    4        0.0000160491
    7    1    5    4        0.0002555188
    7    1    6    4       -0.0000000070
    7    1    7    4        0.0000022293
    7    1    8    4        0.0000000001
    7    1    9    4        0.0000000235
    7    1   10    4       -0.0000000363
    7    1   11    4       -0.0000459319
    7    1   12    4       -0.0000268320
    7    1   13    4       -0.0000000011
    7    1    5    5       -0.0000160617
    7    1    6    5       -0.0000002335
    7    1    7    5       -0.0000000697
    7    1    8    5        0.0000000075
    7    1    9    5        0.0000007580
    7    1   10    5       -0.0000005016
    7    1   11    5       -0.0006935948
    7    1   12    5        0.0000238015
    7    1   13    5       -0.0000000682
    7    1    6    6        0.0000000005
    7    1    7    6       -0.0001767875
    7    1    8    6        0.0000000003
    7    1    9    6       -0.0000000002
    7    1   10    6       -0.0000000000
    7    1   11    6       -0.0000000767
    7    1   12    6        0.0000007754
    7    1   13    6       -0.0000000002
    7    1    7    7       -0.0000000000
    7    1    8    7        0.0000009200
    7    1    9    7        0.0005702678
    7    1   10    7       -0.0003711869
    7    1   11    7       -0.0000023487
    7    1   12    7       -0.0000072270
    7    1   13    7       -0.0001086203
    7    1    8    8       -0.0000000002
    7    1    9    8       -0.0000000005
    7    1   10    8        0.0000000160
    7    1   11    8       -0.0000000020
    7    1   12    8        0.0000225905
    7    1   13    8       -0.0000000024
    7    1    9    9       -0.0000000001
    7    1   10    9        0.0000000001
    7    1   11    9       -0.0000000698
    7    1   12    9       -0.0000005868
    7    1   13    9       -0.0000000001
    7    1   10   10        0.0000000003
    7    1   11   10        0.0000000340
    7    1   12   10        0.0000003358
    7    1   13   10       -0.0000000000
    7    1   11   11        0.0000272725
    7    1   12   11        0.0000040462
    7    1   13   11        0.0000000181
    7    1   12   12        0.0000739106
    7    1   13   12       -0.0000006047
    7    1   13   13       -0.0000000000
    8    1    8    1        0.0022018573
    8    1    9    1        0.0000014365
    8    1   10    1        0.0000025052
    8    1   11    1        0.0000005453
    8    1   12    1        0.0000624628
    8    1   13    1        0.0000022701
    8    1    2    2        0.0000006568
    8    1    3    2       -0.0021812796
    8    1    4    2        0.0000005661
    8    1    5    2       -0.0000000181
    8    1    6    2       -0.0001712255
    8    1    7    2        0.0000000007
    8    1    8    2       -0.0000000945
    8    1    9    2        0.0029048484
    8    1   10    2       -0.0006072957
    8    1   11    2        0.0000000065
    8    1   12    2        0.0000697504
    8    1   13    2        0.0037556582
    8    1    3    3        0.0000037916
    8    1    4    3       -0.0000000021
    8    1    5    3        0.0000000003
    8    1    6    3       -0.0000043765
    8    1    7    3        0.0000000009
    8    1    8    3       -0.0000866321
    8    1    9    3        0.0000020754
    8    1   10    3        0.0000021546
    8    1   11    3        0.0000000948
    8    1   12    3        0.0000072004
    8    1   13    3        0.0000014821
    8    1    4    4        0.0000033574
    8    1    5    4        0.0000000000
    8    1    6    4        0.0000000122
    8    1    7    4        0.0000000001
    8    1    8    4        0.0000013759
    8    1    9    4       -0.0000000032
    8    1   10    4        0.0000000014
    8    1   11    4        0.0000005043
    8    1   12    4        0.0000565097
    8    1   13    4        0.0000000002
    8    1    5    5        0.0000033576
    8    1    6    5       -0.0000000004
    8    1    7    5        0.0000000050
    8    1    8    5       -0.0000000442
    8    1    9    5       -0.0000000000
    8    1   10    5        0.0000000002
    8    1   11    5       -0.0000000141
    8    1   12    5        0.0000065047
    8    1   13    5       -0.0000000005
    8    1    6    6        0.0000051327
    8    1    7    6       -0.0000000005
    8    1    8    6       -0.0000206364
    8    1    9    6       -0.0000005978
    8    1   10    6       -0.0000012399
    8    1   11    6       -0.0000000073
    8    1   12    6        0.0000000356
    8    1   13    6       -0.0000018360
    8    1    7    7        0.0000038528
    8    1    8    7       -0.0000000002
    8    1    9    7       -0.0000000014
    8    1   10    7        0.0000000087
    8    1   11    7       -0.0000000004
    8    1   12    7        0.0000122049
    8    1   13    7       -0.0000000017
    8    1    8    8       -0.0000000658
    8    1    9    8       -0.0004366937
    8    1   10    8       -0.0000604024
    8    1   11    8       -0.0000001307
    8    1   12    8       -0.0000079844
    8    1   13    8       -0.0006600491
    8    1    9    9        0.0000038630
    8    1   10    9        0.0000023128
    8    1   11    9       -0.0000000890
    8    1   12    9       -0.0000078962
    8    1   13    9       -0.0000033942
    8    1   10   10        0.0000024296
    8    1   11   10       -0.0000000358
    8    1   12   10       -0.0000041334
    8    1   13   10        0.0000004645
    8    1   11   11       -0.0000125573
    8    1   12   11        0.0004273562
    8    1   13   11       -0.0000001832
    8    1   12   12        0.0000890804
    8    1   13   12       -0.0000199301
    8    1   13   13        0.0000047184
    9    1    9    1        0.0039102014
    9    1   10    1        0.0000208896
    9    1   11    1       -0.0000000929
    9    1   12    1        0.0000202813
    9    1   13    1        0.0047670281
    9    1    2    2       -0.0259407444
    9    1    3    2       -0.0000038559
    9    1    4    2       -0.0000000145
    9    1    5    2        0.0000000005
    9    1    6    2        0.0000066479
    9    1    7    2        0.0000000058
    9    1    8    2        0.0030873950
    9    1    9    2        0.0000045408
    9    1   10    2        0.0000070074
    9    1   11    2        0.0000007683
    9    1   12    2        0.0000876750
    9    1   13    2        0.0000058130
    9    1    3    3       -0.0005719481
    9    1    4    3       -0.0000005506
    9    1    5    3        0.0000000185
    9    1    6    3       -0.0000926517
    9    1    7    3        0.0000000001
    9    1    8    3       -0.0000091009
    9    1    9    3        0.0006775229
    9    1   10    3       -0.0000695557
    9    1   11    3        0.0000004809
    9    1   12    3       -0.0000007873
    9    1   13    3        0.0008923945
    9    1    4    4       -0.0008039499
    9    1    5    4        0.0000000009
    9    1    6    4       -0.0000008634
    9    1    7    4        0.0000000277
    9    1    8    4       -0.0000000116
    9    1    9    4        0.0000003507
    9    1   10    4        0.0000015168
    9    1   11    4        0.0008514430
    9    1   12    4        0.0001865900
    9    1   13    4       -0.0000006025
    9    1    5    5       -0.0008041446
    9    1    6    5        0.0000000270
    9    1    7    5        0.0000008972
    9    1    8    5        0.0000000004
    9    1    9    5       -0.0000000116
    9    1   10    5       -0.0000000352
    9    1   11    5        0.0000028747
    9    1   12    5       -0.0000004692
    9    1   13    5        0.0000000188
    9    1    6    6       -0.0005641304
    9    1    7    6        0.0000000003
    9    1    8    6        0.0000036122
    9    1    9    6        0.0000978851
    9    1   10    6       -0.0007068207
    9    1   11    6        0.0000022229
    9    1   12    6        0.0000770514
    9    1   13    6        0.0003403235
    9    1    7    7       -0.0001481685
    9    1    8    7       -0.0000000012
    9    1    9    7       -0.0000000002
    9    1   10    7        0.0000000006
    9    1   11    7       -0.0000000444
    9    1   12    7        0.0000004502
    9    1   13    7       -0.0000000003
    9    1    8    8       -0.0006673668
    9    1    9    8        0.0000013803
    9    1   10    8       -0.0000002773
    9    1   11    8       -0.0000001564
    9    1   12    8       -0.0000154476
    9    1   13    8       -0.0000005167
    9    1    9    9       -0.0010384240
    9    1   10    9        0.0001904122
    9    1   11    9       -0.0000006655
    9    1   12    9       -0.0000048023
    9    1   13    9       -0.0012785376
    9    1   10   10       -0.0011649936
    9    1   11   10        0.0000003479
    9    1   12   10        0.0001102375
    9    1   13   10        0.0006298153
    9    1   11   11       -0.0011763069
    9    1   12   11       -0.0001678325
    9    1   13   11       -0.0000004037
    9    1   12   12       -0.0008809161
    9    1   13   12       -0.0000483387
    9    1   13   13       -0.0018695353
   10    1   10    1        0.0035818858
   10    1   11    1        0.0000001276
   10    1   12    1       -0.0002956152
   10    1   13    1       -0.0010448876
   10    1    2    2        0.0007108820
   10    1    3    2       -0.0000030361
   10    1    4    2        0.0000000147
   10    1    5    2        0.0000000063
   10    1    6    2        0.0000063623
   10    1    7    2        0.0000000038
   10    1    8    2        0.0000460738
   10    1    9    2        0.0000044404
   10    1   10    2        0.0000075913
   10    1   11    2        0.0000000963
   10    1   12    2        0.0000102461
   10    1   13    2        0.0000046326
   10    1    3    3       -0.0006596561
   10    1    4    3        0.0000055876
   10    1    5    3       -0.0000001062
   10    1    6    3       -0.0019015982
   10    1    7    3        0.0000000007
   10    1    8    3       -0.0000148484
   10    1    9    3        0.0002141323
   10    1   10    3       -0.0008312806
   10    1   11    3       -0.0000003749
   10    1   12    3       -0.0000201975
   10    1   13    3        0.0000500301
   10    1    4    4       -0.0013153612
   10    1    5    4        0.0000000009
   10    1    6    4       -0.0000027825
   10    1    7    4       -0.0000000670
   10    1    8    4        0.0000000147
   10    1    9    4       -0.0000050877
   10    1   10    4       -0.0000013443
   10    1   11    4        0.0008887467
   10    1   12    4        0.0011622162
   10    1   13    4       -0.0000052762
   10    1    5    5       -0.0013154771
   10    1    6    5        0.0000000733
   10    1    7    5       -0.0000009483
   10    1    8    5        0.0000000076
   10    1    9    5        0.0000001179
   10    1   10    5       -0.0000000163
   10    1   11    5        0.0000030034
   10    1   12    5       -0.0001720780
   10    1   13    5        0.0000001449
   10    1    6    6       -0.0000102941
   10    1    7    6        0.0000000017
   10    1    8    6        0.0000064973
   10    1    9    6        0.0020151647
   10    1   10    6        0.0009795067
   10    1   11    6        0.0000014737
   10    1   12    6        0.0001032942
   10    1   13    6        0.0021823060
   10    1    7    7       -0.0012279307
   10    1    8    7        0.0000000108
   10    1    9    7        0.0000000002
   10    1   10    7        0.0000000015
   10    1   11    7        0.0000000075
   10    1   12    7        0.0000030641
   10    1   13    7        0.0000000012
   10    1    8    8       -0.0008986726
   10    1    9    8        0.0000029171
   10    1   10    8        0.0000006692
   10    1   11    8        0.0000000365
   10    1   12    8        0.0000001826
   10    1   13    8        0.0000006817
   10    1    9    9       -0.0005128534
   10    1   10    9        0.0021297090
   10    1   11    9        0.0000007648
   10    1   12    9       -0.0000049458
   10    1   13    9       -0.0002121727
   10    1   10   10        0.0003324488
   10    1   11   10       -0.0000009039
   10    1   12   10        0.0001122368
   10    1   13   10        0.0029170940
   10    1   11   11       -0.0019516920
   10    1   12   11       -0.0006615927
   10    1   13   11       -0.0000001359
   10    1   12   12       -0.0008921365
   10    1   13   12       -0.0000868501
   10    1   13   13       -0.0007268429
   11    1   11    1        0.0029236584
   11    1   12    1        0.0003345739
   11    1   13    1        0.0000007198
   11    1    2    2       -0.0000009659
   11    1    3    2       -0.0000005385
   11    1    4    2       -0.0000278377
   11    1    5    2       -0.0000005226
   11    1    6    2       -0.0000000301
   11    1    7    2        0.0000000004
   11    1    8    2       -0.0000005976
   11    1    9    2        0.0000007330
   11    1   10    2       -0.0000000863
   11    1   11    2        0.0000750139
   11    1   12    2       -0.0023032432
   11    1   13    2        0.0000010381
   11    1    3    3       -0.0000597261
   11    1    4    3        0.0033682722
   11    1    5    3        0.0000113857
   11    1    6    3       -0.0000146177
   11    1    7    3        0.0000020484
   11    1    8    3        0.0000003206
   11    1    9    3       -0.0000187976
   11    1   10    3        0.0000002438
   11    1   11    3       -0.0010686460
   11    1   12    3       -0.0001280459
   11    1   13    3       -0.0000274866
   11    1    4    4       -0.0000220109
   11    1    5    4        0.0000006082
   11    1    6    4        0.0007774026
   11    1    7    4       -0.0001156214
   11    1    8    4       -0.0000337633
   11    1    9    4       -0.0020129960
   11    1   10    4        0.0006338090
   11    1   11    4       -0.0000280959
   11    1   12    4       -0.0000058943
   11    1   13    4       -0.0018313183
   11    1    5    5       -0.0000225366
   11    1    6    5        0.0000026240
   11    1    7    5       -0.0017461651
   11    1    8    5       -0.0000006299
   11    1    9    5       -0.0000068020
   11    1   10    5        0.0000021433
   11    1   11    5        0.0000008808
   11    1   12    5       -0.0000014388
   11    1   13    5       -0.0000061890
   11    1    6    6       -0.0000412983
   11    1    7    6        0.0000004763
   11    1    8    6        0.0000000014
   11    1    9    6        0.0000008475
   11    1   10    6        0.0000355137
   11    1   11    6       -0.0006493439
   11    1   12    6       -0.0015526089
   11    1   13    6       -0.0000115581
   11    1    7    7       -0.0000849063
   11    1    8    7       -0.0000000171
   11    1    9    7       -0.0000005261
   11    1   10    7        0.0000009605
   11    1   11    7        0.0001900913
   11    1   12    7        0.0000942011
   11    1   13    7        0.0000016581
   11    1    8    8       -0.0000641562
   11    1    9    8        0.0000000612
   11    1   10    8        0.0000000293
   11    1   11    8        0.0000703999
   11    1   12    8       -0.0031874098
   11    1   13    8        0.0000001904
   11    1    9    9       -0.0000663029
   11    1   10    9        0.0000184719
   11    1   11    9        0.0028346199
   11    1   12    9        0.0003340901
   11    1   13    9        0.0000234414
   11    1   10   10       -0.0000642474
   11    1   11   10       -0.0013321083
   11    1   12   10       -0.0004214360
   11    1   13   10        0.0000024888
   11    1   11   11       -0.0000431618
   11    1   12   11        0.0000377573
   11    1   13   11        0.0019675398
   11    1   12   12       -0.0000696812
   11    1   13   12        0.0004829739
   11    1   13   13       -0.0000696653
   12    1   12    1        0.0016847116
   12    1   13    1        0.0001234585
   12    1    2    2       -0.0002445913
   12    1    3    2       -0.0000620961
   12    1    4    2        0.0014643358
   12    1    5    2        0.0001838920
   12    1    6    2        0.0000056328
   12    1    7    2        0.0000029502
   12    1    8    2        0.0000089295
   12    1    9    2        0.0000833134
   12    1   10    2       -0.0000073490
   12    1   11    2       -0.0016884013
   12    1   12    2       -0.0002771591
   12    1   13    2        0.0001057826
   12    1    3    3        0.0000166749
   12    1    4    3        0.0003657254
   12    1    5    3        0.0000486319
   12    1    6    3        0.0000968452
   12    1    7    3        0.0000014206
   12    1    8    3       -0.0000228671
   12    1    9    3       -0.0000116146
   12    1   10    3        0.0000372344
   12    1   11    3       -0.0000612636
   12    1   12    3       -0.0017514767
   12    1   13    3       -0.0000098686
   12    1    4    4        0.0000613091
   12    1    5    4        0.0000002453
   12    1    6    4        0.0004829756
   12    1    7    4       -0.0000428192
   12    1    8    4        0.0017644205
   12    1    9    4       -0.0002402624
   12    1   10    4        0.0002492424
   12    1   11    4       -0.0000599785
   12    1   12    4       -0.0000321838
   12    1   13    4       -0.0002836922
   12    1    5    5        0.0000616933
   12    1    6    5       -0.0000540774
   12    1    7    5       -0.0001448923
   12    1    8    5        0.0002211659
   12    1    9    5       -0.0000270873
   12    1   10    5       -0.0000217829
   12    1   11    5        0.0000006831
   12    1   12    5        0.0000441093
   12    1   13    5       -0.0000126419
   12    1    6    6        0.0000209649
   12    1    7    6        0.0000006332
   12    1    8    6        0.0000053420
   12    1    9    6       -0.0001089566
   12    1   10    6       -0.0000119601
   12    1   11    6       -0.0002878065
   12    1   12    6        0.0002158844
   12    1   13    6       -0.0001324752
   12    1    7    7        0.0000409774
   12    1    8    7        0.0000178252
   12    1    9    7       -0.0000006646
   12    1   10    7        0.0000008852
   12    1   11    7        0.0000533887
   12    1   12    7        0.0002331094
   12    1   13    7        0.0000006823
   12    1    8    8        0.0000135374
   12    1    9    8       -0.0000157952
   12    1   10    8       -0.0000049792
   12    1   11    8       -0.0005572571
   12    1   12    8       -0.0002517452
   12    1   13    8       -0.0000257982
   12    1    9    9        0.0000156625
   12    1   10    9       -0.0001055083
   12    1   11    9        0.0002980989
   12    1   12    9        0.0011102313
   12    1   13    9        0.0000233411
   12    1   10   10        0.0000155120
   12    1   11   10       -0.0004164976
   12    1   12   10        0.0000210760
   12    1   13   10       -0.0001703543
   12    1   11   11        0.0001042169
   12    1   12   11        0.0000390361
   12    1   13   11        0.0003331098
   12    1   12   12       -0.0000781405
   12    1   13   12        0.0008338403
   12    1   13   13        0.0000496278
   13    1   13    1        0.0062470894
   13    1    2    2       -0.0303881357
   13    1    3    2       -0.0000051288
   13    1    4    2       -0.0000000834
   13    1    5    2       -0.0000000076
   13    1    6    2        0.0000076563
   13    1    7    2        0.0000000066
   13    1    8    2        0.0036984792
   13    1    9    2        0.0000062133
   13    1   10    2        0.0000080700
   13    1   11    2        0.0000009902
   13    1   12    2        0.0001030221
   13    1   13    2        0.0000080413
   13    1    3    3       -0.0004835527
   13    1    4    3        0.0000016200
   13    1    5    3       -0.0000000507
   13    1    6    3        0.0002817836
   13    1    7    3        0.0000000002
   13    1    8    3       -0.0000090337
   13    1    9    3        0.0006732584
   13    1   10    3       -0.0000150475
   13    1   11    3       -0.0000001915
   13    1   12    3        0.0000013126
   13    1   13    3        0.0008302493
   13    1    4    4       -0.0003507840
   13    1    5    4        0.0000000004
   13    1    6    4       -0.0000000252
   13    1    7    4       -0.0000000319
   13    1    8    4       -0.0000000945
   13    1    9    4        0.0000000818
   13    1   10    4        0.0000013161
   13    1   11    4        0.0004881142
   13    1   12    4       -0.0000988200
   13    1   13    4        0.0000000720
   13    1    5    5       -0.0003509219
   13    1    6    5        0.0000000055
   13    1    7    5       -0.0000010262
   13    1    8    5       -0.0000000093
   13    1    9    5       -0.0000000025
   13    1   10    5       -0.0000000168
   13    1   11    5        0.0000016456
   13    1   12    5        0.0000380459
   13    1   13    5       -0.0000000056
   13    1    6    6       -0.0002401347
   13    1    7    6        0.0000000001
   13    1    8    6        0.0000036710
   13    1    9    6       -0.0002621414
   13    1   10    6       -0.0005129219
   13    1   11    6        0.0000011673
   13    1   12    6        0.0000439322
   13    1   13    6       -0.0000674500
   13    1    7    7        0.0000075700
   13    1    8    7       -0.0000000023
   13    1    9    7       -0.0000000002
   13    1   10    7        0.0000000006
   13    1   11    7        0.0000000646
   13    1   12    7       -0.0000001087
   13    1   13    7       -0.0000000003
   13    1    8    8       -0.0006001841
   13    1    9    8        0.0000012982
   13    1   10    8        0.0000000259
   13    1   11    8       -0.0000001071
   13    1   12    8       -0.0000216389
   13    1   13    8       -0.0000003643
   13    1    9    9       -0.0009255847
   13    1   10    9       -0.0001162372
   13    1   11    9        0.0000015108
   13    1   12    9        0.0000019663
   13    1   13    9       -0.0011903508
   13    1   10   10       -0.0007523110
   13    1   11   10       -0.0000005405
   13    1   12   10        0.0000736434
   13    1   13   10        0.0000403540
   13    1   11   11       -0.0005863166
   13    1   12   11        0.0000220189
   13    1   13   11        0.0000001125
   13    1   12   12       -0.0006077502
   13    1   13   12       -0.0000163915
   13    1   13   13       -0.0017041420
    2    2    2    2        0.3266597256
    2    2    3    2        0.0000169821
    2    2    4    2        0.0000000565
    2    2    5    2       -0.0000000018
    2    2    6    2       -0.0000267399
    2    2    7    2       -0.0000000338
    2    2    8    2       -0.0215765971
    2    2    9    2       -0.0000150356
    2    2   10    2       -0.0000228864
    2    2   11    2       -0.0000050193
    2    2   12    2       -0.0005731439
    2    2   13    2       -0.0000230162
    2    2    3    3        0.0996200632
    2    2    4    3       -0.0000022732
    2    2    5    3        0.0000000681
    2    2    6    3        0.0006536288
    2    2    7    3       -0.0000000005
    2    2    8    3       -0.0000012057
    2    2    9    3       -0.0221594409
    2    2   10    3       -0.0008771708
    2    2   11    3        0.0000001997
    2    2   12    3        0.0000943448
    2    2   13    3       -0.0139385167
    2    2    4    4        0.1160039305
    2    2    5    4       -0.0000000238
    2    2    6    4        0.0000094350
    2    2    7    4       -0.0000001670
    2    2    8    4       -0.0000000232
    2    2    9    4       -0.0000026722
    2    2   10    4       -0.0000646724
    2    2   11    4       -0.0265292286
    2    2   12    4       -0.0038205801
    2    2   13    4        0.0000098170
    2    2    5    5        0.1160103743
    2    2    6    5       -0.0000002918
    2    2    7    5       -0.0000052686
    2    2    8    5       -0.0000000009
    2    2    9    5        0.0000000749
    2    2   10    5        0.0000015201
    2    2   11    5       -0.0000896528
    2    2   12    5       -0.0002455813
    2    2   13    5       -0.0000003137
    2    2    6    6        0.1116387499
    2    2    7    6       -0.0000000052
    2    2    8    6        0.0000044917
    2    2    9    6        0.0009844411
    2    2   10    6        0.0274194180
    2    2   11    6       -0.0000622873
    2    2   12    6       -0.0010381368
    2    2   13    6       -0.0042659700
    2    2    7    7        0.1003440690
    2    2    8    7        0.0000000074
    2    2    9    7        0.0000000024
    2    2   10    7        0.0000000030
    2    2   11    7        0.0000007525
    2    2   12    7       -0.0000139427
    2    2   13    7        0.0000000056
    2    2    8    8        0.1015134552
    2    2    9    8        0.0000022807
    2    2   10    8        0.0000069527
    2    2   11    8        0.0000038369
    2    2   12    8        0.0004522333
    2    2   13    8        0.0000092902
    2    2    9    9        0.1017189293
    2    2   10    9       -0.0002425229
    2    2   11    9        0.0000007357
    2    2   12    9        0.0000193144
    2    2   13    9        0.0271209496
    2    2   10   10        0.1161831508
    2    2   11   10       -0.0000000007
    2    2   12   10       -0.0016528126
    2    2   13   10       -0.0018255807
    2    2   11   11        0.1159806746
    2    2   12   11        0.0019162337
    2    2   13   11        0.0000009238
    2    2   12   12        0.1181033123
    2    2   13   12        0.0009258042
    2    2   13   13        0.1143602114
    3    2    3    2        0.0021728637
    3    2    4    2       -0.0000005150
    3    2    5    2        0.0000000157
    3    2    6    2        0.0001279591
    3    2    7    2       -0.0000000007
    3    2    8    2       -0.0000016352
    3    2    9    2       -0.0028954047
    3    2   10    2        0.0005524641
    3    2   11    2        0.0000000514
    3    2   12    2       -0.0000702785
    3    2   13    2       -0.0037423342
    3    2    3    3       -0.0000055565
    3    2    4    3        0.0000000011
    3    2    5    3       -0.0000000001
    3    2    6    3        0.0000091751
    3    2    7    3       -0.0000000010
    3    2    8    3        0.0001100371
    3    2    9    3       -0.0000021603
    3    2   10    3       -0.0000007463
    3    2   11    3       -0.0000000934
    3    2   12    3       -0.0000065808
    3    2   13    3       -0.0000014694
    3    2    4    4       -0.0000042702
    3    2    5    4        0.0000000000
    3    2    6    4       -0.0000000039
    3    2    7    4       -0.0000000003
    3    2    8    4       -0.0000013368
    3    2    9    4        0.0000000098
    3    2   10    4        0.0000000074
    3    2   11    4       -0.0000018517
    3    2   12    4       -0.0000527942
    3    2   13    4        0.0000000053
    3    2    5    5       -0.0000042703
    3    2    6    5        0.0000000001
    3    2    7    5       -0.0000000092
    3    2    8    5        0.0000000421
    3    2    9    5       -0.0000000003
    3    2   10    5       -0.0000000002
    3    2   11    5        0.0000000078
    3    2   12    5       -0.0000054194
    3    2   13    5        0.0000000001
    3    2    6    6       -0.0000108928
    3    2    7    6        0.0000000005
    3    2    8    6       -0.0000529713
    3    2    9    6       -0.0000028574
    3    2   10    6       -0.0000023702
    3    2   11    6       -0.0000000109
    3    2   12    6       -0.0000023395
    3    2   13    6       -0.0000012874
    3    2    7    7       -0.0000049438
    3    2    8    7        0.0000000002
    3    2    9    7        0.0000000014
    3    2   10    7       -0.0000000090
    3    2   11    7        0.0000000010
    3    2   12    7       -0.0000123674
    3    2   13    7        0.0000000015
    3    2    8    8        0.0000013833
    3    2    9    8        0.0004520778
    3    2   10    8        0.0000314462
    3    2   11    8        0.0000001268
    3    2   12    8        0.0000065433
    3    2   13    8        0.0006673303
    3    2    9    9       -0.0000060737
    3    2   10    9       -0.0000071378
    3    2   11    9        0.0000000886
    3    2   12    9        0.0000068097
    3    2   13    9        0.0000033319
    3    2   10   10       -0.0000075520
    3    2   11   10        0.0000000200
    3    2   12   10        0.0000020766
    3    2   13   10       -0.0000059807
    3    2   11   11        0.0000140177
    3    2   12   11       -0.0004633064
    3    2   13   11        0.0000001845
    3    2   12   12       -0.0001637240
    3    2   13   12        0.0000198207
    3    2   13   13       -0.0000083006
    4    2    4    2        0.0013999671
    4    2    5    2       -0.0000000015
    4    2    6    2       -0.0000001548
    4    2    7    2       -0.0000000053
    4    2    8    2       -0.0000000070
    4    2    9    2        0.0000001856
    4    2   10    2       -0.0000048095
    4    2   11    2       -0.0016090372
    4    2   12    2       -0.0000492710
    4    2   13    2        0.0000009609
    4    2    3    3        0.0000001572
    4    2    4    3       -0.0000149690
    4    2    5    3        0.0000000007
    4    2    6    3       -0.0000000802
    4    2    7    3       -0.0000000073
    4    2    8    3       -0.0000142423
    4    2    9    3        0.0000002411
    4    2   10    3        0.0000002182
    4    2   11    3        0.0000284188
    4    2   12    3       -0.0015842809
    4    2   13    3        0.0000001752
    4    2    4    4       -0.0000000801
    4    2    5    4       -0.0000000012
    4    2    6    4        0.0000189669
    4    2    7    4        0.0000003119
    4    2    8    4        0.0017660160
    4    2    9    4        0.0000019786
    4    2   10    4        0.0000026042
    4    2   11    4        0.0000003672
    4    2   12    4        0.0000274501
    4    2   13    4        0.0000027836
    4    2    5    5       -0.0000000032
    4    2    6    5       -0.0000000000
    4    2    7    5        0.0000049618
    4    2    8    5       -0.0000000009
    4    2    9    5       -0.0000000004
    4    2   10    5        0.0000000159
    4    2   11    5       -0.0000000009
    4    2   12    5        0.0000220267
    4    2   13    5       -0.0000000019
    4    2    6    6        0.0000000511
    4    2    7    6        0.0000000065
    4    2    8    6       -0.0000001411
    4    2    9    6       -0.0000002033
    4    2   10    6       -0.0000002837
    4    2   11    6       -0.0000108044
    4    2   12    6        0.0004206168
    4    2   13    6       -0.0000002231
    4    2    7    7        0.0000002517
    4    2    8    7        0.0000005974
    4    2    9    7       -0.0000000028
    4    2   10    7       -0.0000000036
    4    2   11    7       -0.0000016150
    4    2   12    7        0.0001375547
    4    2   13    7       -0.0000000164
    4    2    8    8        0.0000000258
    4    2    9    8       -0.0000087397
    4    2   10    8       -0.0000048279
    4    2   11    8       -0.0005386487
    4    2   12    8        0.0001177409
    4    2   13    8       -0.0000098798
    4    2    9    9        0.0000003344
    4    2   10    9        0.0000000956
    4    2   11    9       -0.0000277847
    4    2   12    9        0.0009359084
    4    2   13    9       -0.0000003657
    4    2   10   10        0.0000000579
    4    2   11   10       -0.0000094719
    4    2   12   10        0.0000649519
    4    2   13   10       -0.0000000209
    4    2   11   11       -0.0000006835
    4    2   12   11       -0.0000199361
    4    2   13   11       -0.0000114364
    4    2   12   12       -0.0000996811
    4    2   13   12        0.0006624994
    4    2   13   13        0.0000005056
    5    2    5    2        0.0014003756
    5    2    6    2        0.0000000044
    5    2    7    2       -0.0000001659
    5    2    8    2        0.0000000001
    5    2    9    2       -0.0000000060
    5    2   10    2        0.0000001064
    5    2   11    2       -0.0000054367
    5    2   12    2       -0.0000474348
    5    2   13    2       -0.0000000275
    5    2    3    3       -0.0000000050
    5    2    4    3        0.0000000005
    5    2    5    3       -0.0000149859
    5    2    6    3        0.0000000026
    5    2    7    3       -0.0000002337
    5    2    8    3        0.0000004519
    5    2    9    3       -0.0000000076
    5    2   10    3       -0.0000000140
    5    2   11    3        0.0000005569
    5    2   12    3       -0.0001970054
    5    2   13    3        0.0000000055
    5    2    4    4       -0.0000000047
    5    2    5    4       -0.0000001147
    5    2    6    4       -0.0000000001
    5    2    7    4        0.0000049628
    5    2    8    4       -0.0000000009
    5    2    9    4       -0.0000000003
    5    2   10    4        0.0000000158
    5    2   11    4       -0.0000000039
    5    2   12    4        0.0000210700
    5    2   13    4       -0.0000000018
    5    2    5    5        0.0000000072
    5    2    6    5        0.0000189708
    5    2    7    5       -0.0000003114
    5    2    8    5        0.0017662950
    5    2    9    5        0.0000019879
    5    2   10    5        0.0000026026
    5    2   11    5        0.0000001746
    5    2   12    5        0.0000201936
    5    2   13    5        0.0000027899
    5    2    6    6       -0.0000000017
    5    2    7    6        0.0000002081
    5    2    8    6        0.0000000058
    5    2    9    6        0.0000000063
    5    2   10    6        0.0000000098
    5    2   11    6       -0.0000001560
    5    2   12    6        0.0000490141
    5    2   13    6        0.0000000043
    5    2    7    7       -0.0000000083
    5    2    8    7        0.0000190499
    5    2    9    7       -0.0000000848
    5    2   10    7       -0.0000002232
    5    2   11    7       -0.0000211550
    5    2   12    7        0.0007280155
    5    2   13    7       -0.0000003610
    5    2    8    8       -0.0000000009
    5    2    9    8        0.0000002723
    5    2   10    8        0.0000001283
    5    2   11    8       -0.0000018204
    5    2   12    8       -0.0000396829
    5    2   13    8        0.0000003114
    5    2    9    9       -0.0000000106
    5    2   10    9        0.0000000009
    5    2   11    9       -0.0000003673
    5    2   12    9        0.0001167372
    5    2   13    9        0.0000000050
    5    2   10   10       -0.0000000026
    5    2   11   10       -0.0000000764
    5    2   12   10        0.0000069330
    5    2   13   10        0.0000000028
    5    2   11   11        0.0000000119
    5    2   12   11       -0.0000382905
    5    2   13   11       -0.0000002294
    5    2   12   12       -0.0000115033
    5    2   13   12        0.0000824324
    5    2   13   13       -0.0000000252
    6    2    6    2        0.0014610757
    6    2    7    2       -0.0000000004
    6    2    8    2        0.0000031229
    6    2    9    2       -0.0000828572
    6    2   10    2        0.0020389575
    6    2   11    2       -0.0000038199
    6    2   12    2       -0.0001592239
    6    2   13    2       -0.0005311543
    6    2    3    3        0.0000395094
    6    2    4    3        0.0000000911
    6    2    5    3       -0.0000000029
    6    2    6    3       -0.0000584385
    6    2    7    3        0.0000000001
    6    2    8    3       -0.0019934516
    6    2    9    3       -0.0000056564
    6    2   10    3       -0.0000123470
    6    2   11    3       -0.0000001401
    6    2   12    3       -0.0000288400
    6    2   13    3       -0.0000077301
    6    2    4    4        0.0000353310
    6    2    5    4       -0.0000000006
    6    2    6    4       -0.0000000775
    6    2    7    4        0.0000000004
    6    2    8    4        0.0000017981
    6    2    9    4       -0.0000000742
    6    2   10    4       -0.0000000482
    6    2   11    4       -0.0000421978
    6    2   12    4        0.0024747119
    6    2   13    4       -0.0000001709
    6    2    5    5        0.0000353475
    6    2    6    5        0.0000000024
    6    2    7    5        0.0000000106
    6    2    8    5       -0.0000000564
    6    2    9    5        0.0000000024
    6    2   10    5        0.0000000112
    6    2   11    5       -0.0000008593
    6    2   12    5        0.0003036919
    6    2   13    5       -0.0000000115
    6    2    6    6        0.0000909823
    6    2    7    6        0.0000000009
    6    2    8    6        0.0008717846
    6    2    9    6        0.0000362726
    6    2   10    6        0.0000496212
    6    2   11    6        0.0000001733
    6    2   12    6        0.0000434355
    6    2   13    6        0.0000299674
    6    2    7    7        0.0000305596
    6    2    8    7       -0.0000000003
    6    2    9    7        0.0000000003
    6    2   10    7        0.0000000422
    6    2   11    7       -0.0000000009
    6    2   12    7        0.0000538564
    6    2   13    7        0.0000000003
    6    2    8    8       -0.0000020952
    6    2    9    8        0.0006335170
    6    2   10    8        0.0000947357
    6    2   11    8       -0.0000011505
    6    2   12    8       -0.0000251304
    6    2   13    8        0.0002816765
    6    2    9    9        0.0000489133
    6    2   10    9        0.0000569241
    6    2   11    9        0.0000003090
    6    2   12    9        0.0000482761
    6    2   13    9        0.0000105396
    6    2   10   10        0.0000837642
    6    2   11   10        0.0000001262
    6    2   12   10        0.0000200608
    6    2   13   10        0.0000588910
    6    2   11   11        0.0000586386
    6    2   12   11       -0.0008594774
    6    2   13   11        0.0000001242
    6    2   12   12        0.0008882243
    6    2   13   12        0.0000143018
    6    2   13   13        0.0000744576
    7    2    7    2        0.0000962614
    7    2    8    2        0.0000000045
    7    2    9    2        0.0000000010
    7    2   10    2       -0.0000000006
    7    2   11    2        0.0000000112
    7    2   12    2       -0.0000000234
    7    2   13    2        0.0000000014
    7    2    3    3       -0.0000000008
    7    2    4    3       -0.0000000006
    7    2    5    3       -0.0000000220
    7    2    6    3       -0.0000000010
    7    2    7    3       -0.0000034050
    7    2    8    3        0.0000000008
    7    2    9    3        0.0000000009
    7    2   10    3       -0.0000000105
    7    2   11    3        0.0000000005
    7    2   12    3       -0.0000139546
    7    2   13    3        0.0000000019
    7    2    4    4        0.0000000369
    7    2    5    4        0.0000006030
    7    2    6    4        0.0000000006
    7    2    7    4        0.0000000022
    7    2    8    4        0.0000000439
    7    2    9    4       -0.0000000002
    7    2   10    4        0.0000000007
    7    2   11    4       -0.0000004362
    7    2   12    4        0.0000367511
    7    2   13    4       -0.0000000018
    7    2    5    5       -0.0000000387
    7    2    6    5        0.0000000199
    7    2    7    5       -0.0000000002
    7    2    8    5        0.0000014046
    7    2    9    5       -0.0000000036
    7    2   10    5       -0.0000000031
    7    2   11    5       -0.0000057352
    7    2   12    5        0.0001946031
    7    2   13    5       -0.0000000124
    7    2    6    6       -0.0000000001
    7    2    7    6        0.0000038086
    7    2    8    6       -0.0000000002
    7    2    9    6        0.0000000012
    7    2   10    6        0.0000000011
    7    2   11    6       -0.0000000008
    7    2   12    6        0.0000013625
    7    2   13    6        0.0000000014
    7    2    7    7       -0.0000000024
    7    2    8    7        0.0005072557
    7    2    9    7        0.0000007113
    7    2   10    7       -0.0000013730
    7    2   11    7        0.0000000446
    7    2   12    7        0.0000096174
    7    2   13    7       -0.0000034135
    7    2    8    8       -0.0000000010
    7    2    9    8       -0.0000000004
    7    2   10    8        0.0000000001
    7    2   11    8       -0.0000000059
    7    2   12    8        0.0000000053
    7    2   13    8       -0.0000000003
    7    2    9    9       -0.0000000012
    7    2   10    9        0.0000000081
    7    2   11    9       -0.0000000001
[...]
   10    7   10   10        0.0000000001
   10    7   11   10       -0.0000009014
   10    7   12   10       -0.0000009468
   10    7   13   10        0.0000000021
   10    7   11   11       -0.0000056440
   10    7   12   11        0.0000123044
   10    7   13   11       -0.0000000945
   10    7   12   12       -0.0001173062
   10    7   13   12        0.0000033671
   10    7   13   13       -0.0000000010
   11    7   11    7        0.0095624049
   11    7   12    7       -0.0004943396
   11    7   13    7        0.0001968328
   11    7    8    8       -0.0000092261
   11    7    9    8        0.0000000281
   11    7   10    8       -0.0000000323
   11    7   11    8        0.0000210744
   11    7   12    8       -0.0021097446
   11    7   13    8        0.0000001458
   11    7    9    9       -0.0000103422
   11    7   10    9        0.0000026761
   11    7   11    9        0.0005741040
   11    7   12    9        0.0001576545
   11    7   13    9        0.0000042016
   11    7   10   10       -0.0000096494
   11    7   11   10       -0.0001553000
   11    7   12   10       -0.0001283490
   11    7   13   10        0.0000004276
   11    7   11   11        0.0000066256
   11    7   12   11        0.0000112870
   11    7   13   11        0.0002204860
   11    7   12   12       -0.0001743036
   11    7   13   12        0.0000201544
   11    7   13   13       -0.0000107334
   12    7   12    7        0.0037552309
   12    7   13    7       -0.0000190939
   12    7    8    8       -0.0000203844
   12    7    9    8        0.0000727925
   12    7   10    8       -0.0000939406
   12    7   11    8       -0.0005344336
   12    7   12    8       -0.0004797118
   12    7   13    8       -0.0000830098
   12    7    9    9       -0.0000138182
   12    7   10    9        0.0000161428
   12    7   11    9        0.0002994381
   12    7   12    9        0.0004606828
   12    7   13    9       -0.0000012723
   12    7   10   10       -0.0000120084
   12    7   11   10       -0.0000760200
   12    7   12   10       -0.0000181418
   12    7   13   10        0.0000130034
   12    7   11   11       -0.0000128571
   12    7   12   11       -0.0000873534
   12    7   13   11        0.0000800119
   12    7   12   12        0.0000127677
   12    7   13   12        0.0001424026
   12    7   13   13       -0.0000071650
   13    7   13    7        0.0052008630
   13    7    8    8        0.0000000007
   13    7    9    8       -0.0000000030
   13    7   10    8       -0.0000000986
   13    7   11    8        0.0000002614
   13    7   12    8       -0.0001777788
   13    7   13    8        0.0000000150
   13    7    9    9        0.0000000019
   13    7   10    9        0.0000000048
   13    7   11    9        0.0000064687
   13    7   12    9        0.0000031743
   13    7   13    9        0.0000000002
   13    7   10   10       -0.0000000045
   13    7   11   10       -0.0000022462
   13    7   12   10       -0.0000012419
   13    7   13   10       -0.0000000003
   13    7   11   11        0.0001142595
   13    7   12   11        0.0000024340
   13    7   13   11        0.0000002567
   13    7   12   12        0.0000579574
   13    7   13   12        0.0000043839
   13    7   13   13        0.0000000025
    8    8    8    8        0.0923563732
    8    8    9    8        0.0000000713
    8    8   10    8        0.0000004093
    8    8   11    8       -0.0000066642
    8    8   12    8        0.0004760123
    8    8   13    8        0.0000011754
    8    8    9    9        0.0856398197
    8    8   10    9       -0.0031679644
    8    8   11    9       -0.0003077940
    8    8   12    9       -0.0001147671
    8    8   13    9        0.0055101312
    8    8   10   10        0.0877552961
    8    8   11   10        0.0001013343
    8    8   12   10       -0.0002634064
    8    8   13   10       -0.0012248077
    8    8   11   11        0.0912082915
    8    8   12   11       -0.0001391181
    8    8   13   11       -0.0000311476
    8    8   12   12        0.0947448636
    8    8   13   12        0.0001598018
    8    8   13   13        0.0859687922
    9    8    9    8        0.0049969632
    9    8   10    8       -0.0009226916
    9    8   11    8       -0.0000620576
    9    8   12    8       -0.0000407353
    9    8   13    8       -0.0004177517
    9    8    9    9       -0.0000488928
    9    8   10    9       -0.0000069735
    9    8   11    9        0.0000004225
    9    8   12    9        0.0000016371
    9    8   13    9        0.0000635604
    9    8   10   10        0.0000263095
    9    8   11   10        0.0000012087
    9    8   12   10        0.0000220501
    9    8   13   10        0.0000523723
    9    8   11   11        0.0001072777
    9    8   12   11       -0.0034191403
    9    8   13   11       -0.0000000705
    9    8   12   12        0.0001082855
    9    8   13   12        0.0000336353
    9    8   13   13       -0.0000134238
   10    8   10    8        0.0018874978
   10    8   11    8        0.0000271955
   10    8   12    8        0.0000299438
   10    8   13    8        0.0005697887
   10    8    9    9       -0.0000337075
   10    8   10    9       -0.0000159197
   10    8   11    9        0.0000004116
   10    8   12    9       -0.0000279705
   10    8   13    9        0.0000266796
   10    8   10   10       -0.0000133086
   10    8   11   10       -0.0000001627
   10    8   12   10        0.0000089899
   10    8   13   10       -0.0000022552
   10    8   11   11       -0.0000349675
   10    8   12   11        0.0002106171
   10    8   13   11       -0.0000001556
   10    8   12   12       -0.0004656438
   10    8   13   12        0.0000304722
   10    8   13   13       -0.0000476875
   11    8   11    8        0.0046834349
   11    8   12    8       -0.0004918392
   11    8   13    8        0.0000316434
   11    8    9    9       -0.0000065796
   11    8   10    9        0.0000029372
   11    8   11    9        0.0002156757
   11    8   12    9       -0.0023916202
   11    8   13    9        0.0000028146
   11    8   10   10       -0.0000064885
   11    8   11   10       -0.0000734346
   11    8   12   10        0.0001653118
   11    8   13   10        0.0000009029
   11    8   11   11       -0.0000052474
   11    8   12   11        0.0000372664
   11    8   13   11        0.0000738467
   11    8   12   12        0.0000147066
   11    8   13   12       -0.0004174196
   11    8   13   13       -0.0000058123
   12    8   12    8        0.0166601938
   12    8   13    8       -0.0000095698
   12    8    9    9        0.0005051719
   12    8   10    9       -0.0000873710
   12    8   11    9       -0.0106880376
   12    8   12    9       -0.0011906674
   12    8   13    9       -0.0000686981
   12    8   10   10        0.0005189384
   12    8   11   10        0.0026406441
   12    8   12   10       -0.0010160623
   12    8   13   10        0.0000134675
   12    8   11   11        0.0004290557
   12    8   12   11        0.0000012889
   12    8   13   11       -0.0030824061
   12    8   12   12        0.0006173505
   12    8   13   12       -0.0005188425
   12    8   13   13        0.0005794960
   13    8   13    8        0.0022152962
   13    8    9    9        0.0000158449
   13    8   10    9        0.0000130351
   13    8   11    9        0.0000011942
   13    8   12    9       -0.0000102250
   13    8   13    9       -0.0000012825
   13    8   10   10        0.0000090836
   13    8   11   10       -0.0000000794
   13    8   12   10        0.0000342672
   13    8   13   10       -0.0000086206
   13    8   11   11        0.0000285415
   13    8   12   11       -0.0008719015
   13    8   13   11        0.0000000827
   13    8   12   12       -0.0000926501
   13    8   13   12        0.0000373552
   13    8   13   13       -0.0000150053
    9    9    9    9        0.0864497997
    9    9   10    9       -0.0002516411
    9    9   11    9       -0.0004110080
    9    9   12    9       -0.0000271609
    9    9   13    9        0.0034080581
    9    9   10   10        0.0858122907
    9    9   11   10        0.0000840094
    9    9   12   10       -0.0002929545
    9    9   13   10       -0.0014837557
    9    9   11   11        0.0875490619
    9    9   12   11        0.0005113607
    9    9   13   11       -0.0000015010
    9    9   12   12        0.0885469089
    9    9   13   12        0.0001756896
    9    9   13   13        0.0847729428
   10    9   10    9        0.0059543695
   10    9   11    9        0.0000735778
   10    9   12    9        0.0000909390
   10    9   13    9       -0.0012054658
   10    9   10   10       -0.0007466567
   10    9   11   10       -0.0000659436
   10    9   12   10        0.0000328231
   10    9   13   10        0.0051860652
   10    9   11   11       -0.0022361940
   10    9   12   11       -0.0001711044
   10    9   13   11        0.0000390826
   10    9   12   12       -0.0017882092
   10    9   13   12       -0.0000149570
   10    9   13   13        0.0000165395
   11    9   11    9        0.0099341808
   11    9   12    9        0.0011710289
   11    9   13    9        0.0001707195
   11    9   10   10       -0.0003216122
   11    9   11   10       -0.0019233824
   11    9   12   10        0.0004738380
   11    9   13   10        0.0000506799
   11    9   11   11       -0.0002504675
   11    9   12   11        0.0000342751
   11    9   13   11        0.0021784672
   11    9   12   12       -0.0003214584
   11    9   13   12        0.0004165919
   11    9   13   13       -0.0003614101
   12    9   12    9        0.0030064951
   12    9   13    9       -0.0000011581
   12    9   10   10       -0.0000662585
   12    9   11   10       -0.0005237337
   12    9   12   10        0.0000633149
   12    9   13   10        0.0000555987
   12    9   11   11       -0.0000525286
   12    9   12   11       -0.0000232845
   12    9   13   11        0.0003582946
   12    9   12   12       -0.0001267950
   12    9   13   12        0.0008088007
   12    9   13   13        0.0000046213
   13    9   13    9        0.0081580911
   13    9   10   10        0.0108624394
   13    9   11   10       -0.0000022283
   13    9   12   10       -0.0001744361
   13    9   13   10        0.0003059344
   13    9   11   11        0.0085050498
   13    9   12   11       -0.0000916613
   13    9   13   11       -0.0000281251
   13    9   12   12        0.0096939376
   13    9   13   12        0.0002078100
   13    9   13   13        0.0068216979
   10   10   10   10        0.0985332738
   10   10   11   10        0.0001426609
   10   10   12   10       -0.0003060113
   10   10   13   10        0.0001396620
   10   10   11   11        0.0912717309
   10   10   12   11       -0.0005845907
   10   10   13   11       -0.0000610159
   10   10   12   12        0.0935869898
   10   10   13   12        0.0002693794
   10   10   13   13        0.0895477366
   11   10   11   10        0.0038197707
   11   10   12   10       -0.0003967604
   11   10   13   10       -0.0000320432
   11   10   11   11        0.0000613268
   11   10   12   11       -0.0000764671
   11   10   13   11       -0.0019669081
   11   10   12   12        0.0000040720
   11   10   13   12       -0.0006298843
   11   10   13   13        0.0000842370
   12   10   12   10        0.0017617923
   12   10   13   10        0.0000798240
   12   10   11   11       -0.0004901176
   12   10   12   11       -0.0001067901
   12   10   13   11       -0.0003837257
   12   10   12   12       -0.0003976788
   12   10   13   12       -0.0001036885
   12   10   13   13       -0.0004257660
   13   10   13   10        0.0082883300
   13   10   11   11       -0.0018297452
   13   10   12   11       -0.0007114634
   13   10   13   11        0.0000219946
   13   10   12   12       -0.0003871042
   13   10   13   12       -0.0000438883
   13   10   13   13        0.0013465810
   11   11   11   11        0.0961179747
   11   11   12   11        0.0007589491
   11   11   13   11       -0.0000067408
   11   11   12   12        0.0981328448
   11   11   13   12        0.0003216326
   11   11   13   13        0.0898159315
   12   11   12   11        0.0055064719
   12   11   13   11        0.0000626785
   12   11   12   12        0.0005078431
   12   11   13   12        0.0000027436
   12   11   13   13        0.0005120726
   13   11   13   11        0.0036226575
   13   11   12   12       -0.0000663142
   13   11   13   12        0.0005834448
   13   11   13   13        0.0000036246
   12   12   12   12        0.1143388852
   12   12   13   12        0.0002303499
   12   12   13   13        0.0910423541
   13   12   13   12        0.0015570256
   13   12   13   13        0.0002400324
   13   13   13   13        0.0902086754
 end_two_electron_integrals


 output epsi filename:./pspw_hf_H2.emovecs

 Total PSPW energy     :  -0.7921382281E+00


=== Spin Contamination ===

 <Sexact^2> =    0.0000000000000000     
 <S^2>      =    0.0000000000000000     



== Center of Charge ==

spin up     (    0.0000,    0.0000,    0.0001 )
spin down   (    0.0000,    0.0000,    0.0001 )
     total  (    0.0000,    0.0000,    0.0001 )
ionic       (    0.0000,    0.0000,    0.0000 )


== Molecular Dipole wrt Center of Mass ==

mu   =  (   -0.0000,   -0.0000,   -0.0001 ) au
|mu| =     0.0001 au,       0.0003 Debye

 output psi filename:./pspw_hf_H2.movecs

 Writing Crystallographic Information File:./H2.cif
   - cell not shifted (nwpw:cif_shift_cell .false.)


== Timing ==

cputime in seconds
  prologue    :   0.676018E+01
  main loop   :   0.189947E+04
  epilogue    :   0.179409E-01
  total       :   0.190625E+04
  cputime/step:   0.125793E+02       (     151 evalulations,      63 linesearches)


Time spent doing                        total          step       percent
  total time                 :   0.190625E+04  0.126242E+02       100.0 %
  i/o time                   :   0.478658E+00  0.316992E-02         0.0 %
  FFTs                       :   0.167685E+04  0.111049E+02        88.0 %
  dot products               :   0.365010E+01  0.241729E-01         0.2 %
  geodesic                   :   0.143358E+00  0.949393E-03         0.0 %
  ffm_dgemm                  :   0.188316E-01  0.124712E-03         0.0 %
  fmf_dgemm                  :   0.913315E-01  0.604845E-03         0.0 %
  mmm_dgemm                  :   0.189562E-02  0.125538E-04         0.0 %
  m_diagonalize              :   0.617981E-02  0.409259E-04         0.0 %
  local pseudopotentials     :   0.185368E-01  0.122760E-03         0.0 %
  non-local pseudopotentials :   0.599010E+01  0.396695E-01         0.3 %
  structure factors          :   0.249812E+01  0.165438E-01         0.1 %
  phase factors              :   0.665000E-05  0.440397E-07         0.0 %
  masking and packing        :   0.257499E+02  0.170529E+00         1.4 %
  queue fft                  :   0.352009E+01  0.233118E-01         0.2 %
  queue fft (serial)         :   0.149009E+01  0.986812E-02         0.1 %
  queue fft (message passing):   0.187880E+01  0.124424E-01         0.1 %
  HFX potential              :   0.151397E+04  0.100263E+02        79.4 %
  non-local psp FFM          :   0.309348E+01  0.204866E-01         0.2 %
  non-local psp FMF          :   0.807218E+00  0.534582E-02         0.0 %
  non-local psp FFM A        :   0.101251E+01  0.670538E-02         0.1 %
  non-local psp FFM B        :   0.642722E+00  0.425644E-02         0.0 %

== HFX Counters ==
  HFX Evalulations         =   151
  Lin ACE HFX Evalulations =     0


     >>>  JOB COMPLETED     AT Thu May  1 17:19:01 2025  <<<

 Task  times  cpu:     1905.7s     wall:     1906.3s
 Summary of allocated global arrays
-----------------------------------
  No active global arrays


MA_summarize_allocated_blocks: starting scan ...
MA_summarize_allocated_blocks: scan completed: 0 heap blocks, 0 stack blocks
MA usage statistics:

	allocation statistics:
					      heap	     stack
					      ----	     -----
	current number of blocks	         0	         0
	maximum number of blocks	       313	        17
	current total bytes		         0	         0
	maximum total bytes		 942043936	 228700296
	maximum total K-bytes		    942044	    228701
	maximum total M-bytes		       943	       229


                                NWChem Input Module
                                -------------------




                                     CITATION
                                     --------
                Please cite the following reference when publishing
                           results obtained with NWChem:

          E. Apra, E. J. Bylaska, W. A. de Jong, N. Govind, K. Kowalski,
       T. P. Straatsma, M. Valiev, H. J. J. van Dam, Y. Alexeev, J. Anchell,
       V. Anisimov, F. W. Aquino, R. Atta-Fynn, J. Autschbach, N. P. Bauman,
     J. C. Becca, D. E. Bernholdt, K. Bhaskaran-Nair, S. Bogatko, P. Borowski,
         J. Boschen, J. Brabec, A. Bruner, E. Cauet, Y. Chen, G. N. Chuev,
      C. J. Cramer, J. Daily, M. J. O. Deegan, T. H. Dunning Jr., M. Dupuis,
   K. G. Dyall, G. I. Fann, S. A. Fischer, A. Fonari, H. Fruchtl, L. Gagliardi,
      J. Garza, N. Gawande, S. Ghosh, K. Glaesemann, A. W. Gotz, J. Hammond,
       V. Helms, E. D. Hermes, K. Hirao, S. Hirata, M. Jacquelin, L. Jensen,
   B. G. Johnson, H. Jonsson, R. A. Kendall, M. Klemm, R. Kobayashi, V. Konkov,
      S. Krishnamoorthy, M. Krishnan, Z. Lin, R. D. Lins, R. J. Littlefield,
      A. J. Logsdail, K. Lopata, W. Ma, A. V. Marenich, J. Martin del Campo,
   D. Mejia-Rodriguez, J. E. Moore, J. M. Mullin, T. Nakajima, D. R. Nascimento,
    J. A. Nichols, P. J. Nichols, J. Nieplocha, A. Otero-de-la-Roza, B. Palmer,
    A. Panyala, T. Pirojsirikul, B. Peng, R. Peverati, J. Pittner, L. Pollack,
   R. M. Richard, P. Sadayappan, G. C. Schatz, W. A. Shelton, D. W. Silverstein,
   D. M. A. Smith, T. A. Soares, D. Song, M. Swart, H. L. Taylor, G. S. Thomas,
            V. Tipparaju, D. G. Truhlar, K. Tsemekhman, T. Van Voorhis,
      A. Vazquez-Mayagoitia, P. Verma, O. Villa, A. Vishnu, K. D. Vogiatzis,
        D. Wang, J. H. Weare, M. J. Williamson, T. L. Windus, K. Wolinski,
        A. T. Wong, Q. Wu, C. Yang, Q. Yu, M. Zacharias, Z. Zhang, Y. Zhao,
                                and R. J. Harrison
                        "NWChem: Past, present, and future
                         J. Chem. Phys. 152, 184102 (2020)
                               doi:10.1063/5.0004997

                                      AUTHORS
                                      -------
  E. Apra, E. J. Bylaska, N. Govind, K. Kowalski, M. Valiev, D. Mejia-Rodriguez,
       A. Kunitsa, N. P. Bauman, A. Panyala, W. A. de Jong, T. P. Straatsma,
   H. J. J. van Dam, D. Wang, T. L. Windus, J. Hammond, J. Autschbach, A. Woods,
    K. Bhaskaran-Nair, J. Brabec, K. Lopata, S. A. Fischer, S. Krishnamoorthy,
     M. Jacquelin, W. Ma, M. Klemm, O. Villa, Y. Chen, V. Anisimov, F. Aquino,
     S. Hirata, M. T. Hackler, E. Hermes, L. Jensen, J. E. Moore, J. C. Becca,
      V. Konjkov, T. Risthaus, M. Malagoli, A. Marenich, A. Otero-de-la-Roza,
        J. Mullin, P. Nichols, R. Peverati, J. Pittner, Y. Zhao, P.-D. Fan,
        A. Fonari, M. J. Williamson, R. J. Harrison, J. R. Rehr, M. Dupuis,
     D. Silverstein, D. M. A. Smith, J. Nieplocha, V. Tipparaju, M. Krishnan,
     B. E. Van Kuiken, A. Vazquez-Mayagoitia, M. Swart, Q. Wu, T. Van Voorhis,
     A. A. Auer, M. Nooijen, L. D. Crosby, E. Brown, G. Cisneros, G. I. Fann,
   H. Fruchtl, J. Garza, K. Hirao, R. A. Kendall, J. A. Nichols, K. Tsemekhman,
    K. Wolinski, J. Anchell, D. E. Bernholdt, P. Borowski, T. Clark, D. Clerc,
   H. Dachsel, M. J. O. Deegan, K. Dyall, D. Elwood, E. Glendening, M. Gutowski,
   A. C. Hess, J. Jaffe, B. G. Johnson, J. Ju, R. Kobayashi, R. Kutteh, Z. Lin,
   R. Littlefield, X. Long, B. Meng, T. Nakajima, S. Niu, L. Pollack, M. Rosing,
   K. Glaesemann, G. Sandrone, M. Stave, H. Taylor, G. Thomas, J. H. van Lenthe,
                               A. T. Wong, Z. Zhang.

 Total times  cpu:     1905.8s     wall:     1906.3s
