 argument  1 = H2-5.0.nw



============================== echo of input deck ==============================
title "swnc: e theory=pspw4 xc=hf formula=H2 charge=0 mult=1"
#machinejob:expert

echo

start pspw_hf_H2

memory heap 1200 mb stack 1200 mb global 10 mb

charge 0

geometry
H    0.00000    0.00000   -2.50000
H    0.00000    0.00000    2.50000
end

nwpw
  ### pseudopotential block begin ###
  ### pseudopotential block end   ###
  simulation_cell
     SC 20.0000
     boundary_conditions aperiodic
  end

  cutoff 50.0
  mult 1
  xc hf
  lmbfgs
  tolerances 1.0e-9 1.0e-9

  virtual 12
end
set nwpw:cif_filename H2

#set nwpw:CI_maxit_orb 15
#set nwpw:CI_maxit_linesearch 15
set pspw:HFX_screening_radius 14.0


set nwpw:2qintegrals .true.
#set nwpw:3x3_virtual .true.

task pspw energy

================================================================================


                                         
                                         


             Northwest Computational Chemistry Package (NWChem) 7.2.2
             --------------------------------------------------------


                    Environmental Molecular Sciences Laboratory
                       Pacific Northwest National Laboratory
                                Richland, WA 99352

                              Copyright (c) 1994-2022
                       Pacific Northwest National Laboratory
                            Battelle Memorial Institute

             NWChem is an open-source computational chemistry package
                        distributed under the terms of the
                      Educational Community License (ECL) 2.0
             A copy of the license is included with this distribution
                              in the LICENSE.TXT file

                                  ACKNOWLEDGMENT
                                  --------------

            This software and its documentation were developed at the
            EMSL at Pacific Northwest National Laboratory, a multiprogram
            national laboratory, operated for the U.S. Department of Energy
            by Battelle under Contract Number DE-AC05-76RL01830. Support
            for this work was provided by the Department of Energy Office
            of Biological and Environmental Research, Office of Basic
            Energy Sciences, and the Office of Advanced Scientific Computing.


           Job information
           ---------------

    hostname        = LAPTOP-JJQSTSEL
    program         = nwchem
    date            = Thu May  1 15:27:52 2025

    compiled        = Fri_Jun_07_07:50:04_2024
    source          = /home/conda/feedstock_root/build_artifacts/nwchem_1717738148552/work
    nwchem branch   = 7.2.2
    nwchem revision = 64ba0f0
    ga revision     = 5.8.0
    use scalapack   = T
    input           = H2-5.0.nw
    prefix          = pspw_hf_H2.
    data base       = ./pspw_hf_H2.db
    status          = startup
    nproc           =        1
    time left       =     -1s



           Memory information
           ------------------

    heap     =  157286400 doubles =   1200.0 Mbytes
    stack    =  157286397 doubles =   1200.0 Mbytes
    global   =    1310720 doubles =     10.0 Mbytes (distinct from heap & stack)
    total    =  315883517 doubles =   2410.0 Mbytes
    verify   = yes
    hardfail = no 


           Directory information
           ---------------------

  0 permanent = .
  0 scratch   = .




                                NWChem Input Module
                                -------------------


               swnc: e theory=pspw4 xc=hf formula=H2 charge=0 mult=1
               -----------------------------------------------------

 Scaling coordinates for geometry "geometry" by  1.889725989
 (inverse scale =  0.529177249)

 ORDER OF PRIMARY AXIS IS BEING SET TO 4
 D4H symmetry detected

          ------
          auto-z
          ------
     1 autoz failed with cvr_scaling = 1.2 changing to 1.3
     2 autoz failed with cvr_scaling = 1.3 changing to 1.4
     3 autoz failed with cvr_scaling = 1.4 changing to 1.5
     4 autoz failed with cvr_scaling = 1.5 changing to 1.6
     5 autoz failed with cvr_scaling = 1.6 changing to 1.7

 AUTOZ failed to generate good internal coordinates.
 Cartesian coordinates will be used in optimizations.



                             Geometry "geometry" -> ""
                             -------------------------

 Output coordinates in angstroms (scale by  1.889725989 to convert to a.u.)

  No.       Tag          Charge          X              Y              Z
 ---- ---------------- ---------- -------------- -------------- --------------
    1 H                    1.0000     0.00000000     0.00000000    -2.50000000
    2 H                    1.0000     0.00000000     0.00000000     2.50000000

      Atomic Mass 
      ----------- 

      H                  1.007825


 Effective nuclear repulsion energy (a.u.)       0.1058354498

            Nuclear Dipole moment (a.u.) 
            ----------------------------
        X                 Y               Z
 ---------------- ---------------- ----------------
     0.0000000000     0.0000000000     0.0000000000

      Symmetry information
      --------------------

 Group name             D4h       
 Group number             28
 Group order              16
 No. of unique centers     1

      Symmetry unique atoms

     1


            XYZ format geometry
            -------------------
     2
 geometry
 H                     0.00000000     0.00000000    -2.50000000
 H                     0.00000000     0.00000000     2.50000000

          ****************************************************
          *                                                  *
          *               NWPW PSPW Calculation              *
          *                                                  *
          * [ (Grassmann/Stiefel manifold implementation)  ] *
          *                                                  *
          *      [ NorthWest Chemistry implementation ]      *
          *                                                  *
          *            version #5.10   06/12/02              *
          *                                                  *
          *    This code was developed by Eric J. Bylaska,   *
          *    and was based upon algorithms and code        *
          *    developed by the group of Prof. John H. Weare *
          *                                                  *
          ****************************************************
     >>>  JOB STARTED       AT Thu May  1 15:27:52 2025  <<<
          ================ input data ========================

 input psi filename:./pspw_hf_H2.movecs

 number of processors used:         1
 processor grid           :   1 x   1
 parallel mapping         :2d-hilbert
 parallel mapping         :  balanced
 number of threads        :         1
 parallel io              :       off

 options:
      boundary conditions  = aperiodic   (version4)
      electron spin        = restricted
      exchange-correlation = Hartree-Fock
      - HFX relaxed
      - HFX restricted orbitals :    1
      - HFX free-space coulomb solver


 elements involved in the cluster:
      1: H   valence charge:  1.0000  lmax=  1
             comment    : Parameterized (Chem.Phys.Lett., vol 322, page 447) Hamman psp
             pseudpotential type            :   0
             highest angular component      :   1
             local potential used           :   1
             number of non-local projections:   1
             aperiodic cutoff radius        :  1.000
             cutoff =   0.800   0.800


 total charge:   0.000

 atomic composition:
     H   :    2

 number of electrons: spin up=     1 (   1 per task)  down=     1 (   1 per task) (Fourier space)
 number of orbitals : spin up=     1 (   1 per task)  down=     1 (   1 per task) (Fourier space)

 supercell:
      cell_name:  cell_default                                      
      lattice:    a1=<  20.000   0.000   0.000 >
                  a2=<   0.000  20.000   0.000 >
                  a3=<   0.000   0.000  20.000 >
      reciprocal: b1=<   0.314   0.000   0.000 >
                  b2=<   0.000   0.314   0.000 >
                  b3=<   0.000   0.000   0.314 >
      lattice:    a=      20.000 b=     20.000 c=      20.000
                  alpha=  90.000 beta=  90.000 gamma=  90.000
                  omega=      8000.0

      density cutoff=100.000  fft= 96x 96x 96(   191162 waves   191162 per task)
      wavefnc cutoff= 50.000  fft= 96x 96x 96(    67522 waves    67522 per task)

 technical parameters:
      time step=      5.80     fictitious mass=  400000.0
      tolerance=0.100E-08 (energy)   0.100E-08 (density)
      maximum iterations =      1000 (   10 inner    100 outer )





== Energy Calculation ==


          ============ Grassmann lmbfgs iteration ============
     >>>  ITERATION STARTED AT Thu May  1 15:27:59 2025  <<<
    iter.           Energy         DeltaE       DeltaRho 
    ------------------------------------------------------
      10   -0.7553717729E+00   -0.45765E-02    0.24580E-01
     -  10 steepest descent iterations performed
      20   -0.7711730539E+00   -0.56297E-03    0.13418E-03
      30   -0.7723421305E+00   -0.26328E-04    0.15447E-04
      40   -0.7724236993E+00   -0.16604E-05    0.85556E-06
      50   -0.7724298838E+00   -0.16421E-06    0.41637E-07
      60   -0.7724302374E+00   -0.10314E-07    0.33262E-09
      70   -0.7724302628E+00   -0.72766E-09    0.69908E-10
  *** tolerance ok. iteration terminated
     >>>  ITERATION ENDED   AT Thu May  1 15:29:49 2025  <<<


==  Summary Of Results  ==

 number of electrons: spin up=    1.00000  down=    1.00000 (real space)

 total     energy    :  -0.7724302628E+00 (   -0.38622E+00/ion)
 total orbital energy:  -0.5738624785E+00 (   -0.57386E+00/electron)
 hartree   energy    :   0.6088064682E+00 (    0.60881E+00/electron)
 exc-corr  energy    :   0.0000000000E+00 (    0.00000E+00/electron)
 HF exchange energy  :  -0.3044032341E+00 (   -0.30440E+00/electron)
 ion-ion   energy    :   0.1058354498E+00 (    0.52918E-01/ion)

 kinetic (planewave) :   0.6599089524E+00 (    0.65991E+00/electron)
 V_local (planewave) :  -0.1689867131E+01 (   -0.16899E+01/electron)
 V_nl    (planewave) :  -0.1527107685E+00 (   -0.15271E+00/electron)
 V_Coul  (planewave) :   0.1217612936E+01 (    0.12176E+01/electron)
 V_xc.   (planewave) :   0.0000000000E+00 (    0.00000E+00/electron)
 K.S. HFX energy     :  -0.6088064682E+00 (   -0.60881E+00/electron)
 Virial Coefficient  :  -0.9470472562E+00

 orbital energies:
    -0.2869312E+00 (  -7.808eV)


== Virtual Orbital Calculation ==


 input epsi filename:./pspw_hf_H2.emovecs
     orbital   1 current e=-0.176E+00 (error=0.865E-09) iterations  64(  46 preconditioned, Ep,Sp= 20.0  200.0)
     orbital   2 current e= 0.721E-02 (error=0.862E-09) iterations 106(  61 preconditioned, Ep,Sp= 20.0  200.0)
     orbital   3 current e= 0.472E-01 (error=0.861E-09) iterations  72(  23 preconditioned, Ep,Sp= 20.0  200.0)
     orbital   4 current e= 0.472E-01 (error=0.876E-09) iterations  72(  23 preconditioned, Ep,Sp= 20.0  200.0)
     orbital   5 current e= 0.471E-01 (error=0.865E-09) iterations 121(  73 preconditioned, Ep,Sp= 20.0  200.0)
     orbital   6 current e= 0.494E-01 (error=0.992E-09) iterations  45(   2 preconditioned, Ep,Sp= 20.0  200.0)
     orbital   7 current e= 0.572E-01 (error=0.943E-09) iterations  98(  53 preconditioned, Ep,Sp= 20.0  200.0)
     orbital   8 current e= 0.706E-01 (error=0.147E-08) iterations 121(  85 preconditioned, Ep,Sp= 20.0  200.0)
     orbital   8 current e= 0.706E-01 (error=0.643E-09) iterations   2(   1 preconditioned, Ep,Sp= 20.0  200.0)
     orbital   9 current e= 0.926E-01 (error=0.910E-09) iterations 110(  65 preconditioned, Ep,Sp= 20.0  200.0)
     orbital  10 current e= 0.957E-01 (error=0.776E-09) iterations 116(  22 preconditioned, Ep,Sp= 20.0  200.0)
     orbital  11 current e= 0.130E+00 (error=0.364E-05) iterations 121( 120 preconditioned, Ep,Sp= 20.0  200.0)
     orbital  11 current e= 0.130E+00 (error=0.624E-06) iterations 121( 120 preconditioned, Ep,Sp= 20.0  200.0)
     orbital  11 current e= 0.130E+00 (error=0.693E-08) iterations 121( 102 preconditioned, Ep,Sp= 20.0  200.0)
     orbital  11 current e= 0.130E+00 (error=0.887E-09) iterations  46(   6 preconditioned, Ep,Sp= 20.0  200.0)
     orbital  12 current e= 0.145E+00 (error=0.848E-04) iterations 121( 120 preconditioned, Ep,Sp= 20.0  200.0)
     orbital  12 current e= 0.103E+00 (error=0.119E-03) iterations 121( 120 preconditioned, Ep,Sp= 20.0  200.0)
     orbital  12 current e= 0.145E+00 (error=0.105E-03) iterations 121( 120 preconditioned, Ep,Sp= 20.0  200.0)
     orbital  12 current e= 0.958E-01 (error=0.180E-05) iterations 121( 120 preconditioned, Ep,Sp= 20.0  200.0)
     orbital  12 current e= 0.958E-01 (error=0.393E-08) iterations 121(  73 preconditioned, Ep,Sp= 20.0  200.0)
     orbital  12 current e= 0.958E-01 (error=0.824E-09) iterations   5(   1 preconditioned, Ep,Sp= 20.0  200.0)

 virtual orbital energies:
     0.1303358E+00 (   3.547eV)
     0.9575824E-01 (   2.606eV)
     0.9572612E-01 (   2.605eV)
     0.9258500E-01 (   2.519eV)
     0.7058150E-01 (   1.921eV)
     0.5715344E-01 (   1.555eV)
     0.4944976E-01 (   1.346eV)
     0.4724028E-01 (   1.285eV)
     0.4724028E-01 (   1.285eV)
     0.4713311E-01 (   1.283eV)
     0.7208715E-02 (   0.196eV)
    -0.1756102E+00 (  -4.779eV)


 == Generating One-Electron and Two-Electron Integrals ==

 begin_one_electron_integrals
    1    1        -0.5913344733
    2    1        -0.0000140983
    3    1         0.0214448796
    4    1        -0.0020943713
    5    1        -0.0000003809
    6    1         0.0000007746
    7    1         0.0000000064
    8    1         0.0000346046
    9    1         0.0272019145
   10    1         0.0019867581
   11    1        -0.0000000033
   12    1         0.0000006046
   13    1         0.0369777143
    2    2        -0.5908714021
    3    2        -0.0000534377
    4    2         0.0001155040
    5    2        -0.0000001767
    6    2         0.0000014962
    7    2         0.0000001411
    8    2        -0.0206480375
    9    2        -0.0000477119
   10    2        -0.0001206527
   11    2         0.0000011334
   12    2         0.0000021735
   13    2        -0.0001389815
    3    3        -0.1874029407
    4    3        -0.0102834079
    5    3        -0.0000013460
    6    3         0.0000019574
    7    3        -0.0000000686
    8    3        -0.0000543748
    9    3        -0.0393244230
   10    3        -0.0004578047
   11    3         0.0000001074
   12    3         0.0000011095
   13    3        -0.0276944901
    4    4        -0.1767484684
    5    4         0.0000002632
    6    4        -0.0000004115
    7    4        -0.0000002257
    8    4         0.0000106149
    9    4        -0.0058234844
   10    4         0.0601359566
   11    4         0.0000016933
   12    4         0.0000028719
   13    4        -0.0130383845
    5    5        -0.1786308023
    6    5        -0.0000001135
    7    5         0.0000116003
    8    5         0.0000003059
    9    5        -0.0000003262
   10    5         0.0000077955
   11    5        -0.0021457300
   12    5        -0.0161494321
   13    5        -0.0000015620
    6    6        -0.1786308442
    7    6         0.0000039192
    8    6        -0.0000030916
    9    6        -0.0000002113
   10    6        -0.0000072410
   11    6        -0.0052372239
   12    6         0.0411005879
   13    6         0.0000018137
    7    7        -0.1484060705
    8    7         0.0000008120
    9    7        -0.0000000500
   10    7         0.0000007289
   11    7         0.0000031498
   12    7         0.0000303866
   13    7        -0.0000002375
    8    8        -0.1388163162
    9    8         0.0000095093
   10    8        -0.0000139380
   11    8         0.0000019677
   12    8         0.0000059274
   13    8        -0.0000953574
    9    9        -0.1289618933
   10    9         0.0093650991
   11    9         0.0000004296
   12    9        -0.0000008140
   13    9        -0.0529683684
   10   10        -0.1458593580
   11   10        -0.0000004060
   12   10         0.0000081879
   13   10         0.0149000962
   11   11        -0.1402913522
   12   11        -0.0014647359
   13   11         0.0000002927
   12   12        -0.1246989664
   13   12        -0.0000064514
   13   13        -0.1298841699
 end_one_electron_integrals

 begin_two_electron_integrals
    1    1    1    1        0.3044032341
    1    1    2    1        0.0000141147
    1    1    3    1       -0.0214550336
    1    1    4    1        0.0020926088
    1    1    5    1        0.0000003807
    1    1    6    1       -0.0000007744
    1    1    7    1       -0.0000000064
    1    1    8    1       -0.0000346917
    1    1    9    1       -0.0272064973
    1    1   10    1       -0.0019910809
    1    1   11    1        0.0000000030
    1    1   12    1       -0.0000006042
    1    1   13    1       -0.0369698997
    1    1    2    2        0.3086907818
    1    1    3    2        0.0000246006
    1    1    4    2       -0.0000471114
    1    1    5    2        0.0000001696
    1    1    6    2       -0.0000013986
    1    1    7    2       -0.0000001352
    1    1    8    2        0.0190032897
    1    1    9    2        0.0000047870
    1    1   10    2        0.0000443100
    1    1   11    2       -0.0000011185
    1    1   12    2       -0.0000019691
    1    1   13    2        0.0000581936
    1    1    3    3        0.0986380468
    1    1    4    3        0.0051622599
    1    1    5    3        0.0000008004
    1    1    6    3       -0.0000013419
    1    1    7    3        0.0000000362
    1    1    8    3        0.0000304168
    1    1    9    3        0.0214440682
    1    1   10    3        0.0001456357
    1    1   11    3       -0.0000000977
    1    1   12    3       -0.0000000899
    1    1   13    3        0.0163954042
    1    1    4    4        0.1131433689
    1    1    5    4       -0.0000001141
    1    1    6    4        0.0000001756
    1    1    7    4        0.0000001138
    1    1    8    4       -0.0000079294
    1    1    9    4        0.0029805289
    1    1   10    4       -0.0318007097
    1    1   11    4       -0.0000009061
    1    1   12    4       -0.0000012610
    1    1   13    4        0.0068965510
    1    1    5    5        0.1139675040
    1    1    6    5        0.0000000599
    1    1    7    5       -0.0000056729
    1    1    8    5       -0.0000001099
    1    1    9    5        0.0000001953
    1    1   10    5       -0.0000041209
    1    1   11    5        0.0011262288
    1    1   12    5        0.0084745011
    1    1   13    5        0.0000006755
    1    1    6    6        0.1139675215
    1    1    7    6       -0.0000019170
    1    1    8    6        0.0000011704
    1    1    9    6        0.0000000518
    1    1   10    6        0.0000038059
    1    1   11    6        0.0027479772
    1    1   12    6       -0.0215678405
    1    1   13    6       -0.0000005240
    1    1    7    7        0.0989997901
    1    1    8    7       -0.0000003616
    1    1    9    7        0.0000000277
    1    1   10    7       -0.0000003765
    1    1   11    7       -0.0000015795
    1    1   12    7       -0.0000152281
    1    1   13    7        0.0000001300
    1    1    8    8        0.0989990687
    1    1    9    8        0.0000074113
    1    1   10    8        0.0000096555
    1    1   11    8       -0.0000010723
    1    1   12    8       -0.0000031477
    1    1   13    8        0.0000547499
    1    1    9    9        0.1021924810
    1    1   10    9       -0.0048502318
    1    1   11    9       -0.0000002398
    1    1   12    9        0.0000006276
    1    1   13    9        0.0300217713
    1    1   10   10        0.1217645655
    1    1   11   10        0.0000001980
    1    1   12   10       -0.0000043987
    1    1   13   10       -0.0081086114
    1    1   11   11        0.1192075384
    1    1   12   11        0.0007303465
    1    1   13   11       -0.0000002486
    1    1   12   12        0.1114312763
    1    1   13   12        0.0000033254
    1    1   13   13        0.1354822172
    2    1    2    1        0.2021203994
    2    1    3    1       -0.0000045888
    2    1    4    1        0.0000213504
    2    1    5    1        0.0000001602
    2    1    6    1       -0.0000012777
    2    1    7    1       -0.0000001322
    2    1    8    1        0.0173639905
    2    1    9    1       -0.0000380307
    2    1   10    1       -0.0000319269
    2    1   11    1       -0.0000011055
    2    1   12    1       -0.0000017642
    2    1   13    1       -0.0000227029
    2    1    2    2        0.0000234932
    2    1    3    2       -0.0215355842
    2    1    4    2       -0.0056708979
    2    1    5    2       -0.0000005182
    2    1    6    2        0.0000004182
    2    1    7    2       -0.0000000749
    2    1    8    2       -0.0000294447
    2    1    9    2       -0.0285856219
    2    1   10    2        0.0086835283
    2    1   11    2        0.0000004085
    2    1   12    2       -0.0000027996
    2    1   13    2       -0.0423388403
    2    1    3    3       -0.0002441766
    2    1    4    3        0.0003534669
    2    1    5    3       -0.0000001429
    2    1    6    3        0.0000014863
    2    1    7    3       -0.0000000584
    2    1    8    3       -0.0201083709
    2    1    9    3       -0.0000574858
    2    1   10    3       -0.0000344624
    2    1   11    3        0.0000005761
    2    1   12    3        0.0000009513
    2    1   13    3       -0.0001302506
    2    1    4    4       -0.0005944164
    2    1    5    4       -0.0000000002
    2    1    6    4       -0.0000002426
    2    1    7    4       -0.0000000443
    2    1    8    4        0.0033683830
    2    1    9    4        0.0002373644
    2    1   10    4        0.0002725077
    2    1   11    4        0.0000017544
    2    1   12    4       -0.0000003981
    2    1   13    4        0.0003538985
    2    1    5    5       -0.0002606461
    2    1    6    5       -0.0000003861
    2    1    7    5        0.0000000149
    2    1    8    5        0.0000004186
    2    1    9    5       -0.0000000707
    2    1   10    5        0.0000003403
    2    1   11    5       -0.0274112018
    2    1   12    5       -0.0028188123
    2    1   13    5       -0.0000001862
    2    1    6    6       -0.0002587014
    2    1    7    6        0.0000000174
    2    1    8    6       -0.0000005381
    2    1    9    6        0.0000007663
    2    1   10    6        0.0000013671
    2    1   11    6       -0.0110239314
    2    1   12    6       -0.0003665663
    2    1   13    6        0.0000005007
    2    1    7    7       -0.0002232224
    2    1    8    7        0.0000000400
    2    1    9    7        0.0000003476
    2    1   10    7       -0.0000006575
    2    1   11    7        0.0000103432
    2    1   12    7        0.0000102514
    2    1   13    7       -0.0000000619
    2    1    8    8       -0.0000341926
    2    1    9    8       -0.0105827725
    2    1   10    8        0.0009764301
    2    1   11    8       -0.0000005556
    2    1   12    8        0.0000006528
    2    1   13    8       -0.0084666811
    2    1    9    9       -0.0002740592
    2    1   10    9       -0.0003626838
    2    1   11    9        0.0000012686
    2    1   12    9        0.0000017466
    2    1   13    9       -0.0001947267
    2    1   10   10       -0.0006138549
    2    1   11   10        0.0000008620
    2    1   12   10       -0.0000000740
    2    1   13   10       -0.0004840603
    2    1   11   11       -0.0027792287
    2    1   12   11        0.0000471714
    2    1   13   11        0.0000004323
    2    1   12   12       -0.0009024538
    2    1   13   12        0.0000012323
    2    1   13   13       -0.0006321948
    3    1    3    1        0.0026644377
    3    1    4    1        0.0000389406
    3    1    5    1        0.0000002544
    3    1    6    1       -0.0000007257
    3    1    7    1        0.0000000037
    3    1    8    1        0.0000064827
    3    1    9    1        0.0035608204
    3    1   10    1       -0.0001525032
    3    1   11    1       -0.0000000892
    3    1   12    1        0.0000009269
    3    1   13    1        0.0050963986
    3    1    2    2       -0.0221045558
    3    1    3    2       -0.0000046740
    3    1    4    2        0.0000090430
    3    1    5    2       -0.0000000218
    3    1    6    2        0.0000001774
    3    1    7    2        0.0000000192
    3    1    8    2       -0.0023858318
    3    1    9    2       -0.0000032725
    3    1   10    2       -0.0000101918
    3    1   11    2        0.0000001925
    3    1   12    2        0.0000002392
    3    1   13    2       -0.0000111743
    3    1    3    3       -0.0005481493
    3    1    4    3       -0.0000173760
    3    1    5    3        0.0000014028
    3    1    6    3       -0.0000040816
    3    1    7    3       -0.0000000008
    3    1    8    3        0.0000107241
    3    1    9    3       -0.0008550163
    3    1   10    3        0.0000616341
    3    1   11    3        0.0000000017
    3    1   12    3       -0.0000000025
    3    1   13    3       -0.0012041256
    3    1    4    4       -0.0009640643
    3    1    5    4        0.0000001916
    3    1    6    4       -0.0000005824
    3    1    7    4       -0.0000000069
    3    1    8    4       -0.0000041941
    3    1    9    4       -0.0000579604
    3    1   10    4        0.0013794091
    3    1   11    4        0.0000000474
    3    1   12    4       -0.0000001164
    3    1   13    4       -0.0002640669
    3    1    5    5       -0.0008235947
    3    1    6    5       -0.0000000035
    3    1    7    5        0.0000021526
    3    1    8    5        0.0000000061
    3    1    9    5        0.0000002537
    3    1   10    5        0.0000001815
    3    1   11    5       -0.0000297893
    3    1   12    5       -0.0003261107
    3    1   13    5        0.0000001318
    3    1    6    6       -0.0008235901
    3    1    7    6        0.0000007395
    3    1    8    6       -0.0000000396
    3    1    9    6       -0.0000007514
    3    1   10    6       -0.0000001505
    3    1   11    6       -0.0001006807
    3    1   12    6        0.0008337343
    3    1   13    6       -0.0000004362
    3    1    7    7       -0.0001416114
    3    1    8    7        0.0000000077
    3    1    9    7       -0.0000000020
    3    1   10    7        0.0000000122
    3    1   11    7        0.0000002983
    3    1   12    7        0.0000002163
    3    1   13    7       -0.0000000049
    3    1    8    8       -0.0004750177
    3    1    9    8        0.0000003009
    3    1   10    8       -0.0000016437
    3    1   11    8       -0.0000001912
    3    1   12    8        0.0000002060
    3    1   13    8       -0.0000041703
    3    1    9    9       -0.0011601794
    3    1   10    9        0.0000911690
    3    1   11    9       -0.0000002975
    3    1   12    9        0.0000030842
    3    1   13    9       -0.0018465785
    3    1   10   10       -0.0019381045
    3    1   11   10        0.0000000263
    3    1   12   10       -0.0000003599
    3    1   13   10        0.0004230114
    3    1   11   11       -0.0011269387
    3    1   12   11       -0.0000145281
    3    1   13   11        0.0000000037
    3    1   12   12       -0.0009719078
    3    1   13   12       -0.0000001130
    3    1   13   13       -0.0030650421
    4    1    4    1        0.0024051644
    4    1    5    1        0.0000001044
    4    1    6    1       -0.0000002421
    4    1    7    1        0.0000000191
    4    1    8    1       -0.0000043733
    4    1    9    1        0.0001372278
    4    1   10    1       -0.0034634086
    4    1   11    1       -0.0000001189
    4    1   12    1        0.0000003514
    4    1   13    1        0.0007525615
    4    1    2    2        0.0013149637
    4    1    3    2        0.0000044633
    4    1    4    2       -0.0000124385
    4    1    5    2        0.0000000012
    4    1    6    2       -0.0000000054
    4    1    7    2        0.0000000058
    4    1    8    2       -0.0000024063
    4    1    9    2        0.0000072317
    4    1   10    2        0.0000162324
    4    1   11    2        0.0000001736
    4    1   12    2       -0.0000000303
    4    1   13    2        0.0000112928
    4    1    3    3        0.0012150841
    4    1    4    3        0.0021238888
    4    1    5    3        0.0000001693
    4    1    6    3       -0.0000007657
    4    1    7    3        0.0000000048
    4    1    8    3       -0.0000285617
    4    1    9    3        0.0003720843
    4    1   10    3       -0.0005531150
    4    1   11    3       -0.0000000138
    4    1   12    3       -0.0000001643
    4    1   13    3        0.0001853969
    4    1    4    4        0.0014206345
    4    1    5    4        0.0000001450
    4    1    6    4       -0.0000005614
    4    1    7    4        0.0000000015
    4    1    8    4        0.0000142687
    4    1    9    4        0.0020562002
    4    1   10    4       -0.0002743164
    4    1   11    4       -0.0000000294
    4    1   12    4        0.0000003799
    4    1   13    4        0.0030269365
    4    1    5    5        0.0016530942
    4    1    6    5       -0.0000000029
    4    1    7    5        0.0000000999
    4    1    8    5       -0.0000000058
    4    1    9    5        0.0000001057
    4    1   10    5        0.0000001393
    4    1   11    5       -0.0000100961
    4    1   12    5        0.0001430013
    4    1   13    5        0.0000001586
    4    1    6    6        0.0016531441
    4    1    7    6        0.0000001302
    4    1    8    6        0.0000000421
    4    1    9    6       -0.0000002576
    4    1   10    6        0.0000000109
    4    1   11    6        0.0000356409
    4    1   12    6       -0.0003721151
    4    1   13    6       -0.0000001997
    4    1    7    7        0.0014298549
    4    1    8    7       -0.0000000029
    4    1    9    7        0.0000000081
    4    1   10    7       -0.0000000393
    4    1   11    7       -0.0000001653
    4    1   12    7       -0.0000040268
    4    1   13    7        0.0000000403
    4    1    8    8        0.0012790567
    4    1    9    8       -0.0000057160
    4    1   10    8       -0.0000019024
    4    1   11    8       -0.0000002755
    4    1   12    8       -0.0000000419
    4    1   13    8        0.0000001844
    4    1    9    9        0.0011751893
    4    1   10    9       -0.0022955685
    4    1   11    9       -0.0000001221
    4    1   12    9        0.0000003559
    4    1   13    9        0.0004716218
    4    1   10   10        0.0014261490
    4    1   11   10        0.0000000515
    4    1   12   10       -0.0000008223
    4    1   13   10       -0.0040574618
    4    1   11   11        0.0015133954
    4    1   12   11       -0.0000060204
    4    1   13   11       -0.0000001334
    4    1   12   12        0.0015788728
    4    1   13   12        0.0000001781
    4    1   13   13        0.0019171666
    5    1    5    1        0.0020639289
    5    1    6    1        0.0000000064
    5    1    7    1        0.0000002321
    5    1    8    1        0.0000000012
    5    1    9    1        0.0000000437
    5    1   10    1       -0.0000004567
    5    1   11    1        0.0001069567
    5    1   12    1        0.0007989961
    5    1   13    1       -0.0000002087
    5    1    2    2        0.0000002937
    5    1    3    2       -0.0000000219
    5    1    4    2       -0.0000000016
    5    1    5    2       -0.0000017435
    5    1    6    2       -0.0000000235
    5    1    7    2       -0.0000000004
    5    1    8    2       -0.0000002027
    5    1    9    2       -0.0000000272
    5    1   10    2        0.0000000275
    5    1   11    2       -0.0021614304
    5    1   12    2       -0.0002210888
    5    1   13    2       -0.0000000519
    5    1    3    3        0.0000215240
    5    1    4    3        0.0000035588
    5    1    5    3        0.0036262910
    5    1    6    3        0.0000000133
    5    1    7    3        0.0000586141
    5    1    8    3       -0.0000000143
    5    1    9    3       -0.0000089346
    5    1   10    3        0.0000016711
    5    1   11    3        0.0000365351
    5    1   12    3        0.0002406802
    5    1   13    3       -0.0000117559
    5    1    4    4        0.0000136437
    5    1    5    4        0.0005484970
    5    1    6    4        0.0000000085
    5    1    7    4        0.0000089283
    5    1    8    4       -0.0000000071
    5    1    9    4       -0.0000000549
    5    1   10    4        0.0000130825
    5    1   11    4        0.0000047567
    5    1   12    4        0.0000141652
    5    1   13    4       -0.0000017402
    5    1    5    5       -0.0000045791
    5    1    6    5        0.0000151229
    5    1    7    5        0.0009255991
    5    1    8    5        0.0000070319
    5    1    9    5        0.0018367252
    5    1   10    5       -0.0002115915
    5    1   11    5       -0.0000025885
    5    1   12    5        0.0000267809
    5    1   13    5        0.0017983317
    5    1    6    6        0.0000192701
    5    1    7    6       -0.0011855500
    5    1    8    6        0.0000000429
    5    1    9    6        0.0000000120
    5    1   10    6        0.0000000004
    5    1   11    6       -0.0000049549
    5    1   12    6        0.0000196572
    5    1   13    6       -0.0000000043
    5    1    7    7        0.0000282805
    5    1    8    7        0.0000000010
    5    1    9    7        0.0000138000
    5    1   10    7       -0.0000042468
    5    1   11    7       -0.0001719206
    5    1   12    7        0.0026009313
    5    1   13    7       -0.0000666943
    5    1    8    8        0.0000227445
    5    1    9    8       -0.0000000324
    5    1   10    8       -0.0000000522
    5    1   11    8        0.0035011169
    5    1   12    8        0.0003585442
    5    1   13    8       -0.0000000420
    5    1    9    9        0.0000254203
    5    1   10    9       -0.0000037107
    5    1   11    9        0.0001303862
    5    1   12    9        0.0010080466
    5    1   13    9       -0.0000127403
    5    1   10   10        0.0000184407
    5    1   11   10       -0.0000264586
    5    1   12   10       -0.0001955736
    5    1   13   10       -0.0000002112
    5    1   11   11        0.0000092845
    5    1   12   11       -0.0000053141
    5    1   13   11        0.0000775954
    5    1   12   12        0.0000108031
    5    1   13   12        0.0005669504
    5    1   13   13        0.0000228971
    6    1    6    1        0.0020639218
    6    1    7    1        0.0000000830
    6    1    8    1        0.0000000079
    6    1    9    1       -0.0000000896
    6    1   10    1        0.0000003918
    6    1   11    1        0.0002593993
    6    1   12    1       -0.0020332417
    6    1   13    1        0.0000007620
    6    1    2    2       -0.0000006651
    6    1    3    2        0.0000001742
    6    1    4    2        0.0000000137
    6    1    5    2       -0.0000000311
    6    1    6    2       -0.0000016064
    6    1    7    2        0.0000000001
    6    1    8    2        0.0000005912
    6    1    9    2        0.0000002323
    6    1   10    2        0.0000000816
    6    1   11    2       -0.0008689557
    6    1   12    2       -0.0000319981
    6    1   13    2        0.0000003313
    6    1    3    3       -0.0000623250
    6    1    4    3       -0.0000106202
    6    1    5    3        0.0000000053
    6    1    6    3        0.0036262774
    6    1    7    3        0.0000201781
    6    1    8    3        0.0000002162
    6    1    9    3        0.0000260258
    6    1   10    3       -0.0000049932
    6    1   11    3        0.0000796381
    6    1   12    3       -0.0006113113
    6    1   13    3        0.0000341984
    6    1    4    4       -0.0000395888
    6    1    5    4        0.0000000027
    6    1    6    4        0.0005485500
    6    1    7    4        0.0000031685
    6    1    8    4        0.0000000539
    6    1    9    4        0.0000002094
    6    1   10    4       -0.0000373703
    6    1   11    4        0.0000059282
    6    1   12    4       -0.0000356230
    6    1   13    4        0.0000053308
    6    1    5    5       -0.0000247483
    6    1    6    5        0.0000054782
    6    1    7    5       -0.0011855617
    6    1    8    5        0.0000000685
    6    1    9    5        0.0000000142
    6    1   10    5       -0.0000000064
    6    1   11    5        0.0000006253
    6    1   12    5        0.0000224455
    6    1   13    5       -0.0000000053
    6    1    6    6       -0.0000171129
    6    1    7    6       -0.0009255984
    6    1    8    6        0.0000068631
    6    1    9    6        0.0018367034
    6    1   10    6       -0.0002115847
    6    1   11    6        0.0000023499
    6    1   12    6       -0.0000258446
    6    1   13    6        0.0017983516
    6    1    7    7       -0.0000819361
    6    1    8    7       -0.0000000273
    6    1    9    7        0.0000047505
    6    1   10    7       -0.0000013148
    6    1   11    7       -0.0003021807
    6    1   12    7        0.0007718539
    6    1   13    7       -0.0000229473
    6    1    8    8       -0.0000658831
    6    1    9    8        0.0000002049
    6    1   10    8       -0.0000001469
    6    1   11    8        0.0014076404
    6    1   12    8        0.0000504267
    6    1   13    8        0.0000003228
    6    1    9    9       -0.0000736433
    6    1   10    9        0.0000099824
    6    1   11    9        0.0003253975
    6    1   12    9       -0.0025665666
    6    1   13    9        0.0000371146
    6    1   10   10       -0.0000534444
    6    1   11   10       -0.0000635071
    6    1   12   10        0.0004974287
    6    1   13   10       -0.0000002887
    6    1   11   11       -0.0000187010
    6    1   12   11        0.0000022009
    6    1   13   11        0.0001847257
    6    1   12   12       -0.0000500781
    6    1   13   12       -0.0014422480
    6    1   13   13       -0.0000661736
    7    1    7    1        0.0001437505
    7    1    8    1       -0.0000000185
    7    1    9    1        0.0000000061
    7    1   10    1       -0.0000000300
    7    1   11    1        0.0000000016
    7    1   12    1       -0.0000000692
    7    1   13    1        0.0000000145
    7    1    2    2       -0.0000000141
    7    1    3    2        0.0000000188
    7    1    4    2        0.0000000056
    7    1    5    2       -0.0000000009
    7    1    6    2       -0.0000000001
    7    1    7    2       -0.0000002146
    7    1    8    2       -0.0000000029
    7    1    9    2        0.0000000265
    7    1   10    2       -0.0000000151
    7    1   11    2       -0.0000001048
    7    1   12    2        0.0000000670
    7    1   13    2        0.0000000389
    7    1    3    3        0.0000000083
    7    1    4    3        0.0000000098
    7    1    5    3        0.0000041256
    7    1    6    3        0.0000014253
    7    1    7    3        0.0008173508
    7    1    8    3       -0.0000000094
    7    1    9    3        0.0000000022
    7    1   10    3       -0.0000000065
    7    1   11    3        0.0000000103
    7    1   12    3       -0.0000002533
    7    1   13    3        0.0000000015
    7    1    4    4        0.0000000098
    7    1    5    4        0.0000005656
    7    1    6    4        0.0000002127
    7    1    7    4        0.0001332355
    7    1    8    4       -0.0000000012
    7    1    9    4        0.0000000107
    7    1   10    4       -0.0000000158
    7    1   11    4       -0.0000000838
    7    1   12    4       -0.0000015421
    7    1   13    4        0.0000000308
    7    1    5    5        0.0001646164
    7    1    6    5       -0.0002108362
    7    1    7    5        0.0000006906
    7    1    8    5       -0.0000000054
    7    1    9    5        0.0000007302
    7    1   10    5       -0.0000000114
    7    1   11    5       -0.0000463874
    7    1   12    5        0.0007004751
    7    1   13    5       -0.0000003770
    7    1    6    6       -0.0001645933
    7    1    7    6       -0.0000019912
    7    1    8    6       -0.0000000072
    7    1    9    6        0.0000002530
    7    1   10    6        0.0000000364
    7    1   11    6       -0.0000811616
    7    1   12    6        0.0002078881
    7    1   13    6       -0.0000001253
    7    1    7    7        0.0000000120
    7    1    8    7        0.0000022842
    7    1    9    7        0.0006215789
    7    1   10    7       -0.0001187669
    7    1   11    7       -0.0000002606
    7    1   12    7        0.0000026930
    7    1   13    7       -0.0003529958
    7    1    8    8        0.0000000081
    7    1    9    8       -0.0000000095
    7    1   10    8        0.0000000321
    7    1   11    8        0.0000041009
    7    1   12    8       -0.0000000587
    7    1   13    8        0.0000000156
    7    1    9    9        0.0000000077
    7    1   10    9       -0.0000000209
    7    1   11    9        0.0000002175
    7    1   12    9       -0.0000002409
    7    1   13    9        0.0000000040
    7    1   10   10        0.0000000154
    7    1   11   10       -0.0000000255
    7    1   12   10        0.0000000846
    7    1   13   10       -0.0000000339
    7    1   11   11       -0.0000382372
    7    1   12   11        0.0000302783
    7    1   13   11       -0.0000000574
    7    1   12   12        0.0000280908
    7    1   13   12       -0.0000002108
    7    1   13   13        0.0000000154
    8    1    8    1        0.0020283811
    8    1    9    1        0.0000057613
    8    1   10    1        0.0000042742
    8    1   11    1       -0.0000001299
    8    1   12    1       -0.0000003748
    8    1   13    1        0.0000134485
    8    1    2    2       -0.0000352128
    8    1    3    2       -0.0023374835
    8    1    4    2       -0.0002322709
    8    1    5    2       -0.0000000988
    8    1    6    2        0.0000002457
    8    1    7    2       -0.0000000050
    8    1    8    2       -0.0000079927
    8    1    9    2       -0.0031708899
    8    1   10    2        0.0004479139
    8    1   11    2        0.0000000033
    8    1   12    2       -0.0000004778
    8    1   13    2       -0.0046375731
    8    1    3    3        0.0000001576
    8    1    4    3       -0.0000018713
    8    1    5    3       -0.0000000248
    8    1    6    3        0.0000002551
    8    1    7    3       -0.0000000031
    8    1    8    3        0.0000752702
    8    1    9    3       -0.0000036582
    8    1   10    3       -0.0000039764
    8    1   11    3       -0.0000000609
    8    1   12    3        0.0000000154
    8    1   13    3       -0.0000052752
    8    1    4    4       -0.0000019421
    8    1    5    4       -0.0000000113
    8    1    6    4        0.0000000628
    8    1    7    4        0.0000000003
    8    1    8    4       -0.0000082539
    8    1    9    4        0.0000028788
    8    1   10    4        0.0000088480
    8    1   11    4        0.0000000194
    8    1   12    4       -0.0000000186
    8    1   13    4        0.0000054222
    8    1    5    5       -0.0000003696
    8    1    6    5        0.0000000032
    8    1    7    5       -0.0000000893
    8    1    8    5        0.0000005394
    8    1    9    5       -0.0000000188
    8    1   10    5        0.0000000003
    8    1   11    5       -0.0000043419
    8    1   12    5       -0.0000013949
    8    1   13    5       -0.0000000206
    8    1    6    6       -0.0000003641
    8    1    7    6       -0.0000000581
    8    1    8    6       -0.0000015767
    8    1    9    6        0.0000001724
    8    1   10    6       -0.0000000098
    8    1   11    6       -0.0000020092
    8    1   12    6        0.0000023460
    8    1   13    6        0.0000001931
    8    1    7    7        0.0000017936
    8    1    8    7       -0.0000000013
    8    1    9    7       -0.0000000114
    8    1   10    7        0.0000000148
    8    1   11    7        0.0000010027
    8    1   12    7       -0.0000000837
    8    1   13    7        0.0000000162
    8    1    8    8       -0.0000022950
    8    1    9    8       -0.0004438647
    8    1   10    8       -0.0000170202
    8    1   11    8        0.0000000622
    8    1   12    8        0.0000001392
    8    1   13    8       -0.0008152783
    8    1    9    9       -0.0000014525
    8    1   10    9       -0.0000014447
    8    1   11    9        0.0000000153
    8    1   12    9       -0.0000001497
    8    1   13    9       -0.0000081469
    8    1   10   10       -0.0000080407
    8    1   11   10        0.0000000122
    8    1   12   10        0.0000000501
    8    1   13   10       -0.0000065996
    8    1   11   11       -0.0000918653
    8    1   12   11        0.0000006746
    8    1   13   11        0.0000000749
    8    1   12   12       -0.0000221612
    8    1   13   12       -0.0000000264
    8    1   13   13       -0.0000135936
    9    1    9    1        0.0048415661
    9    1   10    1       -0.0003348416
    9    1   11    1       -0.0000000431
    9    1   12    1        0.0000004497
    9    1   13    1        0.0070750733
    9    1    2    2       -0.0281418658
    9    1    3    2       -0.0000026684
    9    1    4    2        0.0000138526
    9    1    5    2       -0.0000000268
    9    1    6    2        0.0000002324
    9    1    7    2        0.0000000270
    9    1    8    2       -0.0031808046
    9    1    9    2        0.0000001358
    9    1   10    2       -0.0000165034
    9    1   11    2        0.0000002092
    9    1   12    2        0.0000003440
    9    1   13    2       -0.0000085422
    9    1    3    3       -0.0006310568
    9    1    4    3       -0.0000064938
    9    1    5    3        0.0000001509
    9    1    6    3       -0.0000004378
    9    1    7    3       -0.0000000010
    9    1    8    3        0.0000156877
    9    1    9    3       -0.0008431987
    9    1   10    3        0.0000573788
    9    1   11    3       -0.0000000466
    9    1   12    3        0.0000004844
    9    1   13    3       -0.0013631206
    9    1    4    4       -0.0006905799
    9    1    5    4        0.0000000514
    9    1    6    4       -0.0000001458
    9    1    7    4       -0.0000000060
    9    1    8    4       -0.0000060938
    9    1    9    4       -0.0000292775
    9    1   10    4        0.0010480423
    9    1   11    4        0.0000000165
    9    1   12    4        0.0000000874
    9    1   13    4       -0.0002218231
    9    1    5    5       -0.0006840877
    9    1    6    5        0.0000000015
    9    1    7    5        0.0000008492
    9    1    8    5       -0.0000000020
    9    1    9    5        0.0000001879
    9    1   10    5        0.0000001112
    9    1   11    5       -0.0000142145
    9    1   12    5       -0.0002595868
    9    1   13    5       -0.0000000234
    9    1    6    6       -0.0006840945
    9    1    7    6        0.0000002902
    9    1    8    6       -0.0000000062
    9    1    9    6       -0.0000005519
    9    1   10    6       -0.0000000292
    9    1   11    6       -0.0000765980
    9    1   12    6        0.0006663067
    9    1   13    6        0.0000000262
    9    1    7    7       -0.0000178489
    9    1    8    7        0.0000000022
    9    1    9    7       -0.0000000023
    9    1   10    7        0.0000000092
    9    1   11    7        0.0000000669
    9    1   12    7       -0.0000000113
    9    1   13    7       -0.0000000044
    9    1    8    8       -0.0005815239
    9    1    9    8        0.0000025436
    9    1   10    8       -0.0000013727
    9    1   11    8        0.0000000072
    9    1   12    8        0.0000001245
    9    1   13    8       -0.0000030405
    9    1    9    9       -0.0013014226
    9    1   10    9        0.0001011300
    9    1   11    9       -0.0000000235
    9    1   12    9        0.0000002273
    9    1   13    9       -0.0019967399
    9    1   10   10       -0.0016508069
    9    1   11   10       -0.0000000167
    9    1   12   10        0.0000001519
    9    1   13   10        0.0004120642
    9    1   11   11       -0.0010933942
    9    1   12   11       -0.0000214566
    9    1   13   11        0.0000000163
    9    1   12   12       -0.0008652425
    9    1   13   12       -0.0000002473
    9    1   13   13       -0.0032031545
   10    1   10    1        0.0050847779
   10    1   11    1        0.0000001051
   10    1   12    1       -0.0000007624
   10    1   13    1       -0.0013158133
   10    1    2    2       -0.0008033598
   10    1    3    2       -0.0000043245
   10    1    4    2        0.0000153319
   10    1    5    2        0.0000000192
   10    1    6    2        0.0000000860
   10    1    7    2       -0.0000000145
   10    1    8    2        0.0001005256
   10    1    9    2       -0.0000077659
   10    1   10    2       -0.0000205032
   10    1   11    2        0.0000000618
   10    1   12    2       -0.0000000123
   10    1   13    2       -0.0000126118
   10    1    3    3       -0.0014241653
   10    1    4    3       -0.0024278558
   10    1    5    3       -0.0000003503
   10    1    6    3        0.0000001527
   10    1    7    3       -0.0000000219
   10    1    8    3        0.0000289927
   10    1    9    3       -0.0004549567
   10    1   10    3        0.0008624767
   10    1   11    3       -0.0000000191
   10    1   12    3       -0.0000000658
   10    1   13    3       -0.0002011980
   10    1    4    4       -0.0017012416
   10    1    5    4        0.0000002219
   10    1    6    4       -0.0000004605
   10    1    7    4       -0.0000000107
   10    1    8    4       -0.0000151692
   10    1    9    4       -0.0026472752
   10    1   10    4        0.0004360996
   10    1   11    4        0.0000000325
   10    1   12    4       -0.0000003282
   10    1   13    4       -0.0041675042
   10    1    5    5       -0.0020316356
   10    1    6    5        0.0000000017
   10    1    7    5        0.0000000668
   10    1    8    5       -0.0000000246
   10    1    9    5       -0.0000003780
   10    1   10    5       -0.0000000226
   10    1   11    5        0.0000029634
   10    1   12    5       -0.0002091162
   10    1   13    5       -0.0000004690
   10    1    6    6       -0.0020316876
   10    1    7    6        0.0000001021
   10    1    8    6       -0.0000001383
   10    1    9    6        0.0000003513
   10    1   10    6       -0.0000004085
   10    1   11    6       -0.0000564747
   10    1   12    6        0.0005408096
   10    1   13    6        0.0000003329
   10    1    7    7       -0.0017277836
   10    1    8    7        0.0000000264
   10    1    9    7       -0.0000000210
   10    1   10    7        0.0000000488
   10    1   11    7        0.0000002810
   10    1   12    7        0.0000041542
   10    1   13    7       -0.0000000401
   10    1    8    8       -0.0015161570
   10    1    9    8        0.0000075175
   10    1   10    8        0.0000035571
   10    1   11    8       -0.0000001188
   10    1   12    8        0.0000000642
   10    1   13    8        0.0000013203
   10    1    9    9       -0.0013723619
   10    1   10    9        0.0029334367
   10    1   11    9        0.0000000440
   10    1   12    9        0.0000000096
   10    1   13    9       -0.0005518120
   10    1   10   10       -0.0017501016
   10    1   11   10       -0.0000000046
   10    1   12   10        0.0000004839
   10    1   13   10        0.0055610849
   10    1   11   11       -0.0018541106
   10    1   12   11        0.0000082778
   10    1   13   11        0.0000001436
   10    1   12   12       -0.0019435239
   10    1   13   12       -0.0000003415
   10    1   13   13       -0.0024486380
   11    1   11    1        0.0023976037
   11    1   12    1       -0.0000010034
   11    1   13    1        0.0000000153
   11    1    2    2        0.0000000504
   11    1    3    2        0.0000001638
   11    1    4    2        0.0000001401
   11    1    5    2       -0.0017245052
   11    1    6    2       -0.0006933150
   11    1    7    2        0.0000003904
   11    1    8    2        0.0000000346
   11    1    9    2        0.0000002027
   11    1   10    2        0.0000000488
   11    1   11    2       -0.0004051490
   11    1   12    2        0.0000005682
   11    1   13    2        0.0000002817
   11    1    3    3       -0.0000056104
   11    1    4    3       -0.0000009969
   11    1    5    3        0.0001676621
   11    1    6    3        0.0003799456
   11    1    7    3        0.0000049614
   11    1    8    3       -0.0000012125
   11    1    9    3        0.0000020413
   11    1   10    3       -0.0000003959
   11    1   11    3        0.0021763383
   11    1   12    3        0.0001132508
   11    1   13    3        0.0000033023
   11    1    4    4       -0.0000036097
   11    1    5    4        0.0000012954
   11    1    6    4        0.0000470821
   11    1    7    4        0.0000004072
   11    1    8    4       -0.0000000433
   11    1    9    4       -0.0000001262
   11    1   10    4       -0.0000032256
   11    1   11    4       -0.0003415786
   11    1   12    4       -0.0000415644
   11    1   13    4        0.0000003463
   11    1    5    5       -0.0000030534
   11    1    6    5        0.0000009747
   11    1    7    5       -0.0001042972
   11    1    8    5        0.0020780580
   11    1    9    5        0.0000943030
   11    1   10    5       -0.0000087995
   11    1   11    5       -0.0000025805
   11    1   12    5        0.0000028589
   11    1   13    5        0.0000969215
   11    1    6    6       -0.0000009058
   11    1    7    6       -0.0001903551
   11    1    8    6        0.0008358299
   11    1    9    6        0.0002231533
   11    1   10    6       -0.0000279209
   11    1   11    6        0.0000070698
   11    1   12    6       -0.0000006339
   11    1   13    6        0.0002157982
   11    1    7    7       -0.0000076837
   11    1    8    7        0.0000245287
   11    1    9    7        0.0000011676
   11    1   10    7       -0.0000005249
   11    1   11    7       -0.0001502806
   11    1   12    7        0.0002232525
   11    1   13    7       -0.0000058091
   11    1    8    8       -0.0000058235
   11    1    9    8        0.0000004717
   11    1   10    8        0.0000001401
   11    1   11    8        0.0003594510
   11    1   12    8        0.0000148516
   11    1   13    8        0.0000009017
   11    1    9    9       -0.0000063519
   11    1   10    9        0.0000008517
   11    1   11    9        0.0014164752
   11    1   12    9       -0.0001146235
   11    1   13    9        0.0000033548
   11    1   10   10       -0.0000046315
   11    1   11   10        0.0000455360
   11    1   12   10        0.0000509691
   11    1   13   10        0.0000000184
   11    1   11   11       -0.0000041964
   11    1   12   11        0.0000117533
   11    1   13   11        0.0010694245
   11    1   12   12       -0.0000043086
   11    1   13   12       -0.0000459875
   11    1   13   13       -0.0000062053
   12    1   12    1        0.0024053476
   12    1   13    1       -0.0000001099
   12    1    2    2       -0.0000008833
   12    1    3    2        0.0000002429
   12    1    4    2        0.0000000008
   12    1    5    2       -0.0001764572
   12    1    6    2       -0.0000253704
   12    1    7    2        0.0000001008
   12    1    8    2       -0.0000007537
   12    1    9    2        0.0000003448
   12    1   10    2       -0.0000000783
   12    1   11    2        0.0000067949
   12    1   12    2       -0.0000982249
   12    1   13    2        0.0000005110
   12    1    3    3        0.0000576432
   12    1    4    3        0.0000096402
   12    1    5    3        0.0011554274
   12    1    6    3       -0.0029366328
   12    1    7    3        0.0000020663
   12    1    8    3        0.0000002152
   12    1    9    3       -0.0000211932
   12    1   10    3        0.0000038309
   12    1   11    3        0.0001133551
   12    1   12    3        0.0009708856
   12    1   13    3       -0.0000340848
   12    1    4    4        0.0000369633
   12    1    5    4        0.0001695344
   12    1    6    4       -0.0004374450
   12    1    7    4       -0.0000004884
   12    1    8    4       -0.0000000697
   12    1    9    4        0.0000004602
   12    1   10    4        0.0000334693
   12    1   11    4       -0.0000418846
   12    1   12    4        0.0001015060
   12    1   13    4       -0.0000047980
   12    1    5    5        0.0000207500
   12    1    6    5        0.0000020196
   12    1    7    5        0.0015959869
   12    1    8    5        0.0002139838
   12    1    9    5        0.0006843139
   12    1   10    5       -0.0000895492
   12    1   11    5       -0.0000015626
   12    1   12    5       -0.0000099545
   12    1   13    5        0.0006538936
   12    1    6    6        0.0000182612
   12    1    7    6        0.0004731162
   12    1    8    6        0.0000269952
   12    1    9    6       -0.0017406607
   12    1   10    6        0.0002287708
   12    1   11    6       -0.0000025458
   12    1   12    6        0.0000264736
   12    1   13    6       -0.0016613734
   12    1    7    7        0.0000790219
   12    1    8    7        0.0000020158
   12    1    9    7        0.0000002794
   12    1   10    7       -0.0000001699
   12    1   11    7        0.0002137981
   12    1   12    7        0.0002179499
   12    1   13    7       -0.0000027947
   12    1    8    8        0.0000608871
   12    1    9    8       -0.0000002708
   12    1   10    8        0.0000000379
   12    1   11    8       -0.0000214336
   12    1   12    8        0.0000896589
   12    1   13    8       -0.0000004405
   12    1    9    9        0.0000653208
   12    1   10    9       -0.0000087319
   12    1   11    9       -0.0001142740
   12    1   12    9        0.0026308397
   12    1   13    9       -0.0000346725
   12    1   10   10        0.0000476118
   12    1   11   10        0.0000510663
   12    1   12   10       -0.0004971723
   12    1   13   10        0.0000007674
   12    1   11   11        0.0000203642
   12    1   12   11       -0.0000026770
   12    1   13   11       -0.0000459503
   12    1   12   12        0.0000439381
   12    1   13   12        0.0015555562
   12    1   13   13        0.0000638749
   13    1   13    1        0.0107445016
   13    1    2    2       -0.0385928274
   13    1    3    2       -0.0000095191
   13    1    4    2        0.0000221213
   13    1    5    2       -0.0000000469
   13    1    6    2        0.0000003210
   13    1    7    2        0.0000000399
   13    1    8    2       -0.0045099950
   13    1    9    2       -0.0000080734
   13    1   10    2       -0.0000268609
   13    1   11    2        0.0000002537
   13    1   12    2        0.0000005053
   13    1   13    2       -0.0000243674
   13    1    3    3       -0.0007616840
   13    1    4    3        0.0002508600
   13    1    5    3       -0.0000013251
   13    1    6    3        0.0000039026
   13    1    7    3        0.0000000018
   13    1    8    3        0.0000270843
   13    1    9    3       -0.0010769260
   13    1   10    3        0.0000061845
   13    1   11    3        0.0000000644
   13    1   12    3       -0.0000005821
   13    1   13    3       -0.0014816744
   13    1    4    4       -0.0000790871
   13    1    5    4       -0.0000001496
   13    1    6    4        0.0000005150
   13    1    7    4        0.0000000022
   13    1    8    4       -0.0000103258
   13    1    9    4        0.0002642625
   13    1   10    4        0.0003696228
   13    1   11    4       -0.0000000008
   13    1   12    4        0.0000000703
   13    1   13    4        0.0003164622
   13    1    5    5       -0.0004280821
   13    1    6    5       -0.0000000036
   13    1    7    5       -0.0000020226
   13    1    8    5        0.0000000025
   13    1    9    5       -0.0000003223
   13    1   10    5        0.0000001087
   13    1   11    5        0.0000078421
   13    1   12    5       -0.0002075195
   13    1   13    5       -0.0000000626
   13    1    6    6       -0.0004280708
   13    1    7    6       -0.0000006973
   13    1    8    6        0.0000000440
   13    1    9    6        0.0000009880
   13    1   10    6       -0.0000000977
   13    1   11    6       -0.0000540355
   13    1   12    6        0.0005380174
   13    1   13    6        0.0000002480
   13    1    7    7       -0.0001057091
   13    1    8    7        0.0000000129
   13    1    9    7        0.0000000001
   13    1   10    7       -0.0000000004
   13    1   11    7       -0.0000002970
   13    1   12    7       -0.0000006556
   13    1   13    7        0.0000000011
   13    1    8    8       -0.0007853885
   13    1    9    8        0.0000041695
   13    1   10    8       -0.0000016993
   13    1   11    8        0.0000002671
   13    1   12    8        0.0000000523
   13    1   13    8       -0.0000046730
   13    1    9    9       -0.0014848392
   13    1   10    9       -0.0001783742
   13    1   11    9        0.0000002937
   13    1   12    9       -0.0000030851
   13    1   13    9       -0.0021214069
   13    1   10   10       -0.0006451553
   13    1   11   10       -0.0000000452
   13    1   12   10        0.0000006797
   13    1   13   10       -0.0003083838
   13    1   11   11       -0.0011541555
   13    1   12   11       -0.0000424702
   13    1   13   11       -0.0000000002
   13    1   12   12       -0.0007033348
   13    1   13   12       -0.0000001406
   13    1   13   13       -0.0032319641
    2    2    2    2        0.3134450347
    2    2    3    2        0.0000245477
    2    2    4    2       -0.0000487652
    2    2    5    2        0.0000001739
    2    2    6    2       -0.0000014377
    2    2    7    2       -0.0000001423
    2    2    8    2        0.0195559524
    2    2    9    2        0.0000039617
    2    2   10    2        0.0000461015
    2    2   11    2       -0.0000011689
    2    2   12    2       -0.0000020137
    2    2   13    2        0.0000582661
    2    2    3    3        0.0985518857
    2    2    4    3        0.0047530455
    2    2    5    3        0.0000007446
    2    2    6    3       -0.0000012545
    2    2    7    3        0.0000000334
    2    2    8    3        0.0000269917
    2    2    9    3        0.0215117257
    2    2   10    3        0.0002734361
    2    2   11    3       -0.0000000930
    2    2   12    3       -0.0000000794
    2    2   13    3        0.0165320017
    2    2    4    4        0.1128330376
    2    2    5    4       -0.0000001265
    2    2    6    4        0.0000001902
    2    2    7    4        0.0000001123
    2    2    8    4       -0.0000072042
    2    2    9    4        0.0025241129
    2    2   10    4       -0.0316549317
    2    2   11    4       -0.0000008983
    2    2   12    4       -0.0000013484
    2    2   13    4        0.0061449910
    2    2    5    5        0.1137697262
    2    2    6    5        0.0000000607
    2    2    7    5       -0.0000056921
    2    2    8    5       -0.0000001088
    2    2    9    5        0.0000001396
    2    2   10    5       -0.0000041283
    2    2   11    5        0.0011212353
    2    2   12    5        0.0084733537
    2    2   13    5        0.0000005938
    2    2    6    6        0.1137697339
    2    2    7    6       -0.0000019238
    2    2    8    6        0.0000011606
    2    2    9    6        0.0000001287
    2    2   10    6        0.0000037515
    2    2   11    6        0.0027457670
    2    2   12    6       -0.0215662634
    2    2   13    6       -0.0000004315
    2    2    7    7        0.0987883465
    2    2    8    7       -0.0000003623
    2    2    9    7        0.0000000250
    2    2   10    7       -0.0000003682
    2    2   11    7       -0.0000015434
    2    2   12    7       -0.0000145009
    2    2   13    7        0.0000001223
    2    2    8    8        0.0989290894
    2    2    9    8        0.0000069329
    2    2   10    8        0.0000104733
    2    2   11    8       -0.0000010732
    2    2   12    8       -0.0000031614
    2    2   13    8        0.0000552201
    2    2    9    9        0.1021801947
    2    2   10    9       -0.0043543584
    2    2   11    9       -0.0000002200
    2    2   12    9        0.0000005844
    2    2   13    9        0.0301474165
    2    2   10   10        0.1214004956
    2    2   11   10        0.0000001813
    2    2   12   10       -0.0000042382
    2    2   13   10       -0.0071097670
    2    2   11   11        0.1191967927
    2    2   12   11        0.0007448851
    2    2   13   11       -0.0000002131
    2    2   12   12        0.1112660422
    2    2   13   12        0.0000032208
    2    2   13   13        0.1353709859
    3    2    3    2        0.0027463609
    3    2    4    2        0.0003269198
    3    2    5    2        0.0000001029
    3    2    6    2       -0.0000002325
    3    2    7    2        0.0000000065
    3    2    8    2        0.0000068445
    3    2    9    2        0.0037176789
    3    2   10    2       -0.0005926836
    3    2   11    2       -0.0000000572
    3    2   12    2        0.0000005266
    3    2   13    2        0.0054720713
    3    2    3    3        0.0000060721
    3    2    4    3       -0.0000044960
    3    2    5    3       -0.0000000032
    3    2    6    3       -0.0000000175
    3    2    7    3       -0.0000000048
    3    2    8    3        0.0005165758
    3    2    9    3        0.0000042958
    3    2   10    3        0.0000035711
    3    2   11    3        0.0000000341
    3    2   12    3       -0.0000000830
    3    2   13    3        0.0000069788
    3    2    4    4        0.0000147980
    3    2    5    4        0.0000000063
    3    2    6    4       -0.0000000147
    3    2    7    4       -0.0000000008
    3    2    8    4       -0.0000417049
    3    2    9    4       -0.0000060484
    3    2   10    4       -0.0000125834
    3    2   11    4       -0.0000000687
    3    2   12    4        0.0000000220
    3    2   13    4       -0.0000101960
    3    2    5    5        0.0000073651
    3    2    6    5        0.0000000113
    3    2    7    5       -0.0000000114
    3    2    8    5       -0.0000004579
    3    2    9    5        0.0000000051
    3    2   10    5       -0.0000000082
    3    2   11    5        0.0007987103
    3    2   12    5        0.0000829023
    3    2   13    5        0.0000000104
    3    2    6    6        0.0000073085
    3    2    7    6       -0.0000000039
    3    2    8    6        0.0000013214
    3    2    9    6       -0.0000000509
    3    2   10    6       -0.0000000449
    3    2   11    6        0.0003214331
    3    2   12    6        0.0000087152
    3    2   13    6       -0.0000000637
    3    2    7    7        0.0000046279
    3    2    8    7        0.0000000001
    3    2    9    7       -0.0000000071
    3    2   10    7        0.0000000079
    3    2   11    7       -0.0000011475
    3    2   12    7       -0.0000001920
    3    2   13    7       -0.0000000092
    3    2    8    8        0.0000043081
    3    2    9    8        0.0007131736
    3    2   10    8       -0.0000244850
    3    2   11    8        0.0000000289
    3    2   12    8       -0.0000001369
    3    2   13    8        0.0009746301
    3    2    9    9        0.0000074738
    3    2   10    9        0.0000074864
    3    2   11    9       -0.0000000315
    3    2   12    9       -0.0000001037
    3    2   13    9        0.0000104904
    3    2   10   10        0.0000198522
    3    2   11   10       -0.0000000358
    3    2   12   10       -0.0000000013
    3    2   13   10        0.0000133394
    3    2   11   11        0.0001647675
    3    2   12   11       -0.0000017120
    3    2   13   11       -0.0000000684
    3    2   12   12        0.0000454919
    3    2   13   12       -0.0000001144
    3    2   13   13        0.0000249422
    4    2    4    2        0.0015038306
    4    2    5    2       -0.0000000028
    4    2    6    2        0.0000000140
    4    2    7    2        0.0000000120
    4    2    8    2       -0.0000050941
    4    2    9    2        0.0003757501
    4    2   10    2       -0.0022276447
    4    2   11    2       -0.0000000617
    4    2   12    2        0.0000000432
    4    2   13    2        0.0007312776
    4    2    3    3        0.0000277681
    4    2    4    3       -0.0000512160
    4    2    5    3        0.0000000126
    4    2    6    3       -0.0000001198
    4    2    7    3        0.0000000061
    4    2    8    3        0.0015049237
    4    2    9    3        0.0000081087
    4    2   10    3        0.0000082606
    4    2   11    3        0.0000000654
    4    2   12    3       -0.0000000398
    4    2   13    3        0.0000158496
    4    2    4    4        0.0000785893
    4    2    5    4       -0.0000000056
    4    2    6    4        0.0000000561
    4    2    7    4        0.0000000067
    4    2    8    4       -0.0006952588
    4    2    9    4       -0.0000381739
    4    2   10    4       -0.0000415466
    4    2   11    4       -0.0000001115
    4    2   12    4        0.0000000569
    4    2   13    4       -0.0000579562
    4    2    5    5        0.0000306384
    4    2    6    5        0.0000000269
    4    2    7    5        0.0000000037
    4    2    8    5        0.0000001561
    4    2    9    5        0.0000000014
    4    2   10    5       -0.0000000268
    4    2   11    5        0.0019037201
    4    2   12    5        0.0001971493
    4    2   13    5        0.0000000079
    4    2    6    6        0.0000305027
    4    2    7    6       -0.0000000002
    4    2    8    6       -0.0000002506
    4    2    9    6       -0.0000000333
    4    2   10    6       -0.0000000990
    4    2   11    6        0.0007659865
    4    2   12    6        0.0000218812
    4    2   13    6       -0.0000000064
    4    2    7    7        0.0000255443
    4    2    8    7       -0.0000000015
    4    2    9    7       -0.0000000312
    4    2   10    7        0.0000000473
    4    2   11    7       -0.0000005061
    4    2   12    7       -0.0000007715
    4    2   13    7        0.0000000095
    4    2    8    8       -0.0000026519
    4    2    9    8        0.0004699366
    4    2   10    8        0.0000278704
    4    2   11    8        0.0000000354
    4    2   12    8        0.0000000868
    4    2   13    8        0.0001965038
    4    2    9    9        0.0000343756
    4    2   10    9        0.0000545495
    4    2   11    9       -0.0000000234
    4    2   12    9       -0.0000001038
    4    2   13    9        0.0000262893
    4    2   10   10        0.0000834565
    4    2   11   10       -0.0000001049
    4    2   12   10       -0.0000000363
    4    2   13   10        0.0000790448
    4    2   11   11        0.0001311640
    4    2   12   11       -0.0000046405
    4    2   13   11        0.0000000567
    4    2   12   12        0.0000607017
    4    2   13   12       -0.0000000523
    4    2   13   13        0.0000804682
    5    2    5    2        0.0014701979
    5    2    6    2        0.0000000050
    5    2    7    2       -0.0000002535
    5    2    8    2        0.0000000072
    5    2    9    2        0.0000000332
    5    2   10    2       -0.0000003214
    5    2   11    2        0.0000786272
    5    2   12    2        0.0005928527
    5    2   13    2       -0.0000000302
    5    2    3    3       -0.0000000804
    5    2    4    3        0.0000000774
    5    2    5    3       -0.0000160261
    5    2    6    3       -0.0000000505
    5    2    7    3       -0.0000002459
    5    2    8    3       -0.0000064309
    5    2    9    3        0.0000000658
    5    2   10    3        0.0000001061
    5    2   11    3       -0.0016382586
    5    2   12    3       -0.0001682561
    5    2   13    3        0.0000000468
    5    2    4    4       -0.0000000769
    5    2    5    4        0.0000227692
    5    2    6    4       -0.0000000054
    5    2    7    4        0.0000002397
    5    2    8    4        0.0000005761
    5    2    9    4       -0.0000000383
    5    2   10    4       -0.0000001115
    5    2   11    4        0.0003000190
    5    2   12    4        0.0000340773
    5    2   13    4       -0.0000000495
    5    2    5    5        0.0000000013
    5    2    6    5        0.0000000744
    5    2    7    5       -0.0000035384
    5    2    8    5       -0.0018253390
    5    2    9    5       -0.0000047837
    5    2   10    5       -0.0000044657
    5    2   11    5        0.0000000393
    5    2   12    5        0.0000003552
    5    2   13    5       -0.0000108734
    5    2    6    6       -0.0000000668
    5    2    7    6        0.0000045566
    5    2    8    6       -0.0000000070
    5    2    9    6       -0.0000000275
    5    2   10    6        0.0000000257
    5    2   11    6       -0.0000062427
    5    2   12    6       -0.0000009243
    5    2   13    6       -0.0000000213
    5    2    7    7       -0.0000001100
    5    2    8    7       -0.0000192728
    5    2    9    7        0.0000000079
    5    2   10    7        0.0000001700
    5    2   11    7       -0.0002393432
    5    2   12    7       -0.0000508702
    5    2   13    7        0.0000003040
    5    2    8    8        0.0000000263
    5    2    9    8        0.0000023722
    5    2   10    8        0.0000011668
    5    2   11    8       -0.0000309565
    5    2   12    8       -0.0002112713
    5    2   13    8        0.0000043641
    5    2    9    9       -0.0000001074
    5    2   10    9       -0.0000000670
    5    2   11    9       -0.0010349351
    5    2   12    9       -0.0001099304
    5    2   13    9        0.0000000789
    5    2   10   10       -0.0000000861
    5    2   11   10       -0.0000631504
    5    2   12   10       -0.0000115397
    5    2   13   10        0.0000000072
    5    2   11   11        0.0000025002
    5    2   12   11       -0.0000093388
    5    2   13   11       -0.0007934348
    5    2   12   12       -0.0000002262
    5    2   13   12       -0.0000838961
    5    2   13   13       -0.0000001021
    6    2    6    2        0.0014701887
    6    2    7    2       -0.0000000855
    6    2    8    2       -0.0000000473
    6    2    9    2       -0.0000000168
    6    2   10    2        0.0000002597
    6    2   11    2        0.0001921901
    6    2   12    2       -0.0015088618
    6    2   13    2        0.0000002355
    6    2    3    3        0.0000002187
    6    2    4    3       -0.0000002353
    6    2    5    3       -0.0000000198
    6    2    6    3       -0.0000158486
    6    2    7    3       -0.0000000832
    6    2    8    3        0.0000189684
    6    2    9    3       -0.0000002239
    6    2   10    3       -0.0000001651
    6    2   11    3       -0.0006587940
    6    2   12    3       -0.0000224168
    6    2   13    3       -0.0000002166
    6    2    4    4        0.0000001839
    6    2    5    4        0.0000000054
    6    2    6    4        0.0000227689
    6    2    7    4        0.0000000824
    6    2    8    4       -0.0000014666
    6    2    9    4        0.0000000996
    6    2   10    4        0.0000003500
    6    2   11    4        0.0001215339
    6    2   12    4       -0.0000043113
    6    2   13    4        0.0000001263
    6    2    5    5        0.0000000451
    6    2    6    5       -0.0000000354
    6    2    7    5        0.0000045317
    6    2    8    5       -0.0000000041
    6    2    9    5       -0.0000000151
    6    2   10    5        0.0000000229
    6    2   11    5        0.0000057898
    6    2   12    5        0.0000001791
    6    2   13    5       -0.0000000063
    6    2    6    6        0.0000002821
    6    2    7    6        0.0000035072
    6    2    8    6       -0.0018253259
    6    2    9    6       -0.0000046878
    6    2   10    6       -0.0000044294
    6    2   11    6        0.0000002471
    6    2   12    6       -0.0000001372
    6    2   13    6       -0.0000107815
    6    2    7    7        0.0000003255
    6    2    8    7       -0.0000066369
    6    2    9    7        0.0000000015
    6    2   10    7        0.0000000357
    6    2   11    7        0.0008337705
    6    2   12    7        0.0000692926
    6    2   13    7        0.0000001088
    6    2    8    8       -0.0000002756
    6    2    9    8       -0.0000067998
    6    2   10    8       -0.0000032565
    6    2   11    8       -0.0000694659
    6    2   12    8        0.0005368694
    6    2   13    8       -0.0000126389
    6    2    9    9        0.0000002740
    6    2   10    9        0.0000002989
    6    2   11    9       -0.0004171932
    6    2   12    9       -0.0000047920
    6    2   13    9       -0.0000003247
    6    2   10   10        0.0000001943
    6    2   11   10       -0.0000267649
    6    2   12   10        0.0000120315
    6    2   13   10        0.0000000864
    6    2   11   11       -0.0000009415
    6    2   12   11       -0.0000031937
    6    2   13   11       -0.0003197244
    6    2   12   12       -0.0000006586
    6    2   13   12       -0.0000047185
    6    2   13   13        0.0000001492
    7    2    7    2        0.0000993948
    7    2    8    2       -0.0000000190
    7    2    9    2        0.0000000085
    7    2   10    2       -0.0000000191
    7    2   11    2       -0.0000000331
    7    2   12    2       -0.0000000206
    7    2   13    2        0.0000000145
    7    2    3    3       -0.0000000023
    7    2    4    3       -0.0000000012
    7    2    5    3       -0.0000000191
    7    2    6    3       -0.0000000065
    7    2    7    3       -0.0000036712
    7    2    8    3        0.0000000140
    7    2    9    3       -0.0000000008
    7    2   10    3       -0.0000000181
    7    2   11    3       -0.0000010278
    7    2   12    3        0.0000001593
    7    2   13    3       -0.0000000096
    7    2    4    4       -0.0000000006
    7    2    5    4        0.0000000170
    7    2    6    4        0.0000000058
    7    2    7    4        0.0000044866
    7    2    8    4       -0.0000000016
    7    2    9    4       -0.0000000001
    7    2   10    4        0.0000000038
    7    2   11    4        0.0000001571
    7    2   12    4        0.0000000053
    7    2   13    4        0.0000000015
    7    2    5    5       -0.0000004520
    7    2    6    5        0.0000005818
    7    2    7    5       -0.0000000072
    7    2    8    5       -0.0000011365
    7    2    9    5        0.0000000003
    7    2   10    5       -0.0000000014
    7    2   11    5       -0.0000632913
    7    2   12    5       -0.0000133550
    7    2   13    5        0.0000000019
    7    2    6    6        0.0000004474
    7    2    7    6        0.0000000475
    7    2    8    6       -0.0000003937
    7    2    9    6        0.0000000002
    7    2   10    6       -0.0000000067
    7    2   11    6        0.0002205162
    7    2   12    6        0.0000183636
    7    2   13    6        0.0000000017
    7    2    7    7        0.0000000100
    7    2    8    7       -0.0005116999
    7    2    9    7       -0.0000015709
    7    2   10    7        0.0000005144
    7    2   11    7        0.0000000692
    7    2   12    7        0.0000000045
    7    2   13    7        0.0000018622
    7    2    8    8        0.0000000124
    7    2    9    8        0.0000000050
    7    2   10    8       -0.0000000005
    7    2   11    8       -0.0000000044
    7    2   12    8       -0.0000000642
    7    2   13    8        0.0000000029
    7    2    9    9       -0.0000000034
    7    2   10    9       -0.0000000138
    7    2   11    9       -0.0000000426
[...]
   10    7   10   10       -0.0000001728
   10    7   11   10       -0.0000011990
   10    7   12   10       -0.0000003444
   10    7   13   10        0.0000001132
   10    7   11   11        0.0000200598
   10    7   12   11       -0.0000178860
   10    7   13   11        0.0000006562
   10    7   12   12       -0.0000102814
   10    7   13   12        0.0000020817
   10    7   13   13       -0.0000002180
   11    7   11    7        0.0039477603
   11    7   12    7       -0.0005493813
   11    7   13    7        0.0000273786
   11    7    8    8        0.0000230255
   11    7    9    8       -0.0000017516
   11    7   10    8       -0.0000117438
   11    7   11    8       -0.0015633569
   11    7   12    8        0.0031280074
   11    7   13    8       -0.0000645538
   11    7    9    9        0.0000276167
   11    7   10    9       -0.0000026413
   11    7   11    9       -0.0003270314
   11    7   12    9        0.0006886561
   11    7   13    9       -0.0000147482
   11    7   10   10        0.0000194763
   11    7   11   10        0.0000248122
   11    7   12   10       -0.0001033619
   11    7   13   10        0.0000010108
   11    7   11   11       -0.0000141760
   11    7   12   11       -0.0000032827
   11    7   13   11       -0.0001017777
   11    7   12   12        0.0000179536
   11    7   13   12        0.0002218602
   11    7   13   13        0.0000242804
   12    7   12    7        0.0097969323
   12    7   13    7       -0.0002844231
   12    7    8    8        0.0000013939
   12    7    9    8       -0.0000019324
   12    7   10    8       -0.0000006134
   12    7   11    8        0.0122786844
   12    7   12    8        0.0014788675
   12    7   13    8       -0.0000039922
   12    7    9    9        0.0000039596
   12    7   10    9        0.0000068721
   12    7   11    9        0.0006721485
   12    7   12    9        0.0007085027
   12    7   13    9       -0.0000101197
   12    7   10   10       -0.0000004316
   12    7   11   10       -0.0001133047
   12    7   12   10       -0.0001195679
   12    7   13   10        0.0000095772
   12    7   11   11       -0.0000039508
   12    7   12   11       -0.0000178162
   12    7   13   11        0.0002249940
   12    7   12   12       -0.0000248532
   12    7   13   12        0.0002284183
   12    7   13   13        0.0000031160
   13    7   13    7        0.0064205707
   13    7    8    8        0.0000000547
   13    7    9    8        0.0000000595
   13    7   10    8       -0.0000002904
   13    7   11    8       -0.0003777425
   13    7   12    8       -0.0000318200
   13    7   13    8       -0.0000001684
   13    7    9    9        0.0000000481
   13    7   10    9       -0.0000000318
   13    7   11    9       -0.0000225674
   13    7   12    9       -0.0000106310
   13    7   13    9        0.0000000227
   13    7   10   10        0.0000001023
   13    7   11   10        0.0000041925
   13    7   12   10        0.0000048848
   13    7   13   10       -0.0000000643
   13    7   11   11       -0.0000104273
   13    7   12   11        0.0000863752
   13    7   13   11       -0.0000000628
   13    7   12   12        0.0001077541
   13    7   13   12        0.0000023708
   13    7   13   13        0.0000000588
    8    8    8    8        0.0922117939
    8    8    9    8        0.0000061012
    8    8   10    8       -0.0000052332
    8    8   11    8       -0.0000230107
    8    8   12    8        0.0000080561
    8    8   13    8        0.0000040072
    8    8    9    9        0.0865979080
    8    8   10    9       -0.0040344806
    8    8   11    9       -0.0000310638
    8    8   12    9        0.0003216128
    8    8   13    9        0.0036109242
    8    8   10   10        0.0872634102
    8    8   11   10        0.0000053899
    8    8   12   10       -0.0000593928
    8    8   13   10       -0.0026456456
    8    8   11   11        0.0954976164
    8    8   12   11        0.0004307982
    8    8   13   11       -0.0000006642
    8    8   12   12        0.0909158866
    8    8   13   12        0.0000068784
    8    8   13   13        0.0900845171
    9    8    9    8        0.0054164108
    9    8   10    8       -0.0002300935
    9    8   11    8       -0.0000063053
    9    8   12    8        0.0000662396
    9    8   13    8       -0.0007558836
    9    8    9    9       -0.0000215890
    9    8   10    9        0.0000007149
    9    8   11    9       -0.0000022131
    9    8   12    9       -0.0000000820
    9    8   13    9        0.0000398859
    9    8   10   10        0.0000260913
    9    8   11   10       -0.0000001809
    9    8   12   10       -0.0000008925
    9    8   13   10        0.0000688835
    9    8   11   11        0.0006904883
    9    8   12   11       -0.0000073753
    9    8   13   11        0.0000007100
    9    8   12   12        0.0001715496
    9    8   13   12       -0.0000004525
    9    8   13   13        0.0000524514
   10    8   10    8        0.0012324639
   10    8   11    8        0.0000000741
   10    8   12    8       -0.0000062039
   10    8   13    8        0.0002854229
   10    8    9    9       -0.0000347997
   10    8   10    9       -0.0000217542
   10    8   11    9        0.0000002367
   10    8   12    9       -0.0000001493
   10    8   13    9        0.0000161914
   10    8   10   10       -0.0000356008
   10    8   11   10       -0.0000003807
   10    8   12   10       -0.0000001444
   10    8   13   10        0.0000084207
   10    8   11   11       -0.0000123973
   10    8   12   11        0.0000024196
   10    8   13   11       -0.0000001239
   10    8   12   12       -0.0000281857
   10    8   13   12        0.0000001738
   10    8   13   13       -0.0000215028
   11    8   11    8        0.0195323411
   11    8   12    8        0.0013706347
   11    8   13    8        0.0000040740
   11    8    9    9       -0.0000277953
   11    8   10    9        0.0000030680
   11    8   11    9        0.0012714288
   11    8   12    9       -0.0000778971
   11    8   13    9        0.0000122328
   11    8   10   10       -0.0000192096
   11    8   11   10       -0.0001634056
   11    8   12   10        0.0000165757
   11    8   13   10        0.0000001935
   11    8   11   11        0.0000174170
   11    8   12   11       -0.0000271935
   11    8   13   11        0.0003241892
   11    8   12   12       -0.0000503355
   11    8   13   12       -0.0000203035
   11    8   13   13       -0.0000206488
   12    8   12    8        0.0049501995
   12    8   13    8       -0.0000403381
   12    8    9    9        0.0000085321
   12    8   10    9       -0.0000020729
   12    8   11    9        0.0000511795
   12    8   12    9        0.0003079183
   12    8   13    9       -0.0000047902
   12    8   10   10        0.0000054289
   12    8   11   10       -0.0000106541
   12    8   12   10       -0.0000558253
   12    8   13   10        0.0000004070
   12    8   11   11       -0.0000046024
   12    8   12   11       -0.0000077425
   12    8   13   11        0.0000139709
   12    8   12   12        0.0000032259
   12    8   13   12        0.0000841979
   12    8   13   13        0.0000055429
   13    8   13    8        0.0026170209
   13    8    9    9        0.0000074610
   13    8   10    9        0.0000081422
   13    8   11    9        0.0000021022
   13    8   12    9       -0.0000016978
   13    8   13    9        0.0000224965
   13    8   10   10        0.0000259020
   13    8   11   10       -0.0000002267
   13    8   12   10       -0.0000001509
   13    8   13   10        0.0000101346
   13    8   11   11        0.0002047982
   13    8   12   11       -0.0000006110
   13    8   13   11       -0.0000008564
   13    8   12   12        0.0000505344
   13    8   13   12       -0.0000000807
   13    8   13   13        0.0000235136
    9    9    9    9        0.0865869178
    9    9   10    9       -0.0029046760
    9    9   11    9       -0.0000414841
    9    9   12    9        0.0004297070
    9    9   13    9        0.0043367738
    9    9   10   10        0.0884794414
    9    9   11   10        0.0000063232
    9    9   12   10       -0.0000667475
    9    9   13   10       -0.0031802248
    9    9   11   11        0.0898430836
    9    9   12   11        0.0002032013
    9    9   13   11       -0.0000007660
    9    9   12   12        0.0876794319
    9    9   13   12        0.0000073887
    9    9   13   13        0.0886865562
   10    9   10    9        0.0073279587
   10    9   11    9        0.0000046582
   10    9   12    9       -0.0000468795
   10    9   13    9       -0.0011089005
   10    9   10   10       -0.0041917341
   10    9   11   10       -0.0000071707
   10    9   12   10        0.0000747239
   10    9   13   10        0.0047546941
   10    9   11   11       -0.0039196183
   10    9   12   11       -0.0000051657
   10    9   13   11        0.0000015558
   10    9   12   12       -0.0038732401
   10    9   13   12       -0.0000151619
   10    9   13   13       -0.0030178458
   11    9   11    9        0.0031662107
   11    9   12    9       -0.0006021496
   11    9   13    9        0.0000183547
   11    9   10   10       -0.0000290263
   11    9   11   10        0.0000303127
   11    9   12   10        0.0001245627
   11    9   13   10        0.0000011827
   11    9   11   11        0.0000057204
   11    9   12   11       -0.0000045772
   11    9   13   11        0.0008292748
   11    9   12   12       -0.0000300387
   11    9   13   12       -0.0001138705
   11    9   13   13       -0.0000278982
   12    9   12    9        0.0095659622
   12    9   13    9       -0.0001911505
   12    9   10   10        0.0002998805
   12    9   11   10        0.0001243019
   12    9   12   10       -0.0012958509
   12    9   13   10       -0.0000112553
   12    9   11   11       -0.0000366414
   12    9   12   11       -0.0000334225
   12    9   13   11       -0.0001141097
   12    9   12   12        0.0002573743
   12    9   13   12        0.0020377233
   12    9   13   13        0.0002886521
   13    9   13    9        0.0073356729
   13    9   10   10        0.0106656673
   13    9   11   10       -0.0000014913
   13    9   12   10        0.0000154743
   13    9   13   10       -0.0009095975
   13    9   11   11        0.0088122287
   13    9   12   11        0.0001279959
   13    9   13   11       -0.0000002508
   13    9   12   12        0.0074430016
   13    9   13   12        0.0000032885
   13    9   13   13        0.0118343771
   10   10   10   10        0.1002904877
   10   10   11   10        0.0000074342
   10   10   12   10       -0.0000777688
   10   10   13   10       -0.0030727442
   10   10   11   11        0.0946054461
   10   10   12   11        0.0001807607
   10   10   13   11       -0.0000013938
   10   10   12   12        0.0926695835
   10   10   13   12        0.0000146724
   10   10   13   13        0.0986103057
   11   10   11   10        0.0010605855
   11   10   12   10       -0.0002915084
   11   10   13   10        0.0000004879
   11   10   11   11       -0.0000009964
   11   10   12   11       -0.0000040537
   11   10   13   11        0.0000721175
   11   10   12   12        0.0000053282
   11   10   13   12        0.0000800707
   11   10   13   13        0.0000034658
   12   10   12   10        0.0041591891
   12   10   13   10       -0.0000046438
   12   10   11   11        0.0000086490
   12   10   12   11        0.0000068800
   12   10   13   11        0.0000801480
   12   10   12   12       -0.0000487131
   12   10   13   12       -0.0007805214
   12   10   13   13       -0.0000378779
   13   10   13   10        0.0098395088
   13   10   11   11       -0.0032312838
   13   10   12   11        0.0000064166
   13   10   13   11        0.0000003766
   13   10   12   12       -0.0033143448
   13   10   13   12       -0.0000017017
   13   10   13   13       -0.0034889731
   11   11   11   11        0.1159696139
   11   11   12   11        0.0008904377
   11   11   13   11        0.0000056566
   11   11   12   12        0.0967209481
   11   11   13   12       -0.0000419008
   11   11   13   13        0.0990672737
   12   11   12   11        0.0046461165
   12   11   13   11       -0.0000084274
   12   11   12   12        0.0010916144
   12   11   13   12       -0.0000039926
   12   11   13   13        0.0003230663
   13   11   13   11        0.0015467844
   13   11   12   12       -0.0000025448
   13   11   13   12       -0.0001287278
   13   11   13   13        0.0000002330
   12   12   12   12        0.0947048344
   12   12   13   12        0.0000026642
   12   12   13   13        0.0956150398
   13   12   13   12        0.0029118497
   13   12   13   13       -0.0000023987
   13   13   13   13        0.1059476022
 end_two_electron_integrals


 output epsi filename:./pspw_hf_H2.emovecs

 Total PSPW energy     :  -0.7724302628E+00


=== Spin Contamination ===

 <Sexact^2> =    0.0000000000000000     
 <S^2>      =    0.0000000000000000     



== Center of Charge ==

spin up     (    0.0000,    0.0000,    0.0005 )
spin down   (    0.0000,    0.0000,    0.0005 )
     total  (    0.0000,    0.0000,    0.0005 )
ionic       (    0.0000,    0.0000,    0.0000 )


== Molecular Dipole wrt Center of Mass ==

mu   =  (   -0.0000,   -0.0000,   -0.0009 ) au
|mu| =     0.0009 au,       0.0024 Debye

 output psi filename:./pspw_hf_H2.movecs

 Writing Crystallographic Information File:./H2.cif
   - cell not shifted (nwpw:cif_shift_cell .false.)


== Timing ==

cputime in seconds
  prologue    :   0.715111E+01
  main loop   :   0.153818E+04
  epilogue    :   0.148452E-01
  total       :   0.154535E+04
  cputime/step:   0.949496E+01       (     162 evalulations,      68 linesearches)


Time spent doing                        total          step       percent
  total time                 :   0.154535E+04  0.953920E+01       100.0 %
  i/o time                   :   0.397738E+00  0.245517E-02         0.0 %
  FFTs                       :   0.136024E+04  0.839655E+01        88.0 %
  dot products               :   0.287664E+01  0.177570E-01         0.2 %
  geodesic                   :   0.159366E+00  0.983739E-03         0.0 %
  ffm_dgemm                  :   0.198329E-01  0.122426E-03         0.0 %
  fmf_dgemm                  :   0.100645E+00  0.621266E-03         0.0 %
  mmm_dgemm                  :   0.207882E-02  0.128322E-04         0.0 %
  m_diagonalize              :   0.681403E-02  0.420619E-04         0.0 %
  local pseudopotentials     :   0.194880E-01  0.120297E-03         0.0 %
  non-local pseudopotentials :   0.488490E+01  0.301537E-01         0.3 %
  structure factors          :   0.204192E+01  0.126045E-01         0.1 %
  phase factors              :   0.822100E-05  0.507469E-07         0.0 %
  masking and packing        :   0.203834E+02  0.125823E+00         1.3 %
  queue fft                  :   0.358961E+01  0.221581E-01         0.2 %
  queue fft (serial)         :   0.152566E+01  0.941765E-02         0.1 %
  queue fft (message passing):   0.190591E+01  0.117648E-01         0.1 %
  HFX potential              :   0.121693E+04  0.751193E+01        78.7 %
  non-local psp FFM          :   0.256516E+01  0.158343E-01         0.2 %
  non-local psp FMF          :   0.640574E+00  0.395416E-02         0.0 %
  non-local psp FFM A        :   0.846935E+00  0.522799E-02         0.1 %
  non-local psp FFM B        :   0.540713E+00  0.333773E-02         0.0 %

== HFX Counters ==
  HFX Evalulations         =   162
  Lin ACE HFX Evalulations =     0


     >>>  JOB COMPLETED     AT Thu May  1 15:53:37 2025  <<<

 Task  times  cpu:     1544.9s     wall:     1545.4s
 Summary of allocated global arrays
-----------------------------------
  No active global arrays


MA_summarize_allocated_blocks: starting scan ...
MA_summarize_allocated_blocks: scan completed: 0 heap blocks, 0 stack blocks
MA usage statistics:

	allocation statistics:
					      heap	     stack
					      ----	     -----
	current number of blocks	         0	         0
	maximum number of blocks	       313	        17
	current total bytes		         0	         0
	maximum total bytes		 942043936	 228700296
	maximum total K-bytes		    942044	    228701
	maximum total M-bytes		       943	       229


                                NWChem Input Module
                                -------------------




                                     CITATION
                                     --------
                Please cite the following reference when publishing
                           results obtained with NWChem:

          E. Apra, E. J. Bylaska, W. A. de Jong, N. Govind, K. Kowalski,
       T. P. Straatsma, M. Valiev, H. J. J. van Dam, Y. Alexeev, J. Anchell,
       V. Anisimov, F. W. Aquino, R. Atta-Fynn, J. Autschbach, N. P. Bauman,
     J. C. Becca, D. E. Bernholdt, K. Bhaskaran-Nair, S. Bogatko, P. Borowski,
         J. Boschen, J. Brabec, A. Bruner, E. Cauet, Y. Chen, G. N. Chuev,
      C. J. Cramer, J. Daily, M. J. O. Deegan, T. H. Dunning Jr., M. Dupuis,
   K. G. Dyall, G. I. Fann, S. A. Fischer, A. Fonari, H. Fruchtl, L. Gagliardi,
      J. Garza, N. Gawande, S. Ghosh, K. Glaesemann, A. W. Gotz, J. Hammond,
       V. Helms, E. D. Hermes, K. Hirao, S. Hirata, M. Jacquelin, L. Jensen,
   B. G. Johnson, H. Jonsson, R. A. Kendall, M. Klemm, R. Kobayashi, V. Konkov,
      S. Krishnamoorthy, M. Krishnan, Z. Lin, R. D. Lins, R. J. Littlefield,
      A. J. Logsdail, K. Lopata, W. Ma, A. V. Marenich, J. Martin del Campo,
   D. Mejia-Rodriguez, J. E. Moore, J. M. Mullin, T. Nakajima, D. R. Nascimento,
    J. A. Nichols, P. J. Nichols, J. Nieplocha, A. Otero-de-la-Roza, B. Palmer,
    A. Panyala, T. Pirojsirikul, B. Peng, R. Peverati, J. Pittner, L. Pollack,
   R. M. Richard, P. Sadayappan, G. C. Schatz, W. A. Shelton, D. W. Silverstein,
   D. M. A. Smith, T. A. Soares, D. Song, M. Swart, H. L. Taylor, G. S. Thomas,
            V. Tipparaju, D. G. Truhlar, K. Tsemekhman, T. Van Voorhis,
      A. Vazquez-Mayagoitia, P. Verma, O. Villa, A. Vishnu, K. D. Vogiatzis,
        D. Wang, J. H. Weare, M. J. Williamson, T. L. Windus, K. Wolinski,
        A. T. Wong, Q. Wu, C. Yang, Q. Yu, M. Zacharias, Z. Zhang, Y. Zhao,
                                and R. J. Harrison
                        "NWChem: Past, present, and future
                         J. Chem. Phys. 152, 184102 (2020)
                               doi:10.1063/5.0004997

                                      AUTHORS
                                      -------
  E. Apra, E. J. Bylaska, N. Govind, K. Kowalski, M. Valiev, D. Mejia-Rodriguez,
       A. Kunitsa, N. P. Bauman, A. Panyala, W. A. de Jong, T. P. Straatsma,
   H. J. J. van Dam, D. Wang, T. L. Windus, J. Hammond, J. Autschbach, A. Woods,
    K. Bhaskaran-Nair, J. Brabec, K. Lopata, S. A. Fischer, S. Krishnamoorthy,
     M. Jacquelin, W. Ma, M. Klemm, O. Villa, Y. Chen, V. Anisimov, F. Aquino,
     S. Hirata, M. T. Hackler, E. Hermes, L. Jensen, J. E. Moore, J. C. Becca,
      V. Konjkov, T. Risthaus, M. Malagoli, A. Marenich, A. Otero-de-la-Roza,
        J. Mullin, P. Nichols, R. Peverati, J. Pittner, Y. Zhao, P.-D. Fan,
        A. Fonari, M. J. Williamson, R. J. Harrison, J. R. Rehr, M. Dupuis,
     D. Silverstein, D. M. A. Smith, J. Nieplocha, V. Tipparaju, M. Krishnan,
     B. E. Van Kuiken, A. Vazquez-Mayagoitia, M. Swart, Q. Wu, T. Van Voorhis,
     A. A. Auer, M. Nooijen, L. D. Crosby, E. Brown, G. Cisneros, G. I. Fann,
   H. Fruchtl, J. Garza, K. Hirao, R. A. Kendall, J. A. Nichols, K. Tsemekhman,
    K. Wolinski, J. Anchell, D. E. Bernholdt, P. Borowski, T. Clark, D. Clerc,
   H. Dachsel, M. J. O. Deegan, K. Dyall, D. Elwood, E. Glendening, M. Gutowski,
   A. C. Hess, J. Jaffe, B. G. Johnson, J. Ju, R. Kobayashi, R. Kutteh, Z. Lin,
   R. Littlefield, X. Long, B. Meng, T. Nakajima, S. Niu, L. Pollack, M. Rosing,
   K. Glaesemann, G. Sandrone, M. Stave, H. Taylor, G. Thomas, J. H. van Lenthe,
                               A. T. Wong, Z. Zhang.

 Total times  cpu:     1544.9s     wall:     1545.4s
