 argument  1 = H2-0.9.nw



============================== echo of input deck ==============================
title "swnc: e theory=pspw4 xc=hf formula=H2 charge=0 mult=1"
#machinejob:expert

echo

start pspw_hf_H2

memory heap 1200 mb stack 1200 mb global 10 mb

charge 0

geometry
H    0.00000    0.00000   -0.4500
H    0.00000    0.00000    0.4500
end

nwpw
  ### pseudopotential block begin ###
  ### pseudopotential block end   ###
  simulation_cell
     SC 15.0000
     boundary_conditions aperiodic
  end

  cutoff 50.0
  mult 1
  xc hf
  lmbfgs
  tolerances 1.0e-9 1.0e-9

  virtual 8
end
set nwpw:cif_filename H2

#set nwpw:CI_maxit_orb 15
#set nwpw:CI_maxit_linesearch 15
set pspw:HFX_screening_radius 14.0


set nwpw:2qintegrals .true.
set nwpw:3x3_virtual .true.

task pspw energy
================================================================================


                                         
                                         


             Northwest Computational Chemistry Package (NWChem) 7.2.3
             --------------------------------------------------------


                    Environmental Molecular Sciences Laboratory
                       Pacific Northwest National Laboratory
                                Richland, WA 99352

                              Copyright (c) 1994-2022
                       Pacific Northwest National Laboratory
                            Battelle Memorial Institute

             NWChem is an open-source computational chemistry package
                        distributed under the terms of the
                      Educational Community License (ECL) 2.0
             A copy of the license is included with this distribution
                              in the LICENSE.TXT file

                                  ACKNOWLEDGMENT
                                  --------------

            This software and its documentation were developed at the
            EMSL at Pacific Northwest National Laboratory, a multiprogram
            national laboratory, operated for the U.S. Department of Energy
            by Battelle under Contract Number DE-AC05-76RL01830. Support
            for this work was provided by the Department of Energy Office
            of Biological and Environmental Research, Office of Basic
            Energy Sciences, and the Office of Advanced Scientific Computing.


           Job information
           ---------------

    hostname        = mqs-al
    program         = nwchem
    date            = Sat Apr  5 16:27:16 2025

    compiled        = Thu_Oct_31_08:55:15_2024
    source          = /home/conda/feedstock_root/build_artifacts/nwchem_1730356057992/work
    nwchem branch   = 7.2.3
    nwchem revision = c400b04
    ga revision     = 5.8.0
    use scalapack   = T
    input           = H2-0.9.nw
    prefix          = pspw_hf_H2.
    data base       = ./pspw_hf_H2.db
    status          = startup
    nproc           =       24
    time left       =     -1s



           Memory information
           ------------------

    heap     =  157286394 doubles =   1200.0 Mbytes
    stack    =  157286399 doubles =   1200.0 Mbytes
    global   =    1310720 doubles =     10.0 Mbytes (distinct from heap & stack)
    total    =  315883513 doubles =   2410.0 Mbytes
    verify   = yes
    hardfail = no 


           Directory information
           ---------------------

  0 permanent = .
  0 scratch   = .




                                NWChem Input Module
                                -------------------


               swnc: e theory=pspw4 xc=hf formula=H2 charge=0 mult=1
               -----------------------------------------------------

 Scaling coordinates for geometry "geometry" by  1.889725989
 (inverse scale =  0.529177249)

  zeroes
  zeroes
  zeroes
  zeroes
  zeroes
  zeroes
  zeroes
  zeroes
  zeroes
  zeroes
  zeroes
  zeroes
  zeroes
  zeroes
  zeroes
  zeroes
  zeroes
  zeroes
  zeroes
  zeroes
  zeroes
  zeroes
  zeroes
  zeroes
  zeroes
  zeroes
  zeroes
  zeroes
  zeroes
  zeroes
  zeroes
  zeroes
  zeroes
  zeroes
  zeroes
  zeroes
  zeroes
  zeroes
  zeroes
  zeroes
  zeroes
  zeroes
  zeroes
  zeroes
  zeroes
  zeroes
  zeroes
  zeroes
 ORDER OF PRIMARY AXIS IS BEING SET TO 4
 D4H symmetry detected

          ------
          auto-z
          ------
  no constraints, skipping    0.0000000000000000     
  no constraints, skipping    0.0000000000000000     


                             Geometry "geometry" -> ""
                             -------------------------

 Output coordinates in angstroms (scale by  1.889725989 to convert to a.u.)

  No.       Tag          Charge          X              Y              Z
 ---- ---------------- ---------- -------------- -------------- --------------
    1 H                    1.0000     0.00000000     0.00000000    -0.45000000
    2 H                    1.0000     0.00000000     0.00000000     0.45000000

      Atomic Mass 
      ----------- 

      H                  1.007825


 Effective nuclear repulsion energy (a.u.)       0.5879747211

            Nuclear Dipole moment (a.u.) 
            ----------------------------
        X                 Y               Z
 ---------------- ---------------- ----------------
     0.0000000000     0.0000000000     0.0000000000

      Symmetry information
      --------------------

 Group name             D4h       
 Group number             28
 Group order              16
 No. of unique centers     1

      Symmetry unique atoms

     1



                                Z-matrix (autoz)
                                -------- 

 Units are Angstrom for bonds and degrees for angles

      Type          Name      I     J     K     L     M      Value
      ----------- --------  ----- ----- ----- ----- ----- ----------
    1 Stretch                  1     2                       0.90000


            XYZ format geometry
            -------------------
     2
 geometry
 H                     0.00000000     0.00000000    -0.45000000
 H                     0.00000000     0.00000000     0.45000000

          ****************************************************
          *                                                  *
          *               NWPW PSPW Calculation              *
          *                                                  *
          * [ (Grassmann/Stiefel manifold implementation)  ] *
          *                                                  *
          *      [ NorthWest Chemistry implementation ]      *
          *                                                  *
          *            version #5.10   06/12/02              *
          *                                                  *
          *    This code was developed by Eric J. Bylaska,   *
          *    and was based upon algorithms and code        *
          *    developed by the group of Prof. John H. Weare *
          *                                                  *
          ****************************************************
     >>>  JOB STARTED       AT Sat Apr  5 16:27:16 2025  <<<
          ================ input data ========================

 input psi filename:./pspw_hf_H2.movecs

 number of processors used:        24
 processor grid           :  24 x   1
 parallel mapping         :2d-hilbert
 parallel mapping         :  balanced
 number of threads        :         1
 parallel io              :       off

 options:
      boundary conditions  = aperiodic   (version4)
      electron spin        = restricted
      exchange-correlation = Hartree-Fock
      - HFX relaxed
      - HFX restricted orbitals :    1
      - HFX free-space coulomb solver


 elements involved in the cluster:
      1: H   valence charge:  1.0000  lmax=  1
             comment    : Parameterized (Chem.Phys.Lett., vol 322, page 447) Hamman psp
             pseudpotential type            :   0
             highest angular component      :   1
             local potential used           :   1
             number of non-local projections:   1
             aperiodic cutoff radius        :  1.000
             cutoff =   0.800   0.800


 total charge:   0.000

 atomic composition:
     H   :    2

 number of electrons: spin up=     1 (   1 per task)  down=     1 (   1 per task) (Fourier space)
 number of orbitals : spin up=     1 (   1 per task)  down=     1 (   1 per task) (Fourier space)

 supercell:
      cell_name:  cell_default                                      
      lattice:    a1=<  15.000   0.000   0.000 >
                  a2=<   0.000  15.000   0.000 >
                  a3=<   0.000   0.000  15.000 >
      reciprocal: b1=<   0.419   0.000   0.000 >
                  b2=<   0.000   0.419   0.000 >
                  b3=<   0.000   0.000   0.419 >
      lattice:    a=      15.000 b=     15.000 c=      15.000
                  alpha=  90.000 beta=  90.000 gamma=  90.000
                  omega=      3375.0

      density cutoff=100.000  fft= 70x 70x 70(    80618 waves     3359 per task)
      wavefnc cutoff= 50.000  fft= 70x 70x 70(    28526 waves     1188 per task)

 technical parameters:
      time step=      5.80     fictitious mass=  400000.0
      tolerance=0.100E-08 (energy)   0.100E-08 (density)
      maximum iterations =      1000 (   10 inner    100 outer )





== Energy Calculation ==


          ============ Grassmann lmbfgs iteration ============
     >>>  ITERATION STARTED AT Sat Apr  5 16:27:22 2025  <<<
    iter.           Energy         DeltaE       DeltaRho 
    ------------------------------------------------------
      10   -0.1119279131E+01   -0.64611E-04    0.15110E-02
      20   -0.1119417166E+01   -0.16906E-05    0.26001E-05
      30   -0.1119421496E+01   -0.67556E-07    0.58079E-08
      40   -0.1119421638E+01   -0.14595E-08    0.10972E-10
      50   -0.1119421640E+01   -0.72689E-09    0.48266E-12
  *** tolerance ok. iteration terminated
     >>>  ITERATION ENDED   AT Sat Apr  5 16:27:25 2025  <<<


==  Summary Of Results  ==

 number of electrons: spin up=    1.00000  down=    1.00000 (real space)

 total     energy    :  -0.1119421640E+01 (   -0.55971E+00/ion)
 total orbital energy:  -0.1101846248E+01 (   -0.11018E+01/electron)
 hartree   energy    :   0.1211100226E+01 (    0.12111E+01/electron)
 exc-corr  energy    :   0.0000000000E+00 (    0.00000E+00/electron)
 HF exchange energy  :  -0.6055501132E+00 (   -0.60555E+00/electron)
 ion-ion   energy    :   0.5879747211E+00 (    0.29399E+00/ion)

 kinetic (planewave) :   0.9357424983E+00 (    0.93574E+00/electron)
 V_local (planewave) :  -0.2987520017E+01 (   -0.29875E+01/electron)
 V_nl    (planewave) :  -0.2611689554E+00 (   -0.26117E+00/electron)
 V_Coul  (planewave) :   0.2422200453E+01 (    0.24222E+01/electron)
 V_xc.   (planewave) :   0.0000000000E+00 (    0.00000E+00/electron)
 K.S. HFX energy     :  -0.1211100226E+01 (   -0.12111E+01/electron)
 Virial Coefficient  :  -0.8832435433E+00

 orbital energies:
    -0.5509231E+00 ( -14.991eV)


== Virtual Orbital Calculation ==


 input epsi filename:./pspw_hf_H2.emovecs

 COVOs Mimimization
 ------------------
CI gradient algorithm =         3
maxit_sweeps          =         3
maxit_orb             =       120
maxit_linesearch      =        15
maxerror              = 0.100E-08

     orb,it,eci,eold,eci-eold=                    1                    1  -1.1410779094107384       -1.1409036381283788       -1.7427128235958378E-004 F
     orb,it,eci,eold,eci-eold=                    1                    2  -1.1411008071666786       -1.1410779094107384       -2.2897755940221032E-005 F
     orb,it,eci,eold,eci-eold=                    1                    3  -1.1411076771656339       -1.1411008071666786       -6.8699989552722940E-006 F
     orb,it,eci,eold,eci-eold=                    1                    4  -1.1411414181745412       -1.1411076771656339       -3.3741008907295367E-005 F
     orb,it,eci,eold,eci-eold=                    1                    5  -1.1411608203111641       -1.1411414181745412       -1.9402136622881372E-005 F
     orb,it,eci,eold,eci-eold=                    1                    6  -1.1411735206135654       -1.1411608203111641       -1.2700302401302821E-005 F
     orb,it,eci,eold,eci-eold=                    1                    7  -1.1411816644554968       -1.1411735206135654       -8.1438419314849853E-006 F
     orb,it,eci,eold,eci-eold=                    1                    8  -1.1411870747351049       -1.1411816644554968       -5.4102796080979232E-006 F
     orb,it,eci,eold,eci-eold=                    1                    9  -1.1411921321955125       -1.1411870747351049       -5.0574604075759311E-006 F
     orb,it,eci,eold,eci-eold=                    1                   10  -1.1411923846038172       -1.1411921321955125       -2.5240830470174558E-007 F
     orb,it,eci,eold,eci-eold=                    1                   11  -1.1411940667049607       -1.1411923846038172       -1.6821011434853261E-006 F
     orb,it,eci,eold,eci-eold=                    1                   12  -1.1412047766963260       -1.1411940667049607       -1.0709991365320803E-005 F
     orb,it,eci,eold,eci-eold=                    1                   13  -1.1412148986881419       -1.1412047766963260       -1.0121991815825737E-005 F
     orb,it,eci,eold,eci-eold=                    1                   14  -1.1412214035059773       -1.1412148986881419       -6.5048178354842889E-006 F
     orb,it,eci,eold,eci-eold=                    1                   15  -1.1412240597586853       -1.1412214035059773       -2.6562527080109533E-006 F
     orb,it,eci,eold,eci-eold=                    1                   16  -1.1412256102148008       -1.1412240597586853       -1.5504561154955354E-006 F
     orb,it,eci,eold,eci-eold=                    1                   17  -1.1412338145220573       -1.1412256102148008       -8.2043072564541575E-006 F
     orb,it,eci,eold,eci-eold=                    1                   18  -1.1412383455593591       -1.1412338145220573       -4.5310373018025984E-006 F
     orb,it,eci,eold,eci-eold=                    1                   19  -1.1412402247535338       -1.1412383455593591       -1.8791941747142715E-006 F
     orb,it,eci,eold,eci-eold=                    1                   20  -1.1412410149366909       -1.1412402247535338       -7.9018315712886533E-007 F
     orb,it,eci,eold,eci-eold=                    1                   21  -1.1412443398456982       -1.1412410149366909       -3.3249090072295928E-006 F
     orb,it,eci,eold,eci-eold=                    1                   22  -1.1412461400634322       -1.1412443398456982       -1.8002177339937475E-006 F
     orb,it,eci,eold,eci-eold=                    1                   23  -1.1412469635328684       -1.1412461400634322       -8.2346943619526769E-007 F
     orb,it,eci,eold,eci-eold=                    1                   24  -1.1412473808280188       -1.1412469635328684       -4.1729515043442689E-007 F
     orb,it,eci,eold,eci-eold=                    1                   25  -1.1412488346761389       -1.1412473808280188       -1.4538481201142872E-006 F
     orb,it,eci,eold,eci-eold=                    1                   26  -1.1412496018732372       -1.1412488346761389       -7.6719709829475846E-007 F
     orb,it,eci,eold,eci-eold=                    1                   27  -1.1412499490329515       -1.1412496018732372       -3.4715971430898662E-007 F
     orb,it,eci,eold,eci-eold=                    1                   28  -1.1412501053230062       -1.1412499490329515       -1.5629005467587831E-007 F
     orb,it,eci,eold,eci-eold=                    1                   29  -1.1412507183883238       -1.1412501053230062       -6.1306531762284067E-007 F
     orb,it,eci,eold,eci-eold=                    1                   30  -1.1412507512634296       -1.1412507183883238       -3.2875105748786382E-008 F
     orb,it,eci,eold,eci-eold=                    1                   31  -1.1412507754187864       -1.1412507512634296       -2.4155356825872332E-008 F
     orb,it,eci,eold,eci-eold=                    1                   32  -1.1412511654110102       -1.1412507754187864       -3.8999222384816790E-007 F
     orb,it,eci,eold,eci-eold=                    1                   33  -1.1412513934883564       -1.1412511654110102       -2.2807734612051433E-007 F
     orb,it,eci,eold,eci-eold=                    1                   34  -1.1412516404306032       -1.1412513934883564       -2.4694224687316080E-007 F
     orb,it,eci,eold,eci-eold=                    1                   35  -1.1412517669390323       -1.1412516404306032       -1.2650842906580806E-007 F
     orb,it,eci,eold,eci-eold=                    1                   36  -1.1412519228649227       -1.1412517669390323       -1.5592589042157101E-007 F
     orb,it,eci,eold,eci-eold=                    1                   37  -1.1412520000555295       -1.1412519228649227       -7.7190606795340955E-008 F
     orb,it,eci,eold,eci-eold=                    1                   38  -1.1412521111954628       -1.1412520000555295       -1.1113993325650995E-007 F
     orb,it,eci,eold,eci-eold=                    1                   39  -1.1412521787204100       -1.1412521111954628       -6.7524947189312456E-008 F
     orb,it,eci,eold,eci-eold=                    1                   40  -1.1412522766915920       -1.1412521787204100       -9.7971182055900385E-008 F
     orb,it,eci,eold,eci-eold=                    1                   41  -1.1412523288763130       -1.1412522766915920       -5.2184720988890376E-008 F
     orb,it,eci,eold,eci-eold=                    1                   42  -1.1412523864770814       -1.1412523288763130       -5.7600768377241707E-008 F
     orb,it,eci,eold,eci-eold=                    1                   43  -1.1412524147195628       -1.1412523864770814       -2.8242481464602065E-008 F
     orb,it,eci,eold,eci-eold=                    1                   44  -1.1412524598284151       -1.1412524147195628       -4.5108852209096995E-008 F
     orb,it,eci,eold,eci-eold=                    1                   45  -1.1412524857750919       -1.1412524598284151       -2.5946676807109270E-008 F
     orb,it,eci,eold,eci-eold=                    1                   46  -1.1412525194642629       -1.1412524857750919       -3.3689171008433050E-008 F
     orb,it,eci,eold,eci-eold=                    1                   47  -1.1412525195177921       -1.1412525194642629       -5.3529181087696998E-011 F
     orbital   1 current e=  0.441773E+00 error=0.434E-01 (eci= -0.114125252E+01 error=0.535E-10) iterations  47(   0 preconditioned, Ep,Sp= 20.0  200.0)
     orb,it,eci,eold,eci-eold=                    1                    1  -1.1412526010171795       -1.1412525195177921       -8.1499387460937101E-008 F
     orb,it,eci,eold,eci-eold=                    1                    2  -1.1412526079648493       -1.1412526010171795       -6.9476697728276804E-009 F
     orb,it,eci,eold,eci-eold=                    1                    3  -1.1412526120018280       -1.1412526079648493       -4.0369787512872790E-009 F
     orb,it,eci,eold,eci-eold=                    1                    4  -1.1412526216250116       -1.1412526120018280       -9.6231835833293644E-009 F
     orb,it,eci,eold,eci-eold=                    1                    5  -1.1412526283755788       -1.1412526216250116       -6.7505672163292729E-009 F
     orb,it,eci,eold,eci-eold=                    1                    6  -1.1412526390103910       -1.1412526283755788       -1.0634812142029659E-008 F
     orb,it,eci,eold,eci-eold=                    1                    7  -1.1412526398642595       -1.1412526390103910       -8.5386853143631924E-010 F
     orbital   1 current e=  0.441721E+00 error=0.517E-04 (eci= -0.114125264E+01 error=0.854E-09) iterations   7(   0 preconditioned, Ep,Sp= 20.0  200.0)
     orb,it,eci,eold,eci-eold=                    1                    1  -1.1412526475732925       -1.1412526398642595       -7.7090329675399971E-009 F
     orb,it,eci,eold,eci-eold=                    1                    2  -1.1412526495797559       -1.1412526475732925       -2.0064634398408998E-009 F
     orb,it,eci,eold,eci-eold=                    1                    3  -1.1412526529964788       -1.1412526495797559       -3.4167229046033754E-009 F
     orb,it,eci,eold,eci-eold=                    1                    4  -1.1412526552218685       -1.1412526529964788       -2.2253896503343640E-009 F
     orb,it,eci,eold,eci-eold=                    1                    5  -1.1412526559937066       -1.1412526552218685       -7.7183814894965508E-010 F
     orbital   1 current e=  0.441726E+00 error=0.540E-05 (eci= -0.114125266E+01 error=0.772E-09) iterations   5(   0 preconditioned, Ep,Sp= 20.0  200.0)
     orb,it,eci,eold,eci-eold=                    2                    1  -1.1264323660775342       -1.1263745641844389       -5.7801893095232870E-005 F
     orb,it,eci,eold,eci-eold=                    2                    2  -1.1264525552267970       -1.1264323660775342       -2.0189149262828110E-005 F
     orb,it,eci,eold,eci-eold=                    2                    3  -1.1264645120435843       -1.1264525552267970       -1.1956816787339619E-005 F
     orb,it,eci,eold,eci-eold=                    2                    4  -1.1264720683231551       -1.1264645120435843       -7.5562795707195818E-006 F
     orb,it,eci,eold,eci-eold=                    2                    5  -1.1264748490663723       -1.1264720683231551       -2.7807432172455293E-006 F
     orb,it,eci,eold,eci-eold=                    2                    6  -1.1264761834044819       -1.1264748490663723       -1.3343381095598517E-006 F
     orb,it,eci,eold,eci-eold=                    2                    7  -1.1264776218281844       -1.1264761834044819       -1.4384237025932833E-006 F
     orb,it,eci,eold,eci-eold=                    2                    8  -1.1264794008399821       -1.1264776218281844       -1.7790117976534958E-006 F
     orb,it,eci,eold,eci-eold=                    2                    9  -1.1264804080929025       -1.1264794008399821       -1.0072529204041558E-006 F
     orb,it,eci,eold,eci-eold=                    2                   10  -1.1264820802053610       -1.1264804080929025       -1.6721124584950786E-006 F
     orb,it,eci,eold,eci-eold=                    2                   11  -1.1264821667931812       -1.1264820802053610       -8.6587820247174818E-008 F
     orb,it,eci,eold,eci-eold=                    2                   12  -1.1264826961987213       -1.1264821667931812       -5.2940554007285812E-007 F
     orb,it,eci,eold,eci-eold=                    2                   13  -1.1264838142167737       -1.1264826961987213       -1.1180180523595595E-006 F
     orb,it,eci,eold,eci-eold=                    2                   14  -1.1264838770375589       -1.1264838142167737       -6.2820785240447208E-008 F
     orb,it,eci,eold,eci-eold=                    2                   15  -1.1264842180971024       -1.1264838770375589       -3.4105954349605838E-007 F
     orb,it,eci,eold,eci-eold=                    2                   16  -1.1264850145317300       -1.1264842180971024       -7.9643462758127725E-007 F
     orb,it,eci,eold,eci-eold=                    2                   17  -1.1264854409476794       -1.1264850145317300       -4.2641594943937378E-007 F
     orb,it,eci,eold,eci-eold=                    2                   18  -1.1264859630781041       -1.1264854409476794       -5.2213042467386117E-007 F
     orb,it,eci,eold,eci-eold=                    2                   19  -1.1264862365113231       -1.1264859630781041       -2.7343321895578754E-007 F
     orb,it,eci,eold,eci-eold=                    2                   20  -1.1264864408786728       -1.1264862365113231       -2.0436734970985526E-007 F
     orb,it,eci,eold,eci-eold=                    2                   21  -1.1264865329442351       -1.1264864408786728       -9.2065562284915359E-008 F
     orb,it,eci,eold,eci-eold=                    2                   22  -1.1264867509566598       -1.1264865329442351       -2.1801242477970106E-007 F
     orb,it,eci,eold,eci-eold=                    2                   23  -1.1264868781664410       -1.1264867509566598       -1.2720978115332571E-007 F
     orb,it,eci,eold,eci-eold=                    2                   24  -1.1264869734433793       -1.1264868781664410       -9.5276938338884065E-008 F
     orb,it,eci,eold,eci-eold=                    2                   25  -1.1264870200119776       -1.1264869734433793       -4.6568598310869902E-008 F
     orb,it,eci,eold,eci-eold=                    2                   26  -1.1264871111796511       -1.1264870200119776       -9.1167673410552652E-008 F
     orb,it,eci,eold,eci-eold=                    2                   27  -1.1264871599253277       -1.1264871111796511       -4.8745676606287702E-008 F
     orb,it,eci,eold,eci-eold=                    2                   28  -1.1264872127917549       -1.1264871599253277       -5.2866427235898072E-008 F
     orb,it,eci,eold,eci-eold=                    2                   29  -1.1264872405834296       -1.1264872127917549       -2.7791674739319205E-008 F
     orb,it,eci,eold,eci-eold=                    2                   30  -1.1264872683037630       -1.1264872405834296       -2.7720333362069027E-008 F
     orb,it,eci,eold,eci-eold=                    2                   31  -1.1264872826372896       -1.1264872683037630       -1.4333526587861911E-008 F
     orb,it,eci,eold,eci-eold=                    2                   32  -1.1264873088406202       -1.1264872826372896       -2.6203330616425546E-008 F
     orb,it,eci,eold,eci-eold=                    2                   33  -1.1264873238912465       -1.1264873088406202       -1.5050626300805447E-008 F
     orb,it,eci,eold,eci-eold=                    2                   34  -1.1264873362841303       -1.1264873238912465       -1.2392883830258938E-008 F
     orb,it,eci,eold,eci-eold=                    2                   35  -1.1264873417743981       -1.1264873362841303       -5.4902677959489665E-009 F
     orb,it,eci,eold,eci-eold=                    2                   36  -1.1264873522548280       -1.1264873417743981       -1.0480429857295803E-008 F
     orb,it,eci,eold,eci-eold=                    2                   37  -1.1264873582704771       -1.1264873522548280       -6.0156490899743176E-009 F
     orb,it,eci,eold,eci-eold=                    2                   38  -1.1264873642966702       -1.1264873582704771       -6.0261931000837876E-009 F
     orb,it,eci,eold,eci-eold=                    2                   39  -1.1264873672125768       -1.1264873642966702       -2.9159066272654854E-009 F
     orb,it,eci,eold,eci-eold=                    2                   40  -1.1264873706799932       -1.1264873672125768       -3.4674163540415748E-009 F
     orb,it,eci,eold,eci-eold=                    2                   41  -1.1264873706799932       -1.1264873706799932        0.0000000000000000      F
     orbital   2 current e=  0.834646E+00 error=0.112E+00 (eci= -0.112648737E+01 error=0.000E+00) iterations  41(   0 preconditioned, Ep,Sp= 20.0  200.0)
     orb,it,eci,eold,eci-eold=                    2                    1  -1.1264873775077309       -1.1264873698146614       -7.6930695147581218E-009 F
     orb,it,eci,eold,eci-eold=                    2                    2  -1.1264873775077309       -1.1264873775077309        0.0000000000000000      F
     orbital   2 current e=  0.834634E+00 error=0.128E-04 (eci= -0.112648738E+01 error=0.000E+00) iterations   2(   0 preconditioned, Ep,Sp= 20.0  200.0)
     orb,it,eci,eold,eci-eold=                    2                    1  -1.1264873828292954       -1.1264873770157120       -5.8135833924666258E-009 F
     orb,it,eci,eold,eci-eold=                    2                    2  -1.1264873828292954       -1.1264873828292954        0.0000000000000000      F
     orbital   2 current e=  0.834600E+00 error=0.336E-04 (eci= -0.112648738E+01 error=0.000E+00) iterations   2(   0 preconditioned, Ep,Sp= 20.0  200.0)
     orb,it,eci,eold,eci-eold=                    3                    1  -1.1251986048268374       -1.1251677958837241       -3.0808943113358467E-005 F
     orb,it,eci,eold,eci-eold=                    3                    2  -1.1252036345473755       -1.1251986048268374       -5.0297205380633869E-006 F
     orb,it,eci,eold,eci-eold=                    3                    3  -1.1252095453941700       -1.1252036345473755       -5.9108467944657406E-006 F
     orb,it,eci,eold,eci-eold=                    3                    4  -1.1252123006058830       -1.1252095453941700       -2.7552117130014153E-006 F
     orb,it,eci,eold,eci-eold=                    3                    5  -1.1252132734345697       -1.1252123006058830       -9.7282868671833000E-007 F
     orb,it,eci,eold,eci-eold=                    3                    6  -1.1252139599584239       -1.1252132734345697       -6.8652385420975293E-007 F
     orb,it,eci,eold,eci-eold=                    3                    7  -1.1252142508608278       -1.1252139599584239       -2.9090240394324951E-007 F
     orb,it,eci,eold,eci-eold=                    3                    8  -1.1252143741593656       -1.1252142508608278       -1.2329853782411249E-007 F
     orb,it,eci,eold,eci-eold=                    3                    9  -1.1252152847505501       -1.1252143741593656       -9.1059118445535603E-007 F
     orb,it,eci,eold,eci-eold=                    3                   10  -1.1252155495848046       -1.1252152847505501       -2.6483425452639153E-007 F
     orb,it,eci,eold,eci-eold=                    3                   11  -1.1252157290377698       -1.1252155495848046       -1.7945296515442521E-007 F
     orb,it,eci,eold,eci-eold=                    3                   12  -1.1252162794917897       -1.1252157290377698       -5.5045401992082077E-007 F
     orb,it,eci,eold,eci-eold=                    3                   13  -1.1252164481351594       -1.1252162794917897       -1.6864336971345040E-007 F
     orb,it,eci,eold,eci-eold=                    3                   14  -1.1252165885903387       -1.1252164481351594       -1.4045517926497553E-007 F
     orb,it,eci,eold,eci-eold=                    3                   15  -1.1252169592177717       -1.1252165885903387       -3.7062743296623069E-007 F
     orb,it,eci,eold,eci-eold=                    3                   16  -1.1252170449647432       -1.1252169592177717       -8.5746971523192883E-008 F
     orb,it,eci,eold,eci-eold=                    3                   17  -1.1252171364829684       -1.1252170449647432       -9.1518225220355021E-008 F
     orb,it,eci,eold,eci-eold=                    3                   18  -1.1252174010685592       -1.1252171364829684       -2.6458559077013888E-007 F
     orb,it,eci,eold,eci-eold=                    3                   19  -1.1252174271909798       -1.1252174010685592       -2.6122420671015334E-008 F
     orb,it,eci,eold,eci-eold=                    3                   20  -1.1252174594389590       -1.1252174271909798       -3.2247979175892283E-008 F
     orb,it,eci,eold,eci-eold=                    3                   21  -1.1252176362225756       -1.1252174594389590       -1.7678361663442388E-007 F
     orb,it,eci,eold,eci-eold=                    3                   22  -1.1252176698132279       -1.1252176362225756       -3.3590652259718468E-008 F
     orb,it,eci,eold,eci-eold=                    3                   23  -1.1252176859569474       -1.1252176698132279       -1.6143719472339058E-008 F
     orb,it,eci,eold,eci-eold=                    3                   24  -1.1252178047765047       -1.1252176859569474       -1.1881955730430604E-007 F
     orb,it,eci,eold,eci-eold=                    3                   25  -1.1252178285981400       -1.1252178047765047       -2.3821635330989466E-008 F
     orb,it,eci,eold,eci-eold=                    3                   26  -1.1252178370938970       -1.1252178285981400       -8.4957569868038263E-009 F
     orb,it,eci,eold,eci-eold=                    3                   27  -1.1252179331216614       -1.1252178370938970       -9.6027764406869665E-008 F
     orb,it,eci,eold,eci-eold=                    3                   28  -1.1252179552917341       -1.1252179331216614       -2.2170072666582996E-008 F
     orb,it,eci,eold,eci-eold=                    3                   29  -1.1252179628075378       -1.1252179552917341       -7.5158037571299019E-009 F
     orb,it,eci,eold,eci-eold=                    3                   30  -1.1252180580853737       -1.1252179628075378       -9.5277835843177172E-008 F
     orb,it,eci,eold,eci-eold=                    3                   31  -1.1252180616496128       -1.1252180580853737       -3.5642391260637396E-009 F
     orb,it,eci,eold,eci-eold=                    3                   32  -1.1252180629953747       -1.1252180616496128       -1.3457619463252968E-009 F
     orb,it,eci,eold,eci-eold=                    3                   33  -1.1252181276334565       -1.1252180629953747       -6.4638081775925116E-008 F
     orb,it,eci,eold,eci-eold=                    3                   34  -1.1252181445466600       -1.1252181276334565       -1.6913203504387297E-008 F
     orb,it,eci,eold,eci-eold=                    3                   35  -1.1252181492380577       -1.1252181445466600       -4.6913977147511332E-009 F
     orb,it,eci,eold,eci-eold=                    3                   36  -1.1252181960698879       -1.1252181492380577       -4.6831830191607082E-008 F
     orb,it,eci,eold,eci-eold=                    3                   37  -1.1252182204441092       -1.1252181960698879       -2.4374221307965627E-008 F
     orb,it,eci,eold,eci-eold=                    3                   38  -1.1252182439033871       -1.1252182204441092       -2.3459277853632443E-008 F
     orb,it,eci,eold,eci-eold=                    3                   39  -1.1252182560895183       -1.1252182439033871       -1.2186131215230489E-008 F
     orb,it,eci,eold,eci-eold=                    3                   40  -1.1252182734665719       -1.1252182560895183       -1.7377053573852663E-008 F
     orb,it,eci,eold,eci-eold=                    3                   41  -1.1252182835351778       -1.1252182734665719       -1.0068605948987397E-008 F
     orb,it,eci,eold,eci-eold=                    3                   42  -1.1252182998769000       -1.1252182835351778       -1.6341722197665831E-008 F
     orb,it,eci,eold,eci-eold=                    3                   43  -1.1252183080872098       -1.1252182998769000       -8.2103097653885015E-009 F
     orb,it,eci,eold,eci-eold=                    3                   44  -1.1252183147806962       -1.1252183080872098       -6.6934864317858001E-009 F
     orb,it,eci,eold,eci-eold=                    3                   45  -1.1252183181513442       -1.1252183147806962       -3.3706479829476166E-009 F
     orb,it,eci,eold,eci-eold=                    3                   46  -1.1252183259790087       -1.1252183181513442       -7.8276645165686887E-009 F
     orb,it,eci,eold,eci-eold=                    3                   47  -1.1252183259790087       -1.1252183259790087        0.0000000000000000      F
     orbital   3 current e=  0.851011E+00 error=0.756E-01 (eci= -0.112521833E+01 error=0.000E+00) iterations  47(   0 preconditioned, Ep,Sp= 20.0  200.0)
     orb,it,eci,eold,eci-eold=                    3                    1  -1.1252183433796770       -1.1252183255375732       -1.7842103794407649E-008 F
     orb,it,eci,eold,eci-eold=                    3                    2  -1.1252183445235211       -1.1252183433796770       -1.1438441305244851E-009 F
     orb,it,eci,eold,eci-eold=                    3                    3  -1.1252183446509854       -1.1252183445235211       -1.2746426136800437E-010 F
     orbital   3 current e=  0.850862E+00 error=0.149E-03 (eci= -0.112521834E+01 error=0.127E-09) iterations   3(   0 preconditioned, Ep,Sp= 20.0  200.0)
     orb,it,eci,eold,eci-eold=                    3                    1  -1.1252183487684140       -1.1252183446509854       -4.1174286202760868E-009 F
     orb,it,eci,eold,eci-eold=                    3                    2  -1.1252183510004439       -1.1252183487684140       -2.2320298942446470E-009 F
     orb,it,eci,eold,eci-eold=                    3                    3  -1.1252183513828706       -1.1252183510004439       -3.8242675692856665E-010 F
     orbital   3 current e=  0.850769E+00 error=0.927E-04 (eci= -0.112521835E+01 error=0.382E-09) iterations   3(   0 preconditioned, Ep,Sp= 20.0  200.0)
     orb,it,eci,eold,eci-eold=                    4                    1  -1.1251983430405976       -1.1251678546517287       -3.0488388868876726E-005 F
     orb,it,eci,eold,eci-eold=                    4                    2  -1.1252033316693404       -1.1251983430405976       -4.9886287427636233E-006 F
     orb,it,eci,eold,eci-eold=                    4                    3  -1.1252092723549985       -1.1252033316693404       -5.9406856580679346E-006 F
     orb,it,eci,eold,eci-eold=                    4                    4  -1.1252121529032726       -1.1252092723549985       -2.8805482741312005E-006 F
     orb,it,eci,eold,eci-eold=                    4                    5  -1.1252130322701768       -1.1252121529032726       -8.7936690418288777E-007 F
     orb,it,eci,eold,eci-eold=                    4                    6  -1.1252136318294770       -1.1252130322701768       -5.9955930020727521E-007 F
     orb,it,eci,eold,eci-eold=                    4                    7  -1.1252140585217887       -1.1252136318294770       -4.2669231170577859E-007 F
     orb,it,eci,eold,eci-eold=                    4                    8  -1.1252142920182584       -1.1252140585217887       -2.3349646971482230E-007 F
     orb,it,eci,eold,eci-eold=                    4                    9  -1.1252152340156503       -1.1252142920182584       -9.4199739186784370E-007 F
     orb,it,eci,eold,eci-eold=                    4                   10  -1.1252154763273114       -1.1252152340156503       -2.4231166118049430E-007 F
     orb,it,eci,eold,eci-eold=                    4                   11  -1.1252157034786683       -1.1252154763273114       -2.2715135683526455E-007 F
     orb,it,eci,eold,eci-eold=                    4                   12  -1.1252162981591165       -1.1252157034786683       -5.9468044821819888E-007 F
     orb,it,eci,eold,eci-eold=                    4                   13  -1.1252163871025611       -1.1252162981591165       -8.8943444609412836E-008 F
     orb,it,eci,eold,eci-eold=                    4                   14  -1.1252164997946039       -1.1252163871025611       -1.1269204280850431E-007 F
     orb,it,eci,eold,eci-eold=                    4                   15  -1.1252169392495217       -1.1252164997946039       -4.3945491778885071E-007 F
     orb,it,eci,eold,eci-eold=                    4                   16  -1.1252170252778404       -1.1252169392495217       -8.6028318690978267E-008 F
     orb,it,eci,eold,eci-eold=                    4                   17  -1.1252170804096500       -1.1252170252778404       -5.5131809562070089E-008 F
     orb,it,eci,eold,eci-eold=                    4                   18  -1.1252173801064771       -1.1252170804096500       -2.9969682713293366E-007 F
     orb,it,eci,eold,eci-eold=                    4                   19  -1.1252174374997017       -1.1252173801064771       -5.7393224617285910E-008 F
     orb,it,eci,eold,eci-eold=                    4                   20  -1.1252174508451280       -1.1252174374997017       -1.3345426319588682E-008 F
     orb,it,eci,eold,eci-eold=                    4                   21  -1.1252176309430046       -1.1252174508451280       -1.8009787661199539E-007 F
     orb,it,eci,eold,eci-eold=                    4                   22  -1.1252177067387494       -1.1252176309430046       -7.5795744791662401E-008 F
     orb,it,eci,eold,eci-eold=                    4                   23  -1.1252177326982409       -1.1252177067387494       -2.5959491445348704E-008 F
     orb,it,eci,eold,eci-eold=                    4                   24  -1.1252178369372046       -1.1252177326982409       -1.0423896368294550E-007 F
     orb,it,eci,eold,eci-eold=                    4                   25  -1.1252178814436913       -1.1252178369372046       -4.4506486718276506E-008 F
     orb,it,eci,eold,eci-eold=                    4                   26  -1.1252179128042967       -1.1252178814436913       -3.1360605445840406E-008 F
     orb,it,eci,eold,eci-eold=                    4                   27  -1.1252179851266801       -1.1252179128042967       -7.2322383415368563E-008 F
     orb,it,eci,eold,eci-eold=                    4                   28  -1.1252180013054596       -1.1252179851266801       -1.6178779427278300E-008 F
     orb,it,eci,eold,eci-eold=                    4                   29  -1.1252180213941969       -1.1252180013054596       -2.0088737340273610E-008 F
     orb,it,eci,eold,eci-eold=                    4                   30  -1.1252180812171828       -1.1252180213941969       -5.9822985898350112E-008 F
     orb,it,eci,eold,eci-eold=                    4                   31  -1.1252180939246501       -1.1252180812171828       -1.2707467300643316E-008 F
     orb,it,eci,eold,eci-eold=                    4                   32  -1.1252181034579372       -1.1252180939246501       -9.5332870486686261E-009 F
     orb,it,eci,eold,eci-eold=                    4                   33  -1.1252181485586199       -1.1252181034579372       -4.5100682743992593E-008 F
     orb,it,eci,eold,eci-eold=                    4                   34  -1.1252181623235420       -1.1252181485586199       -1.3764922091041853E-008 F
     orb,it,eci,eold,eci-eold=                    4                   35  -1.1252181682244449       -1.1252181623235420       -5.9009028774426042E-009 F
     orb,it,eci,eold,eci-eold=                    4                   36  -1.1252182013313030       -1.1252181682244449       -3.3106858143838735E-008 F
     orb,it,eci,eold,eci-eold=                    4                   37  -1.1252182104670232       -1.1252182013313030       -9.1357201803532462E-009 F
     orb,it,eci,eold,eci-eold=                    4                   38  -1.1252182130557788       -1.1252182104670232       -2.5887556542869561E-009 F
     orb,it,eci,eold,eci-eold=                    4                   39  -1.1252182372936472       -1.1252182130557788       -2.4237868379017868E-008 F
     orb,it,eci,eold,eci-eold=                    4                   40  -1.1252182469516496       -1.1252182372936472       -9.6580023978276586E-009 F
     orb,it,eci,eold,eci-eold=                    4                   41  -1.1252182496212448       -1.1252182469516496       -2.6695952115574073E-009 F
     orb,it,eci,eold,eci-eold=                    4                   42  -1.1252182664215162       -1.1252182496212448       -1.6800271396277822E-008 F
     orb,it,eci,eold,eci-eold=                    4                   43  -1.1252182711399077       -1.1252182664215162       -4.7183914553272643E-009 F
     orb,it,eci,eold,eci-eold=                    4                   44  -1.1252182728393558       -1.1252182711399077       -1.6994481377707871E-009 F
     orb,it,eci,eold,eci-eold=                    4                   45  -1.1252182872413565       -1.1252182728393558       -1.4402000703128692E-008 F
     orb,it,eci,eold,eci-eold=                    4                   46  -1.1252182910746067       -1.1252182872413565       -3.8332501617333037E-009 F
     orb,it,eci,eold,eci-eold=                    4                   47  -1.1252182910746067       -1.1252182910746067        0.0000000000000000      F
     orbital   4 current e=  0.851410E+00 error=0.759E-01 (eci= -0.112521829E+01 error=0.000E+00) iterations  47(   0 preconditioned, Ep,Sp= 20.0  200.0)
     orb,it,eci,eold,eci-eold=                    4                    1  -1.1252183166431966       -1.1252182909756179       -2.5667578729127172E-008 F
     orb,it,eci,eold,eci-eold=                    4                    2  -1.1252183219955056       -1.1252183166431966       -5.3523090404183904E-009 F
     orb,it,eci,eold,eci-eold=                    4                    3  -1.1252183275196721       -1.1252183219955056       -5.5241664576044514E-009 F
     orb,it,eci,eold,eci-eold=                    4                    4  -1.1252183405978278       -1.1252183275196721       -1.3078155669532521E-008 F
     orb,it,eci,eold,eci-eold=                    4                    5  -1.1252183482298395       -1.1252183405978278       -7.6320116892958367E-009 F
     orb,it,eci,eold,eci-eold=                    4                    6  -1.1252183503799327       -1.1252183482298395       -2.1500932145812612E-009 F
     orb,it,eci,eold,eci-eold=                    4                    7  -1.1252183503799327       -1.1252183503799327        0.0000000000000000      F
     orbital   4 current e=  0.850612E+00 error=0.797E-03 (eci= -0.112521835E+01 error=0.000E+00) iterations   7(   0 preconditioned, Ep,Sp= 20.0  200.0)
     orb,it,eci,eold,eci-eold=                    4                    1  -1.1252183512096317       -1.1252183496593997       -1.5502319428151168E-009 F
     orb,it,eci,eold,eci-eold=                    4                    2  -1.1252183514173684       -1.1252183512096317       -2.0773671671747707E-010 F
     orbital   4 current e=  0.850588E+00 error=0.239E-04 (eci= -0.112521835E+01 error=0.208E-09) iterations   2(   0 preconditioned, Ep,Sp= 20.0  200.0)
     orb,it,eci,eold,eci-eold=                    5                    1  -1.1206384580172319       -1.1206293800912686       -9.0779259633855247E-006 F
     orb,it,eci,eold,eci-eold=                    5                    2  -1.1206389570937922       -1.1206384580172319       -4.9907656030079295E-007 F
     orb,it,eci,eold,eci-eold=                    5                    3  -1.1206393960858085       -1.1206389570937922       -4.3899201629393758E-007 F
     orb,it,eci,eold,eci-eold=                    5                    4  -1.1206401495789700       -1.1206393960858085       -7.5349316142059308E-007 F
     orb,it,eci,eold,eci-eold=                    5                    5  -1.1206405510869037       -1.1206401495789700       -4.0150793378934679E-007 F
     orb,it,eci,eold,eci-eold=                    5                    6  -1.1206409823087053       -1.1206405510869037       -4.3122180160004575E-007 F
     orb,it,eci,eold,eci-eold=                    5                    7  -1.1206412632934550       -1.1206409823087053       -2.8098474968984988E-007 F
     orb,it,eci,eold,eci-eold=                    5                    8  -1.1206416057447492       -1.1206412632934550       -3.4245129421073273E-007 F
     orb,it,eci,eold,eci-eold=                    5                    9  -1.1206417926270513       -1.1206416057447492       -1.8688230207786205E-007 F
     orb,it,eci,eold,eci-eold=                    5                   10  -1.1206419861811778       -1.1206417926270513       -1.9355412650412518E-007 F
     orb,it,eci,eold,eci-eold=                    5                   11  -1.1206420015934644       -1.1206419861811778       -1.5412286558103006E-008 F
     orb,it,eci,eold,eci-eold=                    5                   12  -1.1206420148278120       -1.1206420015934644       -1.3234347617796516E-008 F
     orb,it,eci,eold,eci-eold=                    5                   13  -1.1206421055840561       -1.1206420148278120       -9.0756244075507198E-008 F
     orb,it,eci,eold,eci-eold=                    5                   14  -1.1206422039013009       -1.1206421055840561       -9.8317244789924985E-008 F
     orb,it,eci,eold,eci-eold=                    5                   15  -1.1206422286402513       -1.1206422039013009       -2.4738950443747854E-008 F
     orb,it,eci,eold,eci-eold=                    5                   16  -1.1206422844711985       -1.1206422286402513       -5.5830947198742820E-008 F
     orb,it,eci,eold,eci-eold=                    5                   17  -1.1206423491061415       -1.1206422844711985       -6.4634942953389896E-008 F
     orb,it,eci,eold,eci-eold=                    5                   18  -1.1206423958078413       -1.1206423491061415       -4.6701699840667743E-008 F
     orb,it,eci,eold,eci-eold=                    5                   19  -1.1206424293321668       -1.1206423958078413       -3.3524325537825916E-008 F
     orb,it,eci,eold,eci-eold=                    5                   20  -1.1206425095468544       -1.1206424293321668       -8.0214687558921582E-008 F
     orb,it,eci,eold,eci-eold=                    5                   21  -1.1206425517696421       -1.1206425095468544       -4.2222787710599619E-008 F
     orb,it,eci,eold,eci-eold=                    5                   22  -1.1206425774456759       -1.1206425517696421       -2.5676033743593507E-008 F
     orb,it,eci,eold,eci-eold=                    5                   23  -1.1206425890840765       -1.1206425774456759       -1.1638400687630224E-008 F
     orb,it,eci,eold,eci-eold=                    5                   24  -1.1206426157815106       -1.1206425890840765       -2.6697434041267343E-008 F
     orb,it,eci,eold,eci-eold=                    5                   25  -1.1206426313218623       -1.1206426157815106       -1.5540351672171937E-008 F
     orb,it,eci,eold,eci-eold=                    5                   26  -1.1206426439430694       -1.1206426313218623       -1.2621207190477435E-008 F
     orb,it,eci,eold,eci-eold=                    5                   27  -1.1206426496712925       -1.1206426439430694       -5.7282230070399009E-009 F
     orb,it,eci,eold,eci-eold=                    5                   28  -1.1206426585618268       -1.1206426496712925       -8.8905343087475330E-009 F
     orb,it,eci,eold,eci-eold=                    5                   29  -1.1206426634337421       -1.1206426585618268       -4.8719153156184802E-009 F
     orb,it,eci,eold,eci-eold=                    5                   30  -1.1206426692043894       -1.1206426634337421       -5.7706472933460873E-009 F
     orb,it,eci,eold,eci-eold=                    5                   31  -1.1206426692043894       -1.1206426692043894        0.0000000000000000      F
     orbital   5 current e=  0.186658E+01 error=0.151E+00 (eci= -0.112064267E+01 error=0.000E+00) iterations  31(   0 preconditioned, Ep,Sp= 20.0  200.0)
     orb,it,eci,eold,eci-eold=                    5                    1  -1.1206426735859178       -1.1206426682621859       -5.3237318997645389E-009 F
     orb,it,eci,eold,eci-eold=                    5                    2  -1.1206426767063733       -1.1206426735859178       -3.1204554495900538E-009 F
     orb,it,eci,eold,eci-eold=                    5                    3  -1.1206426805126122       -1.1206426767063733       -3.8062388796333835E-009 F
     orb,it,eci,eold,eci-eold=                    5                    4  -1.1206426805126122       -1.1206426805126122        0.0000000000000000      F
     orbital   5 current e=  0.186510E+01 error=0.148E-02 (eci= -0.112064268E+01 error=0.000E+00) iterations   4(   0 preconditioned, Ep,Sp= 20.0  200.0)
     orb,it,eci,eold,eci-eold=                    5                    1  -1.1206426859058729       -1.1206426800479707       -5.8579021633420325E-009 F
     orb,it,eci,eold,eci-eold=                    5                    2  -1.1206426864660655       -1.1206426859058729       -5.6019255900707776E-010 F
     orbital   5 current e=  0.186497E+01 error=0.131E-03 (eci= -0.112064269E+01 error=0.560E-09) iterations   2(   0 preconditioned, Ep,Sp= 20.0  200.0)
     orb,it,eci,eold,eci-eold=                    6                    1  -1.1203684196592452       -1.1203581550909061       -1.0264568339080071E-005 F
     orb,it,eci,eold,eci-eold=                    6                    2  -1.1203737534025306       -1.1203684196592452       -5.3337432854849709E-006 F
     orb,it,eci,eold,eci-eold=                    6                    3  -1.1203754985398306       -1.1203737534025306       -1.7451373000021420E-006 F
     orb,it,eci,eold,eci-eold=                    6                    4  -1.1203765744188177       -1.1203754985398306       -1.0758789870113361E-006 F
     orb,it,eci,eold,eci-eold=                    6                    5  -1.1203767039197989       -1.1203765744188177       -1.2950098127184617E-007 F
     orb,it,eci,eold,eci-eold=                    6                    6  -1.1203767186280160       -1.1203767039197989       -1.4708217088710285E-008 F
     orb,it,eci,eold,eci-eold=                    6                    7  -1.1203768880595033       -1.1203767186280160       -1.6943148728465474E-007 F
     orb,it,eci,eold,eci-eold=                    6                    8  -1.1203770354804219       -1.1203768880595033       -1.4742091858366280E-007 F
     orb,it,eci,eold,eci-eold=                    6                    9  -1.1203770897201260       -1.1203770354804219       -5.4239704061487259E-008 F
     orb,it,eci,eold,eci-eold=                    6                   10  -1.1203771031518956       -1.1203770897201260       -1.3431769696481410E-008 F
     orb,it,eci,eold,eci-eold=                    6                   11  -1.1203772164617321       -1.1203771031518956       -1.1330983640256420E-007 F
     orb,it,eci,eold,eci-eold=                    6                   12  -1.1203773370382366       -1.1203772164617321       -1.2057650455865598E-007 F
     orb,it,eci,eold,eci-eold=                    6                   13  -1.1203773841370324       -1.1203773370382366       -4.7098795752376077E-008 F
     orb,it,eci,eold,eci-eold=                    6                   14  -1.1203774303546732       -1.1203773841370324       -4.6217640825574335E-008 F
     orb,it,eci,eold,eci-eold=                    6                   15  -1.1203774613899384       -1.1203774303546732       -3.1035265246615040E-008 F
     orb,it,eci,eold,eci-eold=                    6                   16  -1.1203775201872268       -1.1203774613899384       -5.8797288371437162E-008 F
     orb,it,eci,eold,eci-eold=                    6                   17  -1.1203775530997910       -1.1203775201872268       -3.2912564229548025E-008 F
     orb,it,eci,eold,eci-eold=                    6                   18  -1.1203775822524740       -1.1203775530997910       -2.9152682934352470E-008 F
     orb,it,eci,eold,eci-eold=                    6                   19  -1.1203775822524740       -1.1203775822524740        0.0000000000000000      F
     orbital   6 current e=  0.195248E+01 error=0.272E+00 (eci= -0.112037758E+01 error=0.000E+00) iterations  19(   0 preconditioned, Ep,Sp= 20.0  200.0)
     orb,it,eci,eold,eci-eold=                    6                    1  -1.1203776367495060       -1.1203775818110888       -5.4938417148875374E-008 F
     orb,it,eci,eold,eci-eold=                    6                    2  -1.1203776396175908       -1.1203776367495060       -2.8680848807027814E-009 F
     orb,it,eci,eold,eci-eold=                    6                    3  -1.1203776517397142       -1.1203776396175908       -1.2122123305147170E-008 F
     orb,it,eci,eold,eci-eold=                    6                    4  -1.1203776540365840       -1.1203776517397142       -2.2968698054626202E-009 F
     orb,it,eci,eold,eci-eold=                    6                    5  -1.1203776542829686       -1.1203776540365840       -2.4638469042770339E-010 F
     orbital   6 current e=  0.195705E+01 error=0.457E-02 (eci= -0.112037765E+01 error=0.246E-09) iterations   5(   0 preconditioned, Ep,Sp= 20.0  200.0)
     orb,it,eci,eold,eci-eold=                    6                    1  -1.1203776774790413       -1.1203776542829686       -2.3196072618247854E-008 F
     orb,it,eci,eold,eci-eold=                    6                    2  -1.1203776823101128       -1.1203776774790413       -4.8310715428101503E-009 F
     orb,it,eci,eold,eci-eold=                    6                    3  -1.1203776838778217       -1.1203776823101128       -1.5677088516241611E-009 F
     orb,it,eci,eold,eci-eold=                    6                    4  -1.1203776838778217       -1.1203776838778217        0.0000000000000000      F
     orbital   6 current e=  0.195829E+01 error=0.124E-02 (eci= -0.112037768E+01 error=0.000E+00) iterations   4(   0 preconditioned, Ep,Sp= 20.0  200.0)
     orb,it,eci,eold,eci-eold=                    7                    1  -1.1202687847937032       -1.1202685103408825       -2.7445282069216148E-007 F
     orb,it,eci,eold,eci-eold=                    7                    2  -1.1202688541554340       -1.1202687847937032       -6.9361730803407795E-008 F
     orb,it,eci,eold,eci-eold=                    7                    3  -1.1202707355172639       -1.1202688541554340       -1.8813618298807455E-006 F
     orb,it,eci,eold,eci-eold=                    7                    4  -1.1202725583449344       -1.1202707355172639       -1.8228276705833935E-006 F
     orb,it,eci,eold,eci-eold=                    7                    5  -1.1202734388351998       -1.1202725583449344       -8.8049026536474173E-007 F
     orb,it,eci,eold,eci-eold=                    7                    6  -1.1202740608175024       -1.1202734388351998       -6.2198230255106068E-007 F
     orb,it,eci,eold,eci-eold=                    7                    7  -1.1202747495145469       -1.1202740608175024       -6.8869704450413849E-007 F
     orb,it,eci,eold,eci-eold=                    7                    8  -1.1202747668285531       -1.1202747495145469       -1.7314006228730250E-008 F
     orb,it,eci,eold,eci-eold=                    7                    9  -1.1202748348604081       -1.1202747668285531       -6.8031855038341860E-008 F
     orb,it,eci,eold,eci-eold=                    7                   10  -1.1202751490039686       -1.1202748348604081       -3.1414356049808134E-007 F
     orb,it,eci,eold,eci-eold=                    7                   11  -1.1202753012480950       -1.1202751490039686       -1.5224412641678953E-007 F
     orb,it,eci,eold,eci-eold=                    7                   12  -1.1202756656434592       -1.1202753012480950       -3.6439536410526330E-007 F
     orb,it,eci,eold,eci-eold=                    7                   13  -1.1202758680193172       -1.1202756656434592       -2.0237585807159064E-007 F
     orb,it,eci,eold,eci-eold=                    7                   14  -1.1202760421838649       -1.1202758680193172       -1.7416454767271716E-007 F
     orb,it,eci,eold,eci-eold=                    7                   15  -1.1202761351429820       -1.1202760421838649       -9.2959117070634534E-008 F
     orb,it,eci,eold,eci-eold=                    7                   16  -1.1202762902649042       -1.1202761351429820       -1.5512192219624410E-007 F
     orb,it,eci,eold,eci-eold=                    7                   17  -1.1202763622104395       -1.1202762902649042       -7.1945535307094133E-008 F
     orb,it,eci,eold,eci-eold=                    7                   18  -1.1202764319535856       -1.1202763622104395       -6.9743146147160928E-008 F
     orb,it,eci,eold,eci-eold=                    7                   19  -1.1202764739777826       -1.1202764319535856       -4.2024197011159004E-008 F
     orb,it,eci,eold,eci-eold=                    7                   20  -1.1202765469695599       -1.1202764739777826       -7.2991777289033166E-008 F
     orb,it,eci,eold,eci-eold=                    7                   21  -1.1202765842277524       -1.1202765469695599       -3.7258192531197665E-008 F
     orb,it,eci,eold,eci-eold=                    7                   22  -1.1202766257235235       -1.1202765842277524       -4.1495771041510920E-008 F
     orb,it,eci,eold,eci-eold=                    7                   23  -1.1202766504673156       -1.1202766257235235       -2.4743792126358244E-008 F
     orb,it,eci,eold,eci-eold=                    7                   24  -1.1202766850490506       -1.1202766504673156       -3.4581735031125049E-008 F
     orb,it,eci,eold,eci-eold=                    7                   25  -1.1202767020521536       -1.1202766850490506       -1.7003102925627900E-008 F
     orb,it,eci,eold,eci-eold=                    7                   26  -1.1202767252047652       -1.1202767020521536       -2.3152611605681273E-008 F
     orb,it,eci,eold,eci-eold=                    7                   27  -1.1202767253980774       -1.1202767252047652       -1.9331225509233718E-010 F
     orbital   7 current e=  0.194801E+01 error=0.165E+00 (eci= -0.112027673E+01 error=0.193E-09) iterations  27(   0 preconditioned, Ep,Sp= 20.0  200.0)
     orb,it,eci,eold,eci-eold=                    7                    1  -1.1202767867767909       -1.1202767253980774       -6.1378713445137123E-008 F
     orb,it,eci,eold,eci-eold=                    7                    2  -1.1202767927002402       -1.1202767867767909       -5.9234492866266919E-009 F
     orb,it,eci,eold,eci-eold=                    7                    3  -1.1202767945954817       -1.1202767927002402       -1.8952415192785566E-009 F
     orb,it,eci,eold,eci-eold=                    7                    4  -1.1202768018971154       -1.1202767945954817       -7.3016337420739319E-009 F
     orb,it,eci,eold,eci-eold=                    7                    5  -1.1202768023731819       -1.1202768018971154       -4.7606651953913115E-010 F
     orbital   7 current e=  0.194965E+01 error=0.164E-02 (eci= -0.112027680E+01 error=0.476E-09) iterations   5(   0 preconditioned, Ep,Sp= 20.0  200.0)
     orb,it,eci,eold,eci-eold=                    7                    1  -1.1202768175306299       -1.1202768023731819       -1.5157447963431991E-008 F
     orb,it,eci,eold,eci-eold=                    7                    2  -1.1202768216318064       -1.1202768175306299       -4.1011765095078090E-009 F
     orb,it,eci,eold,eci-eold=                    7                    3  -1.1202768253249560       -1.1202768216318064       -3.6931495639436207E-009 F
     orb,it,eci,eold,eci-eold=                    7                    4  -1.1202768268344832       -1.1202768253249560       -1.5095271699294699E-009 F
     orb,it,eci,eold,eci-eold=                    7                    5  -1.1202768268344832       -1.1202768268344832        0.0000000000000000      F
     orbital   7 current e=  0.194957E+01 error=0.855E-04 (eci= -0.112027683E+01 error=0.000E+00) iterations   5(   0 preconditioned, Ep,Sp= 20.0  200.0)
     orb,it,eci,eold,eci-eold=                    8                    1  -1.1202687305220711       -1.1202685224988684       -2.0802320266355423E-007 F
     orb,it,eci,eold,eci-eold=                    8                    2  -1.1202687925006611       -1.1202687305220711       -6.1978590037981007E-008 F
     orb,it,eci,eold,eci-eold=                    8                    3  -1.1202706557484301       -1.1202687925006611       -1.8632477689628502E-006 F
     orb,it,eci,eold,eci-eold=                    8                    4  -1.1202724767666106       -1.1202706557484301       -1.8210181804700909E-006 F
     orb,it,eci,eold,eci-eold=                    8                    5  -1.1202734021006036       -1.1202724767666106       -9.2533399298488916E-007 F
     orb,it,eci,eold,eci-eold=                    8                    6  -1.1202740383276260       -1.1202734021006036       -6.3622702239918283E-007 F
     orb,it,eci,eold,eci-eold=                    8                    7  -1.1202746839545143       -1.1202740383276260       -6.4562688839586713E-007 F
     orb,it,eci,eold,eci-eold=                    8                    8  -1.1202747119592227       -1.1202746839545143       -2.8004708330087169E-008 F
     orb,it,eci,eold,eci-eold=                    8                    9  -1.1202747249796385       -1.1202747119592227       -1.3020415856601630E-008 F
     orb,it,eci,eold,eci-eold=                    8                   10  -1.1202749575716631       -1.1202747249796385       -2.3259202452940997E-007 F
     orb,it,eci,eold,eci-eold=                    8                   11  -1.1202751332599796       -1.1202749575716631       -1.7568831656156192E-007 F
     orb,it,eci,eold,eci-eold=                    8                   12  -1.1202753114560138       -1.1202751332599796       -1.7819603415070162E-007 F
     orb,it,eci,eold,eci-eold=                    8                   13  -1.1202756053952423       -1.1202753114560138       -2.9393922851284060E-007 F
     orb,it,eci,eold,eci-eold=                    8                   14  -1.1202757603166669       -1.1202756053952423       -1.5492142457773639E-007 F
     orb,it,eci,eold,eci-eold=                    8                   15  -1.1202760165663914       -1.1202757603166669       -2.5624972455062789E-007 F
     orb,it,eci,eold,eci-eold=                    8                   16  -1.1202761634160798       -1.1202760165663914       -1.4684968840938950E-007 F
     orb,it,eci,eold,eci-eold=                    8                   17  -1.1202762737247047       -1.1202761634160798       -1.1030862490102322E-007 F
     orb,it,eci,eold,eci-eold=                    8                   18  -1.1202763092233121       -1.1202762737247047       -3.5498607386941217E-008 F
     orb,it,eci,eold,eci-eold=                    8                   19  -1.1202764031448056       -1.1202763092233121       -9.3921493471427198E-008 F
     orb,it,eci,eold,eci-eold=                    8                   20  -1.1202764061452928       -1.1202764031448056       -3.0004871920397136E-009 F
     orb,it,eci,eold,eci-eold=                    8                   21  -1.1202764071500628       -1.1202764061452928       -1.0047700449433705E-009 F
     orb,it,eci,eold,eci-eold=                    8                   22  -1.1202764660240883       -1.1202764071500628       -5.8874025432587018E-008 F
     orb,it,eci,eold,eci-eold=                    8                   23  -1.1202764998756098       -1.1202764660240883       -3.3851521585859246E-008 F
     orb,it,eci,eold,eci-eold=                    8                   24  -1.1202765188845463       -1.1202764998756098       -1.9008936424924627E-008 F
     orb,it,eci,eold,eci-eold=                    8                   25  -1.1202765719755869       -1.1202765188845463       -5.3091040674857481E-008 F
     orb,it,eci,eold,eci-eold=                    8                   26  -1.1202765835181012       -1.1202765719755869       -1.1542514277707028E-008 F
     orb,it,eci,eold,eci-eold=                    8                   27  -1.1202765911447370       -1.1202765835181012       -7.6266357673659968E-009 F
     orb,it,eci,eold,eci-eold=                    8                   28  -1.1202766329090239       -1.1202765911447370       -4.1764286917711502E-008 F
     orb,it,eci,eold,eci-eold=                    8                   29  -1.1202766434750957       -1.1202766329090239       -1.0566071795281573E-008 F
     orb,it,eci,eold,eci-eold=                    8                   30  -1.1202766453305470       -1.1202766434750957       -1.8554513481205959E-009 F
     orb,it,eci,eold,eci-eold=                    8                   31  -1.1202766735428547       -1.1202766453305470       -2.8212307601194198E-008 F
     orb,it,eci,eold,eci-eold=                    8                   32  -1.1202766859544580       -1.1202766735428547       -1.2411603300677143E-008 F
     orb,it,eci,eold,eci-eold=                    8                   33  -1.1202766897173260       -1.1202766859544580       -3.7628680171764017E-009 F
     orb,it,eci,eold,eci-eold=                    8                   34  -1.1202767110406699       -1.1202766897173260       -2.1323343979418041E-008 F
     orb,it,eci,eold,eci-eold=                    8                   35  -1.1202767167118217       -1.1202767110406699       -5.6711517704144399E-009 F
     orb,it,eci,eold,eci-eold=                    8                   36  -1.1202767182657336       -1.1202767167118217       -1.5539118880525393E-009 F
     orb,it,eci,eold,eci-eold=                    8                   37  -1.1202767354986938       -1.1202767182657336       -1.7232960169977218E-008 F
     orb,it,eci,eold,eci-eold=                    8                   38  -1.1202767416143242       -1.1202767354986938       -6.1156304465015410E-009 F
     orb,it,eci,eold,eci-eold=                    8                   39  -1.1202767423227389       -1.1202767416143242       -7.0841466026649869E-010 F
     orbital   8 current e=  0.195447E+01 error=0.171E+00 (eci= -0.112027674E+01 error=0.708E-09) iterations  39(   0 preconditioned, Ep,Sp= 20.0  200.0)
     orb,it,eci,eold,eci-eold=                    8                    1  -1.1202767834783407       -1.1202767423227389       -4.1155601815390241E-008 F
     orb,it,eci,eold,eci-eold=                    8                    2  -1.1202767984219406       -1.1202767834783407       -1.4943599913053163E-008 F
     orb,it,eci,eold,eci-eold=                    8                    3  -1.1202768131320220       -1.1202767984219406       -1.4710081375213235E-008 F
     orb,it,eci,eold,eci-eold=                    8                    4  -1.1202768131320220       -1.1202768131320220        0.0000000000000000      F
     orbital   8 current e=  0.195122E+01 error=0.325E-02 (eci= -0.112027681E+01 error=0.000E+00) iterations   4(   0 preconditioned, Ep,Sp= 20.0  200.0)
     orb,it,eci,eold,eci-eold=                    8                    1  -1.1202768224926687       -1.1202768130601961       -9.4324725807837240E-009 F
     orb,it,eci,eold,eci-eold=                    8                    2  -1.1202768264996068       -1.1202768224926687       -4.0069381146423666E-009 F
     orb,it,eci,eold,eci-eold=                    8                    3  -1.1202768277273214       -1.1202768264996068       -1.2277145966521630E-009 F
     orb,it,eci,eold,eci-eold=                    8                    4  -1.1202768277273214       -1.1202768277273214        0.0000000000000000      F
     orbital   8 current e=  0.195053E+01 error=0.691E-03 (eci= -0.112027683E+01 error=0.000E+00) iterations   4(   0 preconditioned, Ep,Sp= 20.0  200.0)

 virtual orbital energies:
     0.1949565E+01 (  53.051eV)
     0.1950530E+01 (  53.077eV)
     0.1958285E+01 (  53.288eV)
     0.1864971E+01 (  50.749eV)
     0.8507694E+00 (  23.151eV)
     0.8505883E+00 (  23.146eV)
     0.8346001E+00 (  22.711eV)
     0.4417264E+00 (  12.020eV)


 == Generating One-Electron and Two-Electron Integrals ==

 begin_one_electron_integrals
    1    1        -1.1564732372
    2    1         0.0000001670
    3    1        -0.1580740951
    4    1        -0.0000002782
    5    1         0.0000006360
    6    1         0.0125209024
    7    1        -0.0000000926
    8    1         0.0000000000
    9    1        -0.0000000000
    2    2        -0.5912741081
    3    2         0.0000000004
    4    2        -0.0000000000
    5    2         0.0000000000
    6    2        -0.0000005613
    7    2        -0.2196411060
    8    2        -0.0000000146
    9    2         0.0000000157
    3    3        -0.1381744977
    4    3         0.0000003218
    5    3        -0.0000007467
    6    3         0.1474525996
    7    3         0.0000012063
    8    3        -0.0000000000
    9    3         0.0000000000
    4    4        -0.1765278906
    5    4         0.0000000012
    6    4         0.0000001510
    7    4        -0.0000000000
    8    4         0.0000000208
    9    4         0.0000000067
    5    5        -0.1764083009
    6    5        -0.0000003343
    7    5         0.0000000000
    8    5        -0.0000000068
    9    5         0.0000000210
    6    6         0.7487143345
    7    6         0.0000002202
    8    6         0.0000000000
    9    6        -0.0000000000
    7    7         0.8766853778
    8    7         0.0000000101
    9    7        -0.0000000111
    8    8         0.8533503416
    9    8         0.0000000003
    9    9         0.8525534549
 end_one_electron_integrals

 begin_two_electron_integrals
    1    1    1    1        0.6055501132
    1    1    2    1       -0.0000001681
    1    1    3    1        0.1580744060
    1    1    4    1        0.0000002781
    1    1    5    1       -0.0000006357
    1    1    6    1       -0.0125213080
    1    1    7    1        0.0000000914
    1    1    8    1       -0.0000000000
    1    1    9    1        0.0000000000
    1    1    2    2        0.5967830527
    1    1    3    2        0.0000003222
    1    1    4    2       -0.0000000000
    1    1    5    2        0.0000000000
    1    1    6    2       -0.0000004617
    1    1    7    2       -0.1386459153
    1    1    8    2       -0.0000000199
    1    1    9    2        0.0000000220
    1    1    3    3        0.5452261249
    1    1    4    3        0.0000000827
    1    1    5    3       -0.0000001929
    1    1    6    3        0.0476382665
    1    1    7    3        0.0000005735
    1    1    8    3       -0.0000000000
    1    1    9    3        0.0000000000
    1    1    4    4        0.5666913878
    1    1    5    4        0.0000000004
    1    1    6    4        0.0000000143
    1    1    7    4       -0.0000000000
    1    1    8    4       -0.0000000126
    1    1    9    4       -0.0000000041
    1    1    5    5        0.5667263204
    1    1    6    5       -0.0000000300
    1    1    7    5        0.0000000000
    1    1    8    5        0.0000000040
    1    1    9    5       -0.0000000125
    1    1    6    6        0.5923460984
    1    1    7    6       -0.0000001633
    1    1    8    6        0.0000000000
    1    1    9    6       -0.0000000000
    1    1    7    7        0.5718878024
    1    1    8    7       -0.0000000011
    1    1    9    7        0.0000000013
    1    1    8    8        0.5779187271
    1    1    9    8        0.0000000000
    1    1    9    9        0.5778283755
    2    1    2    1        0.1605655540
    2    1    3    1        0.0000000471
    2    1    4    1       -0.0000000000
    2    1    5    1        0.0000000000
    2    1    6    1       -0.0000001285
    2    1    7    1       -0.0475545107
    2    1    8    1       -0.0000000036
    2    1    9    1        0.0000000039
    2    1    2    2       -0.0000002598
    2    1    3    2        0.0225265759
    2    1    4    2        0.0000000205
    2    1    5    2       -0.0000000464
    2    1    6    2       -0.1367573971
    2    1    7    2        0.0000004867
    2    1    8    2       -0.0000000000
    2    1    9    2        0.0000000000
    2    1    3    3        0.0000001066
    2    1    4    3       -0.0000000000
    2    1    5    3        0.0000000000
    2    1    6    3       -0.0000005479
    2    1    7    3       -0.1241034774
    2    1    8    3        0.0000003310
    2    1    9    3       -0.0000003743
    2    1    4    4       -0.0000001667
    2    1    5    4       -0.0000000000
    2    1    6    4        0.0000000000
    2    1    7    4       -0.0000002466
    2    1    8    4       -0.1138999135
    2    1    9    4       -0.0367678115
    2    1    5    5       -0.0000001667
    2    1    6    5       -0.0000000000
    2    1    7    5        0.0000005667
    2    1    8    5        0.0367727206
    2    1    9    5       -0.1138955076
    2    1    6    6        0.0000000225
    2    1    7    6        0.0230415386
    2    1    8    6        0.0000000543
    2    1    9    6       -0.0000000619
    2    1    7    7       -0.0000007822
    2    1    8    7        0.0000000000
    2    1    9    7       -0.0000000000
    2    1    8    8       -0.0000001620
    2    1    9    8        0.0000000000
    2    1    9    9       -0.0000001620
    3    1    3    1        0.1176776957
    3    1    4    1        0.0000000264
    3    1    5    1       -0.0000000611
    3    1    6    1        0.0120336005
    3    1    7    1        0.0000000901
    3    1    8    1       -0.0000000000
    3    1    9    1        0.0000000000
    3    1    2    2        0.1336073954
    3    1    3    2        0.0000001522
    3    1    4    2       -0.0000000000
    3    1    5    2        0.0000000000
    3    1    6    2       -0.0000004075
    3    1    7    2       -0.1014797640
    3    1    8    2        0.0000002698
    3    1    9    2       -0.0000003051
    3    1    3    3        0.1527603838
    3    1    4    3        0.0000000910
    3    1    5    3       -0.0000002101
    3    1    6    3        0.0325151408
    3    1    7    3        0.0000001327
    3    1    8    3       -0.0000000000
    3    1    9    3        0.0000000000
    3    1    4    4        0.1242535178
    3    1    5    4        0.0000000002
    3    1    6    4       -0.0000000581
    3    1    7    4       -0.0000000000
    3    1    8    4       -0.0000000944
    3    1    9    4       -0.0000000305
    3    1    5    5        0.1242728549
    3    1    6    5        0.0000001342
    3    1    7    5        0.0000000000
    3    1    8    5        0.0000000305
    3    1    9    5       -0.0000000943
    3    1    6    6        0.1300832044
    3    1    7    6        0.0000001224
    3    1    8    6       -0.0000000000
    3    1    9    6        0.0000000000
    3    1    7    7        0.1487236490
    3    1    8    7       -0.0000000186
    3    1    9    7        0.0000000211
    3    1    8    8        0.1184731546
    3    1    9    8        0.0000000000
    3    1    9    9        0.1184141578
    4    1    4    1        0.1062666155
    4    1    5    1        0.0000000000
    4    1    6    1        0.0000000083
    4    1    7    1       -0.0000000000
    4    1    8    1        0.0000000013
    4    1    9    1        0.0000000004
    4    1    2    2        0.0000002193
    4    1    3    2       -0.0000000000
    4    1    4    2       -0.0000000357
    4    1    5    2       -0.0000000000
    4    1    6    2        0.0000000000
    4    1    7    2       -0.0000001905
    4    1    8    2       -0.0854847236
    4    1    9    2       -0.0275965432
    4    1    3    3        0.0000002916
    4    1    4    3        0.0099233594
    4    1    5    3        0.0000000024
    4    1    6    3       -0.0000000549
    4    1    7    3       -0.0000000000
    4    1    8    3       -0.0000001005
    4    1    9    3       -0.0000000324
    4    1    4    4        0.0000002287
    4    1    5    4       -0.0000000191
    4    1    6    4        0.0436497397
    4    1    7    4       -0.0000002712
    4    1    8    4        0.0000000000
    4    1    9    4       -0.0000000000
    4    1    5    5        0.0000002045
    4    1    6    5       -0.0000000012
    4    1    7    5        0.0000000000
    4    1    8    5       -0.0000000000
    4    1    9    5        0.0000000000
    4    1    6    6        0.0000002001
    4    1    7    6        0.0000000000
    4    1    8    6        0.0000000462
    4    1    9    6        0.0000000149
    4    1    7    7        0.0000002554
    4    1    8    7        0.0110152973
    4    1    9    7        0.0035484033
    4    1    8    8        0.0000001921
    4    1    9    8       -0.0000000001
    4    1    9    9        0.0000001893
    5    1    5    1        0.1062749723
    5    1    6    1       -0.0000000184
    5    1    7    1        0.0000000000
    5    1    8    1       -0.0000000004
    5    1    9    1        0.0000000014
    5    1    2    2       -0.0000005011
    5    1    3    2        0.0000000000
    5    1    4    2       -0.0000000000
    5    1    5    2       -0.0000000357
    5    1    6    2       -0.0000000000
    5    1    7    2        0.0000004371
    5    1    8    2        0.0276002874
    5    1    9    2       -0.0854799036
    5    1    3    3       -0.0000006672
    5    1    4    3       -0.0000000022
[...]
    6    3    6    6        0.0384168875
    6    3    7    6       -0.0000000110
    6    3    8    6       -0.0000000000
    6    3    9    6        0.0000000000
    6    3    7    7        0.0399399606
    6    3    8    7       -0.0000000063
    6    3    9    7        0.0000000072
    6    3    8    8        0.0344956466
    6    3    9    8       -0.0000000000
    6    3    9    9        0.0344871813
    7    3    7    3        0.1155796862
    7    3    8    3       -0.0000002863
    7    3    9    3        0.0000003238
    7    3    4    4        0.0000005501
    7    3    5    4        0.0000000000
    7    3    6    4       -0.0000000000
    7    3    7    4        0.0000002072
    7    3    8    4        0.0851582263
    7    3    9    4        0.0274902075
    7    3    5    5        0.0000005501
    7    3    6    5        0.0000000000
    7    3    7    5       -0.0000004765
    7    3    8    5       -0.0274933001
    7    3    9    5        0.0851556576
    7    3    6    6        0.0000004048
    7    3    7    6       -0.0147970607
    7    3    8    6       -0.0000000364
    7    3    9    6        0.0000000416
    7    3    7    7        0.0000010965
    7    3    8    7       -0.0000000000
    7    3    9    7        0.0000000000
    7    3    8    8        0.0000005272
    7    3    9    8       -0.0000000000
    7    3    9    9        0.0000005272
    8    3    8    3        0.0144757579
    8    3    9    3       -0.0000000000
    8    3    4    4       -0.0000000000
    8    3    5    4       -0.0000000000
    8    3    6    4        0.0000000151
    8    3    7    4        0.0133357752
    8    3    8    4       -0.0000002652
    8    3    9    4       -0.0000000293
    8    3    5    5       -0.0000000000
    8    3    6    5       -0.0000000049
    8    3    7    5       -0.0043055018
    8    3    8    5        0.0000000780
    8    3    9    5       -0.0000002453
    8    3    6    6       -0.0000000000
    8    3    7    6        0.0000000267
    8    3    8    6        0.0000164205
    8    3    9    6        0.0000000000
    8    3    7    7       -0.0000000000
    8    3    8    7        0.0000000113
    8    3    9    7       -0.0000000000
    8    3    8    8       -0.0000000000
    8    3    9    8        0.0000000000
    8    3    9    9       -0.0000000000
    9    3    9    3        0.0144773660
    9    3    4    4        0.0000000000
    9    3    5    4        0.0000000000
    9    3    6    4        0.0000000049
    9    3    7    4        0.0043054512
    9    3    8    4        0.0000002480
    9    3    9    4        0.0000001020
    9    3    5    5        0.0000000000
    9    3    6    5        0.0000000152
    9    3    7    5        0.0133357144
    9    3    8    5       -0.0000001242
    9    3    9    5        0.0000002957
    9    3    6    6        0.0000000000
    9    3    7    6       -0.0000000301
    9    3    8    6       -0.0000000000
    9    3    9    6        0.0000232369
    9    3    7    7        0.0000000000
    9    3    8    7       -0.0000000000
    9    3    9    7        0.0000000115
    9    3    8    8        0.0000000000
    9    3    9    8        0.0000000000
    9    3    9    9        0.0000000000
    4    4    4    4        0.5879661706
    4    4    5    4       -0.0000000588
    4    4    6    4        0.0000000006
    4    4    7    4       -0.0000000000
    4    4    8    4        0.0000000036
    4    4    9    4        0.0000000012
    4    4    5    5        0.5290368478
    4    4    6    5       -0.0000000017
    4    4    7    5        0.0000000000
    4    4    8    5       -0.0000000010
    4    4    9    5        0.0000000031
    4    4    6    6        0.5437513031
    4    4    7    6       -0.0000002335
    4    4    8    6        0.0000000000
    4    4    9    6       -0.0000000000
    4    4    7    7        0.5127814000
    4    4    8    7        0.0000000782
    4    4    9    7        0.0000000235
    4    4    8    8        0.5656124458
    4    4    9    8        0.0135339727
    4    4    9    9        0.5286619557
    5    4    5    4        0.0314742566
    5    4    6    4        0.0000000048
    5    4    7    4        0.0000000000
    5    4    8    4       -0.0000000001
    5    4    9    4        0.0000000003
    5    4    5    5        0.0000000615
    5    4    6    5       -0.0000000038
    5    4    7    5       -0.0000000000
    5    4    8    5        0.0000000003
    5    4    9    5        0.0000000001
    5    4    6    6        0.0000000003
    5    4    7    6        0.0000000000
    5    4    8    6        0.0000000000
    5    4    9    6       -0.0000000000
    5    4    7    7        0.0000000004
    5    4    8    7       -0.0000001029
    5    4    9    7        0.0000000103
    5    4    8    8       -0.0136898400
    5    4    9    8        0.0193383926
    5    4    9    9        0.0136865193
    6    4    6    4        0.0379762777
    6    4    7    4       -0.0000001427
    6    4    8    4        0.0000000000
    6    4    9    4       -0.0000000000
    6    4    5    5       -0.0000000000
    6    4    6    5       -0.0000000000
    6    4    7    5        0.0000000000
    6    4    8    5        0.0000000000
    6    4    9    5       -0.0000000000
    6    4    6    6       -0.0000000055
    6    4    7    6        0.0000000000
    6    4    8    6        0.0000000003
    6    4    9    6        0.0000000001
    6    4    7    7        0.0000000116
    6    4    8    7        0.0021095203
    6    4    9    7        0.0006793744
    6    4    8    8       -0.0000000165
    6    4    9    8        0.0000000075
    6    4    9    9        0.0000000071
    7    4    7    4        0.0137797043
    7    4    8    4        0.0000001959
    7    4    9    4        0.0000000628
    7    4    5    5       -0.0000000000
    7    4    6    5        0.0000000000
    7    4    7    5        0.0000000000
    7    4    8    5       -0.0000001155
    7    4    9    5        0.0000001502
    7    4    6    6       -0.0000000000
    7    4    7    6       -0.0000000296
    7    4    8    6       -0.0015260551
    7    4    9    6       -0.0004921991
    7    4    7    7       -0.0000000000
    7    4    8    7        0.0000000570
    7    4    9    7        0.0000000184
    7    4    8    8       -0.0000000000
    7    4    9    8        0.0000000000
    7    4    9    9       -0.0000000000
    8    4    8    4        0.1069283418
    8    4    9    4        0.0297862407
    8    4    5    5        0.0000000030
    8    4    6    5        0.0000000000
    8    4    7    5       -0.0000003991
    8    4    8    5       -0.0298494626
    8    4    9    5        0.0778017732
    8    4    6    6       -0.0000001081
    8    4    7    6       -0.0115780552
    8    4    8    6       -0.0000000415
    8    4    9    6        0.0000000388
    8    4    7    7        0.0000003861
    8    4    8    7       -0.0000000000
    8    4    9    7        0.0000000000
    8    4    8    8        0.0000000012
    8    4    9    8       -0.0000000000
    8    4    9    9        0.0000000012
    9    4    9    4        0.0247042447
    9    4    5    5        0.0000000010
    9    4    6    5        0.0000000000
    9    4    7    5       -0.0000000999
    9    4    8    5        0.0054555989
    9    4    9    5        0.0298444401
    9    4    6    6       -0.0000000349
    9    4    7    6       -0.0037362652
    9    4    8    6       -0.0000000046
    9    4    9    6        0.0000000165
    9    4    7    7        0.0000001246
    9    4    8    7       -0.0000000000
    9    4    9    7        0.0000000000
    9    4    8    8        0.0000000004
    9    4    9    8        0.0000000000
    9    4    9    9        0.0000000004
    5    5    5    5        0.5880334122
    5    5    6    5        0.0000000057
    5    5    7    5        0.0000000000
    5    5    8    5       -0.0000000012
    5    5    9    5        0.0000000037
    5    5    6    6        0.5437826137
    5    5    7    6       -0.0000002335
    5    5    8    6        0.0000000000
    5    5    9    6       -0.0000000000
    5    5    7    7        0.5128110295
    5    5    8    7        0.0000000581
    5    5    9    7       -0.0000001769
    5    5    8    8        0.5287664210
    5    5    9    8       -0.0135350439
    5    5    9    9        0.5655604898
    6    5    6    5        0.0379783868
    6    5    7    5       -0.0000001427
    6    5    8    5        0.0000000000
    6    5    9    5        0.0000000000
    6    5    6    6        0.0000000161
    6    5    7    6       -0.0000000000
    6    5    8    6       -0.0000000001
    6    5    9    6        0.0000000002
    6    5    7    7       -0.0000000241
    6    5    8    7       -0.0006813569
    6    5    9    7        0.0021048052
    6    5    8    8        0.0000000062
    6    5    9    8       -0.0000000123
    6    5    9    9        0.0000000195
    7    5    7    5        0.0137801537
    7    5    8    5        0.0000001447
    7    5    9    5       -0.0000004481
    7    5    6    6        0.0000000000
    7    5    7    6        0.0000000684
    7    5    8    6        0.0004929630
    7    5    9    6       -0.0015253689
    7    5    7    7        0.0000000000
    7    5    8    7       -0.0000000184
    7    5    9    7        0.0000000571
    7    5    8    8        0.0000000000
    7    5    9    8       -0.0000000000
    7    5    9    9        0.0000000000
    8    5    8    5        0.0247116644
    8    5    9    5       -0.0297888955
    8    5    6    6        0.0000000349
    8    5    7    6        0.0037383133
    8    5    8    6        0.0000000116
    8    5    9    6       -0.0000000193
    8    5    7    7       -0.0000001247
    8    5    8    7        0.0000000000
    8    5    9    7       -0.0000000000
    8    5    8    8       -0.0000000004
    8    5    9    8        0.0000000000
    8    5    9    9       -0.0000000004
    9    5    9    5        0.1069189453
    9    5    6    6       -0.0000001080
    9    5    7    6       -0.0115742415
    9    5    8    6       -0.0000000380
    9    5    9    6        0.0000000455
    9    5    7    7        0.0000003862
    9    5    8    7       -0.0000000000
    9    5    9    7        0.0000000000
    9    5    8    8        0.0000000013
    9    5    9    8       -0.0000000000
    9    5    9    9        0.0000000014
    6    6    6    6        0.6315341456
    6    6    7    6       -0.0000001486
    6    6    8    6        0.0000000000
    6    6    9    6       -0.0000000000
    6    6    7    7        0.5662134280
    6    6    8    7       -0.0000000080
    6    6    9    7        0.0000000091
    6    6    8    8        0.5762979924
    6    6    9    8        0.0000000000
    6    6    9    9        0.5762206078
    7    6    7    6        0.0268317861
    7    6    8    6        0.0000000144
    7    6    9    6       -0.0000000164
    7    6    7    7       -0.0000002819
    7    6    8    7        0.0000000000
    7    6    9    7       -0.0000000000
    7    6    8    8       -0.0000002028
    7    6    9    8        0.0000000000
    7    6    9    9       -0.0000002026
    8    6    8    6        0.0242400168
    8    6    9    6        0.0000000000
    8    6    7    7        0.0000000000
    8    6    8    7        0.0000000217
    8    6    9    7        0.0000000000
    8    6    8    8        0.0000000000
    8    6    9    8        0.0000000000
    8    6    9    9        0.0000000000
    9    6    9    6        0.0242372352
    9    6    7    7       -0.0000000000
    9    6    8    7        0.0000000000
    9    6    9    7        0.0000000219
    9    6    8    8       -0.0000000000
    9    6    9    8       -0.0000000000
    9    6    9    9       -0.0000000000
    7    7    7    7        0.5818471287
    7    7    8    7        0.0000000014
    7    7    9    7       -0.0000000016
    7    7    8    8        0.5452378100
    7    7    9    8        0.0000000000
    7    7    9    9        0.5451614115
    8    7    8    7        0.0258426161
    8    7    9    7        0.0000000000
    8    7    8    8        0.0000000014
    8    7    9    8       -0.0000000000
    8    7    9    9        0.0000000015
    9    7    9    7        0.0258391605
    9    7    8    8       -0.0000000017
    9    7    9    8        0.0000000001
    9    7    9    9       -0.0000000015
    8    8    8    8        0.6084242929
    8    8    9    8       -0.0000000029
    8    8    9    9        0.5547457101
    9    8    9    8        0.0277457616
    9    8    9    9        0.0000000034
    9    9    9    9        0.6082627533
 end_two_electron_integrals


 output epsi filename:./pspw_hf_H2.emovecs

 Total PSPW energy     :  -0.1119421640E+01


=== Spin Contamination ===

 <Sexact^2> =    0.0000000000000000     
 <S^2>      =    0.0000000000000000     



== Center of Charge ==

spin up     (    0.0000,    0.0000,    0.0000 )
spin down   (    0.0000,    0.0000,    0.0000 )
     total  (    0.0000,    0.0000,    0.0000 )
ionic       (    0.0000,    0.0000,    0.0000 )


== Molecular Dipole wrt Center of Mass ==

mu   =  (   -0.0000,   -0.0000,   -0.0000 ) au
|mu| =     0.0000 au,       0.0000 Debye

 output psi filename:./pspw_hf_H2.movecs

 Writing Crystallographic Information File:./H2.cif
   - cell not shifted (nwpw:cif_shift_cell .false.)


== Timing ==

cputime in seconds
  prologue    :   0.617591E+01
  main loop   :   0.129845E+03
  epilogue    :   0.164480E-01
  total       :   0.136037E+03
  cputime/step:   0.138133E+01       (      94 evalulations,      42 linesearches)


Time spent doing                        total          step       percent
  total time                 :   0.136047E+03  0.144731E+01       100.0 %
  i/o time                   :   0.232573E+00  0.247418E-02         0.2 %
  FFTs                       :   0.922508E+02  0.981391E+00        67.8 %
  dot products               :   0.345786E+01  0.367858E-01         2.5 %
  geodesic                   :   0.369320E-01  0.392894E-03         0.0 %
  ffm_dgemm                  :   0.440966E-02  0.469113E-04         0.0 %
  fmf_dgemm                  :   0.441031E-02  0.469182E-04         0.0 %
  mmm_dgemm                  :   0.163249E-02  0.173669E-04         0.0 %
  m_diagonalize              :   0.835273E-03  0.888588E-05         0.0 %
  local pseudopotentials     :   0.188018E+01  0.200019E-01         1.4 %
  non-local pseudopotentials :   0.322293E+01  0.342865E-01         2.4 %
  structure factors          :   0.218085E+00  0.232005E-02         0.2 %
  phase factors              :   0.702900E-05  0.747766E-07         0.0 %
  masking and packing        :   0.229918E+01  0.244593E-01         1.7 %
  queue fft                  :   0.279809E+01  0.297669E-01         2.1 %
  queue fft (serial)         :   0.109526E+01  0.116517E-01         0.8 %
  queue fft (message passing):   0.168773E+01  0.179546E-01         1.2 %
  HFX potential              :   0.211711E+01  0.225224E-01         1.6 %
  non-local psp FFM          :   0.304999E+01  0.324467E-01         2.2 %
  non-local psp FMF          :   0.364749E-01  0.388031E-03         0.0 %
  non-local psp FFM A        :   0.161140E-01  0.171426E-03         0.0 %
  non-local psp FFM B        :   0.531704E-01  0.565642E-03         0.0 %

== HFX Counters ==
  HFX Evalulations         =    94
  Lin ACE HFX Evalulations =     0


     >>>  JOB COMPLETED     AT Sat Apr  5 16:29:32 2025  <<<

 Task  times  cpu:      126.8s     wall:      136.1s


                                NWChem Input Module
                                -------------------


 Summary of allocated global arrays
-----------------------------------
  No active global arrays


MA_summarize_allocated_blocks: starting scan ...
MA_summarize_allocated_blocks: scan completed: 0 heap blocks, 0 stack blocks
MA usage statistics:

	allocation statistics:
					      heap	     stack
					      ----	     -----
	current number of blocks	         0	         0
	maximum number of blocks	       313	        36
	current total bytes		         0	         0
	maximum total bytes		  16280000	   5334744
	maximum total K-bytes		     16280	      5335
	maximum total M-bytes		        17	         6


                                     CITATION
                                     --------
                Please cite the following reference when publishing
                           results obtained with NWChem:

          E. Apra, E. J. Bylaska, W. A. de Jong, N. Govind, K. Kowalski,
       T. P. Straatsma, M. Valiev, H. J. J. van Dam, Y. Alexeev, J. Anchell,
       V. Anisimov, F. W. Aquino, R. Atta-Fynn, J. Autschbach, N. P. Bauman,
     J. C. Becca, D. E. Bernholdt, K. Bhaskaran-Nair, S. Bogatko, P. Borowski,
         J. Boschen, J. Brabec, A. Bruner, E. Cauet, Y. Chen, G. N. Chuev,
      C. J. Cramer, J. Daily, M. J. O. Deegan, T. H. Dunning Jr., M. Dupuis,
   K. G. Dyall, G. I. Fann, S. A. Fischer, A. Fonari, H. Fruchtl, L. Gagliardi,
      J. Garza, N. Gawande, S. Ghosh, K. Glaesemann, A. W. Gotz, J. Hammond,
       V. Helms, E. D. Hermes, K. Hirao, S. Hirata, M. Jacquelin, L. Jensen,
   B. G. Johnson, H. Jonsson, R. A. Kendall, M. Klemm, R. Kobayashi, V. Konkov,
      S. Krishnamoorthy, M. Krishnan, Z. Lin, R. D. Lins, R. J. Littlefield,
      A. J. Logsdail, K. Lopata, W. Ma, A. V. Marenich, J. Martin del Campo,
   D. Mejia-Rodriguez, J. E. Moore, J. M. Mullin, T. Nakajima, D. R. Nascimento,
    J. A. Nichols, P. J. Nichols, J. Nieplocha, A. Otero-de-la-Roza, B. Palmer,
    A. Panyala, T. Pirojsirikul, B. Peng, R. Peverati, J. Pittner, L. Pollack,
   R. M. Richard, P. Sadayappan, G. C. Schatz, W. A. Shelton, D. W. Silverstein,
   D. M. A. Smith, T. A. Soares, D. Song, M. Swart, H. L. Taylor, G. S. Thomas,
            V. Tipparaju, D. G. Truhlar, K. Tsemekhman, T. Van Voorhis,
      A. Vazquez-Mayagoitia, P. Verma, O. Villa, A. Vishnu, K. D. Vogiatzis,
        D. Wang, J. H. Weare, M. J. Williamson, T. L. Windus, K. Wolinski,
        A. T. Wong, Q. Wu, C. Yang, Q. Yu, M. Zacharias, Z. Zhang, Y. Zhao,
                                and R. J. Harrison
                        "NWChem: Past, present, and future
                         J. Chem. Phys. 152, 184102 (2020)
                               doi:10.1063/5.0004997

                                      AUTHORS
                                      -------
  E. Apra, E. J. Bylaska, N. Govind, K. Kowalski, M. Valiev, D. Mejia-Rodriguez,
       A. Kunitsa, N. P. Bauman, A. Panyala, W. A. de Jong, T. P. Straatsma,
   H. J. J. van Dam, D. Wang, T. L. Windus, J. Hammond, J. Autschbach, A. Woods,
    K. Bhaskaran-Nair, J. Brabec, K. Lopata, S. A. Fischer, S. Krishnamoorthy,
     M. Jacquelin, W. Ma, M. Klemm, O. Villa, Y. Chen, V. Anisimov, F. Aquino,
     S. Hirata, M. T. Hackler, E. Hermes, L. Jensen, J. E. Moore, J. C. Becca,
      V. Konjkov, T. Risthaus, M. Malagoli, A. Marenich, A. Otero-de-la-Roza,
        J. Mullin, P. Nichols, R. Peverati, J. Pittner, Y. Zhao, P.-D. Fan,
        A. Fonari, M. J. Williamson, R. J. Harrison, J. R. Rehr, M. Dupuis,
     D. Silverstein, D. M. A. Smith, J. Nieplocha, V. Tipparaju, M. Krishnan,
     B. E. Van Kuiken, A. Vazquez-Mayagoitia, M. Swart, Q. Wu, T. Van Voorhis,
     A. A. Auer, M. Nooijen, L. D. Crosby, E. Brown, G. Cisneros, G. I. Fann,
   H. Fruchtl, J. Garza, K. Hirao, R. A. Kendall, J. A. Nichols, K. Tsemekhman,
    K. Wolinski, J. Anchell, D. E. Bernholdt, P. Borowski, T. Clark, D. Clerc,
   H. Dachsel, M. J. O. Deegan, K. Dyall, D. Elwood, E. Glendening, M. Gutowski,
   A. C. Hess, J. Jaffe, B. G. Johnson, J. Ju, R. Kobayashi, R. Kutteh, Z. Lin,
   R. Littlefield, X. Long, B. Meng, T. Nakajima, S. Niu, L. Pollack, M. Rosing,
   K. Glaesemann, G. Sandrone, M. Stave, H. Taylor, G. Thomas, J. H. van Lenthe,
                               A. T. Wong, Z. Zhang.

 Total times  cpu:      126.8s     wall:      136.1s
