 argument  1 = H2-4.5.nw



============================== echo of input deck ==============================
title "swnc: e theory=pspw4 xc=hf formula=H2 charge=0 mult=1"
#machinejob:expert

echo

start pspw_hf_H2

memory heap 1200 mb stack 1200 mb global 10 mb

charge 0

geometry
H    0.00000    0.00000   -2.25000
H    0.00000    0.00000    2.25000
end

nwpw
  ### pseudopotential block begin ###
  ### pseudopotential block end   ###
  simulation_cell
     SC 20.0000
     boundary_conditions aperiodic
  end

  cutoff 50.0
  mult 1
  xc hf
  lmbfgs
  tolerances 1.0e-9 1.0e-9

  virtual 8
end
set nwpw:cif_filename H2

#set nwpw:CI_maxit_orb 15
#set nwpw:CI_maxit_linesearch 15
set pspw:HFX_screening_radius 14.0


set nwpw:2qintegrals .true.
set nwpw:3x3_virtual .true.

task pspw energy
================================================================================


                                         
                                         


             Northwest Computational Chemistry Package (NWChem) 7.2.3
             --------------------------------------------------------


                    Environmental Molecular Sciences Laboratory
                       Pacific Northwest National Laboratory
                                Richland, WA 99352

                              Copyright (c) 1994-2022
                       Pacific Northwest National Laboratory
                            Battelle Memorial Institute

             NWChem is an open-source computational chemistry package
                        distributed under the terms of the
                      Educational Community License (ECL) 2.0
             A copy of the license is included with this distribution
                              in the LICENSE.TXT file

                                  ACKNOWLEDGMENT
                                  --------------

            This software and its documentation were developed at the
            EMSL at Pacific Northwest National Laboratory, a multiprogram
            national laboratory, operated for the U.S. Department of Energy
            by Battelle under Contract Number DE-AC05-76RL01830. Support
            for this work was provided by the Department of Energy Office
            of Biological and Environmental Research, Office of Basic
            Energy Sciences, and the Office of Advanced Scientific Computing.


           Job information
           ---------------

    hostname        = mqs-al
    program         = nwchem
    date            = Wed Apr 23 07:45:41 2025

    compiled        = Thu_Oct_31_08:55:15_2024
    source          = /home/conda/feedstock_root/build_artifacts/nwchem_1730356057992/work
    nwchem branch   = 7.2.3
    nwchem revision = c400b04
    ga revision     = 5.8.0
    use scalapack   = T
    input           = H2-4.5.nw
    prefix          = pspw_hf_H2.
    data base       = ./pspw_hf_H2.db
    status          = startup
    nproc           =       24
    time left       =     -1s



           Memory information
           ------------------

    heap     =  157286394 doubles =   1200.0 Mbytes
    stack    =  157286399 doubles =   1200.0 Mbytes
    global   =    1310720 doubles =     10.0 Mbytes (distinct from heap & stack)
    total    =  315883513 doubles =   2410.0 Mbytes
    verify   = yes
    hardfail = no 


           Directory information
           ---------------------

  0 permanent = .
  0 scratch   = .




                                NWChem Input Module
                                -------------------


               swnc: e theory=pspw4 xc=hf formula=H2 charge=0 mult=1
               -----------------------------------------------------

 Scaling coordinates for geometry "geometry" by  1.889725989
 (inverse scale =  0.529177249)

  zeroes
  zeroes
  zeroes
  zeroes
  zeroes
  zeroes
  zeroes
  zeroes
  zeroes
  zeroes
  zeroes
  zeroes
  zeroes
  zeroes
  zeroes
  zeroes
  zeroes
  zeroes
  zeroes
  zeroes
  zeroes
  zeroes
  zeroes
  zeroes
  zeroes
  zeroes
  zeroes
  zeroes
  zeroes
  zeroes
  zeroes
  zeroes
  zeroes
  zeroes
  zeroes
  zeroes
  zeroes
  zeroes
  zeroes
  zeroes
  zeroes
  zeroes
  zeroes
  zeroes
  zeroes
  zeroes
  zeroes
  zeroes
 ORDER OF PRIMARY AXIS IS BEING SET TO 4
 D4H symmetry detected

          ------
          auto-z
          ------
     1 autoz failed with cvr_scaling = 1.2 changing to 1.3
     2 autoz failed with cvr_scaling = 1.3 changing to 1.4
     3 autoz failed with cvr_scaling = 1.4 changing to 1.5
     4 autoz failed with cvr_scaling = 1.5 changing to 1.6
     5 autoz failed with cvr_scaling = 1.6 changing to 1.7

 AUTOZ failed to generate good internal coordinates.
 Cartesian coordinates will be used in optimizations.



                             Geometry "geometry" -> ""
                             -------------------------

 Output coordinates in angstroms (scale by  1.889725989 to convert to a.u.)

  No.       Tag          Charge          X              Y              Z
 ---- ---------------- ---------- -------------- -------------- --------------
    1 H                    1.0000     0.00000000     0.00000000    -2.25000000
    2 H                    1.0000     0.00000000     0.00000000     2.25000000

      Atomic Mass 
      ----------- 

      H                  1.007825


 Effective nuclear repulsion energy (a.u.)       0.1175949442

            Nuclear Dipole moment (a.u.) 
            ----------------------------
        X                 Y               Z
 ---------------- ---------------- ----------------
     0.0000000000     0.0000000000     0.0000000000

      Symmetry information
      --------------------

 Group name             D4h       
 Group number             28
 Group order              16
 No. of unique centers     1

      Symmetry unique atoms

     1


            XYZ format geometry
            -------------------
     2
 geometry
 H                     0.00000000     0.00000000    -2.25000000
 H                     0.00000000     0.00000000     2.25000000

          ****************************************************
          *                                                  *
          *               NWPW PSPW Calculation              *
          *                                                  *
          * [ (Grassmann/Stiefel manifold implementation)  ] *
          *                                                  *
          *      [ NorthWest Chemistry implementation ]      *
          *                                                  *
          *            version #5.10   06/12/02              *
          *                                                  *
          *    This code was developed by Eric J. Bylaska,   *
          *    and was based upon algorithms and code        *
          *    developed by the group of Prof. John H. Weare *
          *                                                  *
          ****************************************************
     >>>  JOB STARTED       AT Wed Apr 23 07:45:41 2025  <<<
          ================ input data ========================

 input psi filename:./pspw_hf_H2.movecs

 number of processors used:        24
 processor grid           :  24 x   1
 parallel mapping         :2d-hilbert
 parallel mapping         :  balanced
 number of threads        :         1
 parallel io              :       off

 options:
      boundary conditions  = aperiodic   (version4)
      electron spin        = restricted
      exchange-correlation = Hartree-Fock
      - HFX relaxed
      - HFX restricted orbitals :    1
      - HFX free-space coulomb solver


 elements involved in the cluster:
      1: H   valence charge:  1.0000  lmax=  1
             comment    : Parameterized (Chem.Phys.Lett., vol 322, page 447) Hamman psp
             pseudpotential type            :   0
             highest angular component      :   1
             local potential used           :   1
             number of non-local projections:   1
             aperiodic cutoff radius        :  1.000
             cutoff =   0.800   0.800


 total charge:   0.000

 atomic composition:
     H   :    2

 number of electrons: spin up=     1 (   1 per task)  down=     1 (   1 per task) (Fourier space)
 number of orbitals : spin up=     1 (   1 per task)  down=     1 (   1 per task) (Fourier space)

 supercell:
      cell_name:  cell_default                                      
      lattice:    a1=<  20.000   0.000   0.000 >
                  a2=<   0.000  20.000   0.000 >
                  a3=<   0.000   0.000  20.000 >
      reciprocal: b1=<   0.314   0.000   0.000 >
                  b2=<   0.000   0.314   0.000 >
                  b3=<   0.000   0.000   0.314 >
      lattice:    a=      20.000 b=     20.000 c=      20.000
                  alpha=  90.000 beta=  90.000 gamma=  90.000
                  omega=      8000.0

      density cutoff=100.000  fft= 96x 96x 96(   191162 waves     7965 per task)
      wavefnc cutoff= 50.000  fft= 96x 96x 96(    67522 waves     2813 per task)

 technical parameters:
      time step=      5.80     fictitious mass=  400000.0
      tolerance=0.100E-08 (energy)   0.100E-08 (density)
      maximum iterations =      1000 (   10 inner    100 outer )





== Energy Calculation ==


          ============ Grassmann lmbfgs iteration ============
     >>>  ITERATION STARTED AT Wed Apr 23 07:45:48 2025  <<<
    iter.           Energy         DeltaE       DeltaRho 
    ------------------------------------------------------
      10   -0.7755627555E+00   -0.14689E-02    0.71989E-02
     -  10 steepest descent iterations performed
      20   -0.7801790595E+00   -0.12802E-03    0.54639E-04
      30   -0.7804460162E+00   -0.68594E-05    0.48686E-05
      40   -0.7804676179E+00   -0.43347E-06    0.11201E-06
      50   -0.7804691179E+00   -0.24140E-07    0.85885E-08
      60   -0.7804692002E+00   -0.21691E-08    0.12057E-09
      70   -0.7804692043E+00   -0.85167E-09    0.57534E-11
  *** tolerance ok. iteration terminated
     >>>  ITERATION ENDED   AT Wed Apr 23 07:46:10 2025  <<<


==  Summary Of Results  ==

 number of electrons: spin up=    1.00000  down=    1.00000 (real space)

 total     energy    :  -0.7804692043E+00 (   -0.39023E+00/ion)
 total orbital energy:  -0.5876429165E+00 (   -0.58764E+00/electron)
 hartree   energy    :   0.6208424640E+00 (    0.62084E+00/electron)
 exc-corr  energy    :   0.0000000000E+00 (    0.00000E+00/electron)
 HF exchange energy  :  -0.3104212320E+00 (   -0.31042E+00/electron)
 ion-ion   energy    :   0.1175949442E+00 (    0.58797E-01/ion)

 kinetic (planewave) :   0.6544696980E+00 (    0.65447E+00/electron)
 V_local (planewave) :  -0.1711106907E+01 (   -0.17111E+01/electron)
 V_nl    (planewave) :  -0.1518481717E+00 (   -0.15185E+00/electron)
 V_Coul  (planewave) :   0.1241684928E+01 (    0.12417E+01/electron)
 V_xc.   (planewave) :   0.0000000000E+00 (    0.00000E+00/electron)
 K.S. HFX energy     :  -0.6208424640E+00 (   -0.62084E+00/electron)
 Virial Coefficient  :  -0.9492725980E+00

 orbital energies:
    -0.2938215E+00 (  -7.995eV)


== Virtual Orbital Calculation ==


 input epsi filename:./pspw_hf_H2.emovecs

 COVOs Mimimization
 ------------------
CI gradient algorithm =         3
maxit_sweeps          =         3
maxit_orb             =       120
maxit_linesearch      =        15
maxerror              = 0.100E-08

     orb,it,eci,eold,eci-eold=                    1                    1 -0.93365356166412172      -0.91263696845011433       -2.1016593214007395E-002 F
     orb,it,eci,eold,eci-eold=                    1                    2 -0.94678958631228838      -0.93365356166412172       -1.3136024648166655E-002 F
     orb,it,eci,eold,eci-eold=                    1                    3 -0.94912336860322122      -0.94678958631228838       -2.3337822909328398E-003 F
     orb,it,eci,eold,eci-eold=                    1                    4 -0.95382666597754495      -0.94912336860322122       -4.7032973743237338E-003 F
     orb,it,eci,eold,eci-eold=                    1                    5 -0.95872148101550447      -0.95382666597754495       -4.8948150379595212E-003 F
     orb,it,eci,eold,eci-eold=                    1                    6 -0.95903476879259908      -0.95872148101550447       -3.1328777709460631E-004 F
     orb,it,eci,eold,eci-eold=                    1                    7 -0.95908070154205216      -0.95903476879259908       -4.5932749453081456E-005 F
     orb,it,eci,eold,eci-eold=                    1                    8 -0.96395421610265575      -0.95908070154205216       -4.8735145606035868E-003 F
     orb,it,eci,eold,eci-eold=                    1                    9 -0.96620296469350597      -0.96395421610265575       -2.2487485908502247E-003 F
     orb,it,eci,eold,eci-eold=                    1                   10 -0.96705831627616989      -0.96620296469350597       -8.5535158266392131E-004 F
     orb,it,eci,eold,eci-eold=                    1                   11 -0.96787553866896969      -0.96705831627616989       -8.1722239279979902E-004 F
     orb,it,eci,eold,eci-eold=                    1                   12 -0.96992210260379730      -0.96787553866896969       -2.0465639348276055E-003 F
     orb,it,eci,eold,eci-eold=                    1                   13 -0.97100523041951348      -0.96992210260379730       -1.0831278157161783E-003 F
     orb,it,eci,eold,eci-eold=                    1                   14 -0.97186147988690474      -0.97100523041951348       -8.5624946739126795E-004 F
     orb,it,eci,eold,eci-eold=                    1                   15 -0.97224404286570909      -0.97186147988690474       -3.8256297880434609E-004 F
     orb,it,eci,eold,eci-eold=                    1                   16 -0.97317750806160086      -0.97224404286570909       -9.3346519589176946E-004 F
     orb,it,eci,eold,eci-eold=                    1                   17 -0.97349411284391896      -0.97317750806160086       -3.1660478231809730E-004 F
     orb,it,eci,eold,eci-eold=                    1                   18 -0.97370290926094771      -0.97349411284391896       -2.0879641702875595E-004 F
     orb,it,eci,eold,eci-eold=                    1                   19 -0.97411911752640179      -0.97370290926094771       -4.1620826545407663E-004 F
     orb,it,eci,eold,eci-eold=                    1                   20 -0.97441031693463809      -0.97411911752640179       -2.9119940823629786E-004 F
     orb,it,eci,eold,eci-eold=                    1                   21 -0.97499607495273710      -0.97441031693463809       -5.8575801809901407E-004 F
     orb,it,eci,eold,eci-eold=                    1                   22 -0.97516283033448792      -0.97499607495273710       -1.6675538175081606E-004 F
     orb,it,eci,eold,eci-eold=                    1                   23 -0.97525389955527653      -0.97516283033448792       -9.1069220788608796E-005 F
     orb,it,eci,eold,eci-eold=                    1                   24 -0.97554715639750444      -0.97525389955527653       -2.9325684222791804E-004 F
     orb,it,eci,eold,eci-eold=                    1                   25 -0.97560524009229799      -0.97554715639750444       -5.8083694793542584E-005 F
     orb,it,eci,eold,eci-eold=                    1                   26 -0.97567983079819887      -0.97560524009229799       -7.4590705900878795E-005 F
     orb,it,eci,eold,eci-eold=                    1                   27 -0.97597733764055095      -0.97567983079819887       -2.9750684235207991E-004 F
     orb,it,eci,eold,eci-eold=                    1                   28 -0.97613061765636999      -0.97597733764055095       -1.5328001581904616E-004 F
     orb,it,eci,eold,eci-eold=                    1                   29 -0.97622555164394487      -0.97613061765636999       -9.4933987574874479E-005 F
     orb,it,eci,eold,eci-eold=                    1                   30 -0.97645867175480028      -0.97622555164394487       -2.3312011085541151E-004 F
     orb,it,eci,eold,eci-eold=                    1                   31 -0.97660185018704060      -0.97645867175480028       -1.4317843224032067E-004 F
     orb,it,eci,eold,eci-eold=                    1                   32 -0.97675298782884645      -0.97660185018704060       -1.5113764180585409E-004 F
     orb,it,eci,eold,eci-eold=                    1                   33 -0.97683589423485895      -0.97675298782884645       -8.2906406012495104E-005 F
     orb,it,eci,eold,eci-eold=                    1                   34 -0.97702024586750813      -0.97683589423485895       -1.8435163264918231E-004 F
     orb,it,eci,eold,eci-eold=                    1                   35 -0.97703421932629775      -0.97702024586750813       -1.3973458789617865E-005 F
     orb,it,eci,eold,eci-eold=                    1                   36 -0.97704654111070233      -0.97703421932629775       -1.2321784404578651E-005 F
     orb,it,eci,eold,eci-eold=                    1                   37 -0.97717648832468162      -0.97704654111070233       -1.2994721397929787E-004 F
     orb,it,eci,eold,eci-eold=                    1                   38 -0.97725127500753661      -0.97717648832468162       -7.4786682854988129E-005 F
     orb,it,eci,eold,eci-eold=                    1                   39 -0.97732919316311162      -0.97725127500753661       -7.7918155575007475E-005 F
     orb,it,eci,eold,eci-eold=                    1                   40 -0.97736670020532179      -0.97732919316311162       -3.7507042210171981E-005 F
     orb,it,eci,eold,eci-eold=                    1                   41 -0.97744080998776339      -0.97736670020532179       -7.4109782441600380E-005 F
     orb,it,eci,eold,eci-eold=                    1                   42 -0.97746051722169214      -0.97744080998776339       -1.9707233928745183E-005 F
     orb,it,eci,eold,eci-eold=                    1                   43 -0.97747265460996158      -0.97746051722169214       -1.2137388269439775E-005 F
     orb,it,eci,eold,eci-eold=                    1                   44 -0.97751471862357553      -0.97747265460996158       -4.2064013613951623E-005 F
     orb,it,eci,eold,eci-eold=                    1                   45 -0.97751943320381418      -0.97751471862357553       -4.7145802386516777E-006 F
     orb,it,eci,eold,eci-eold=                    1                   46 -0.97752643152615037      -0.97751943320381418       -6.9983223361935742E-006 F
     orb,it,eci,eold,eci-eold=                    1                   47 -0.97757589142826129      -0.97752643152615037       -4.9459902110915444E-005 F
     orb,it,eci,eold,eci-eold=                    1                   48 -0.97760299705576981      -0.97757589142826129       -2.7105627508516861E-005 F
     orb,it,eci,eold,eci-eold=                    1                   49 -0.97761064794353014      -0.97760299705576981       -7.6508877603354009E-006 F
     orb,it,eci,eold,eci-eold=                    1                   50 -0.97764210381016958      -0.97761064794353014       -3.1455866639440444E-005 F
     orb,it,eci,eold,eci-eold=                    1                   51 -0.97764697213626928      -0.97764210381016958       -4.8683260996940092E-006 F
     orb,it,eci,eold,eci-eold=                    1                   52 -0.97764907987485183      -0.97764697213626928       -2.1077385825574169E-006 F
     orb,it,eci,eold,eci-eold=                    1                   53 -0.97767823277655286      -0.97764907987485183       -2.9152901701023914E-005 F
     orb,it,eci,eold,eci-eold=                    1                   54 -0.97769171380833986      -0.97767823277655286       -1.3481031786999331E-005 F
     orb,it,eci,eold,eci-eold=                    1                   55 -0.97769414449625269      -0.97769171380833986       -2.4306879128355163E-006 F
     orb,it,eci,eold,eci-eold=                    1                   56 -0.97771754760371066      -0.97769414449625269       -2.3403107457964367E-005 F
     orb,it,eci,eold,eci-eold=                    1                   57 -0.97773154705402399      -0.97771754760371066       -1.3999450313328943E-005 F
     orb,it,eci,eold,eci-eold=                    1                   58 -0.97773556723327248      -0.97773154705402399       -4.0201792484984011E-006 F
     orb,it,eci,eold,eci-eold=                    1                   59 -0.97775146006146008      -0.97773556723327248       -1.5892828187591412E-005 F
     orb,it,eci,eold,eci-eold=                    1                   60 -0.97775795699921042      -0.97775146006146008       -6.4969377503443226E-006 F
     orb,it,eci,eold,eci-eold=                    1                   61 -0.97776261674854470      -0.97775795699921042       -4.6597493342792617E-006 F
     orb,it,eci,eold,eci-eold=                    1                   62 -0.97778103711203068      -0.97776261674854470       -1.8420363485982527E-005 F
     orb,it,eci,eold,eci-eold=                    1                   63 -0.97778577753809037      -0.97778103711203068       -4.7404260596906056E-006 F
     orb,it,eci,eold,eci-eold=                    1                   64 -0.97778637831781190      -0.97778577753809037       -6.0077972152683401E-007 F
     orb,it,eci,eold,eci-eold=                    1                   65 -0.97779865750595640      -0.97778637831781190       -1.2279188144503905E-005 F
     orb,it,eci,eold,eci-eold=                    1                   66 -0.97780483004549290      -0.97779865750595640       -6.1725395364975455E-006 F
     orb,it,eci,eold,eci-eold=                    1                   67 -0.97780661480608166      -0.97780483004549290       -1.7847605887633122E-006 F
     orb,it,eci,eold,eci-eold=                    1                   68 -0.97781712475289950      -0.97780661480608166       -1.0509946817838234E-005 F
     orb,it,eci,eold,eci-eold=                    1                   69 -0.97782155948470262      -0.97781712475289950       -4.4347318031157101E-006 F
     orb,it,eci,eold,eci-eold=                    1                   70 -0.97782327134036207      -0.97782155948470262       -1.7118556594475365E-006 F
     orb,it,eci,eold,eci-eold=                    1                   71 -0.97783406122797045      -0.97782327134036207       -1.0789887608386728E-005 F
     orb,it,eci,eold,eci-eold=                    1                   72 -0.97783842879864313      -0.97783406122797045       -4.3675706726808983E-006 F
     orb,it,eci,eold,eci-eold=                    1                   73 -0.97783868196862112      -0.97783842879864313       -2.5316997798174867E-007 F
     orb,it,eci,eold,eci-eold=                    1                   74 -0.97784496683171773      -0.97783868196862112       -6.2848630966172436E-006 F
     orb,it,eci,eold,eci-eold=                    1                   75 -0.97784904696547159      -0.97784496683171773       -4.0801337538587390E-006 F
     orb,it,eci,eold,eci-eold=                    1                   76 -0.97785111655852752      -0.97784904696547159       -2.0695930559311293E-006 F
     orb,it,eci,eold,eci-eold=                    1                   77 -0.97785802009674927      -0.97785111655852752       -6.9035382217474961E-006 F
     orb,it,eci,eold,eci-eold=                    1                   78 -0.97785971459762500      -0.97785802009674927       -1.6945008757263125E-006 F
     orb,it,eci,eold,eci-eold=                    1                   79 -0.97786013375006187      -0.97785971459762500       -4.1915243687018489E-007 F
     orb,it,eci,eold,eci-eold=                    1                   80 -0.97786503889326681      -0.97786013375006187       -4.9051432049473931E-006 F
     orb,it,eci,eold,eci-eold=                    1                   81 -0.97786726882486208      -0.97786503889326681       -2.2299315952656329E-006 F
     orb,it,eci,eold,eci-eold=                    1                   82 -0.97786787081693249      -0.97786726882486208       -6.0199207041478076E-007 F
     orb,it,eci,eold,eci-eold=                    1                   83 -0.97787173484002843      -0.97786787081693249       -3.8640230959341437E-006 F
     orb,it,eci,eold,eci-eold=                    1                   84 -0.97787376547917915      -0.97787173484002843       -2.0306391507185495E-006 F
     orb,it,eci,eold,eci-eold=                    1                   85 -0.97787471222488431      -0.97787376547917915       -9.4674570516595224E-007 F
     orb,it,eci,eold,eci-eold=                    1                   86 -0.97787821160429322      -0.97787471222488431       -3.4993794089110963E-006 F
     orb,it,eci,eold,eci-eold=                    1                   87 -0.97787862887158294      -0.97787821160429322       -4.1726728972069083E-007 F
     orb,it,eci,eold,eci-eold=                    1                   88 -0.97787893021537253      -0.97787862887158294       -3.0134378958823760E-007 F
     orb,it,eci,eold,eci-eold=                    1                   89 -0.97788284562059369      -0.97787893021537253       -3.9154052211554102E-006 F
     orb,it,eci,eold,eci-eold=                    1                   90 -0.97788338916783557      -0.97788284562059369       -5.4354724188243608E-007 F
     orb,it,eci,eold,eci-eold=                    1                   91 -0.97788359158747973      -0.97788338916783557       -2.0241964415745883E-007 F
     orb,it,eci,eold,eci-eold=                    1                   92 -0.97788677936536461      -0.97788359158747973       -3.1877778848832250E-006 F
     orb,it,eci,eold,eci-eold=                    1                   93 -0.97788678317496869      -0.97788677936536461       -3.8096040766433248E-009 F
     orb,it,eci,eold,eci-eold=                    1                   94 -0.97788682587520981      -0.97788678317496869       -4.2700241120741111E-008 F
     orb,it,eci,eold,eci-eold=                    1                   95 -0.97788927697146844      -0.97788682587520981       -2.4510962586266061E-006 F
     orb,it,eci,eold,eci-eold=                    1                   96 -0.97789070477349627      -0.97788927697146844       -1.4278020278313264E-006 F
     orb,it,eci,eold,eci-eold=                    1                   97 -0.97789189304781199      -0.97789070477349627       -1.1882743157221043E-006 F
     orb,it,eci,eold,eci-eold=                    1                   98 -0.97789245447693829      -0.97789189304781199       -5.6142912630008368E-007 F
     orb,it,eci,eold,eci-eold=                    1                   99 -0.97789379295958012      -0.97789245447693829       -1.3384826418327833E-006 F
     orb,it,eci,eold,eci-eold=                    1                  100 -0.97789404608996255      -0.97789379295958012       -2.5313038243268693E-007 F
     orb,it,eci,eold,eci-eold=                    1                  101 -0.97789412182701707      -0.97789404608996255       -7.5737054516800129E-008 F
     orb,it,eci,eold,eci-eold=                    1                  102 -0.97789491222638703      -0.97789412182701707       -7.9039936995428661E-007 F
     orb,it,eci,eold,eci-eold=                    1                  103 -0.97789525326575510      -0.97789491222638703       -3.4103936807916568E-007 F
     orb,it,eci,eold,eci-eold=                    1                  104 -0.97789541731481222      -0.97789525326575510       -1.6404905711642215E-007 F
     orb,it,eci,eold,eci-eold=                    1                  105 -0.97789627477209629      -0.97789541731481222       -8.5745728406472210E-007 F
     orb,it,eci,eold,eci-eold=                    1                  106 -0.97789667865525132      -0.97789627477209629       -4.0388315503125938E-007 F
     orb,it,eci,eold,eci-eold=                    1                  107 -0.97789680314880290      -0.97789667865525132       -1.2449355157873043E-007 F
     orb,it,eci,eold,eci-eold=                    1                  108 -0.97789750122065644      -0.97789680314880290       -6.9807185354431311E-007 F
     orb,it,eci,eold,eci-eold=                    1                  109 -0.97789775571782467      -0.97789750122065644       -2.5449716822834034E-007 F
     orb,it,eci,eold,eci-eold=                    1                  110 -0.97789779850508718      -0.97789775571782467       -4.2787262510834978E-008 F
     orb,it,eci,eold,eci-eold=                    1                  111 -0.97789831102419023      -0.97789779850508718       -5.1251910304639381E-007 F
     orb,it,eci,eold,eci-eold=                    1                  112 -0.97789863887330297      -0.97789831102419023       -3.2784911274674755E-007 F
     orb,it,eci,eold,eci-eold=                    1                  113 -0.97789877571194506      -0.97789863887330297       -1.3683864208413610E-007 F
     orb,it,eci,eold,eci-eold=                    1                  114 -0.97789928719247787      -0.97789877571194506       -5.1148053281657724E-007 F
     orb,it,eci,eold,eci-eold=                    1                  115 -0.97789945177142523      -0.97789928719247787       -1.6457894735921741E-007 F
     orb,it,eci,eold,eci-eold=                    1                  116 -0.97789947894283802      -0.97789945177142523       -2.7171412786408666E-008 F
     orb,it,eci,eold,eci-eold=                    1                  117 -0.97789979654287451      -0.97789947894283802       -3.1760003649239366E-007 F
     orb,it,eci,eold,eci-eold=                    1                  118 -0.97789999109243286      -0.97789979654287451       -1.9454955835218612E-007 F
     orb,it,eci,eold,eci-eold=                    1                  119 -0.97790009198074512      -0.97789999109243286       -1.0088831225996131E-007 F
     orb,it,eci,eold,eci-eold=                    1                  120 -0.97790044023407552      -0.97790009198074512       -3.4825333039556483E-007 F
     orb,it,eci,eold,eci-eold=                    1                  121 -0.97790054854663400      -0.97790044023407552       -1.0831255847776333E-007 F
     orbital   1 current e= -0.161833E+00 error=0.742E-01 (eci= -0.977900549E+00 error=0.108E-06) iterations 121(   0 preconditioned, Ep,Sp= 20.0  200.0)
     orb,it,eci,eold,eci-eold=                    1                    1 -0.97790102295287795      -0.97790054854663400       -4.7440624395544972E-007 F
     orb,it,eci,eold,eci-eold=                    1                    2 -0.97790127217256329      -0.97790102295287795       -2.4921968533320182E-007 F
     orb,it,eci,eold,eci-eold=                    1                    3 -0.97790186611977514      -0.97790127217256329       -5.9394721185768162E-007 F
     orb,it,eci,eold,eci-eold=                    1                    4 -0.97790188176379256      -0.97790186611977514       -1.5644017414828681E-008 F
     orb,it,eci,eold,eci-eold=                    1                    5 -0.97790206594741425      -0.97790188176379256       -1.8418362168759472E-007 F
     orb,it,eci,eold,eci-eold=                    1                    6 -0.97790232432369528      -0.97790206594741425       -2.5837628103708710E-007 F
     orb,it,eci,eold,eci-eold=                    1                    7 -0.97790247527362739      -0.97790232432369528       -1.5094993210951202E-007 F
     orb,it,eci,eold,eci-eold=                    1                    8 -0.97790258366604021      -0.97790247527362739       -1.0839241282312173E-007 F
     orb,it,eci,eold,eci-eold=                    1                    9 -0.97790263500382157      -0.97790258366604021       -5.1337781359350743E-008 F
     orb,it,eci,eold,eci-eold=                    1                   10 -0.97790273327616251      -0.97790263500382157       -9.8272340931515600E-008 F
     orb,it,eci,eold,eci-eold=                    1                   11 -0.97790278813877851      -0.97790273327616251       -5.4862616005735276E-008 F
     orb,it,eci,eold,eci-eold=                    1                   12 -0.97790281016549230      -0.97790278813877851       -2.2026713786260643E-008 F
     orb,it,eci,eold,eci-eold=                    1                   13 -0.97790281785431221      -0.97790281016549230       -7.6888199140867641E-009 F
     orb,it,eci,eold,eci-eold=                    1                   14 -0.97790285993995418      -0.97790281785431221       -4.2085641971389975E-008 F
     orb,it,eci,eold,eci-eold=                    1                   15 -0.97790288230313471      -0.97790285993995418       -2.2363180529616500E-008 F
     orb,it,eci,eold,eci-eold=                    1                   16 -0.97790288394308078      -0.97790288230313471       -1.6399460678329092E-009 F
     orb,it,eci,eold,eci-eold=                    1                   17 -0.97790288410563020      -0.97790288394308078       -1.6254941836990611E-010 F
     orbital   1 current e= -0.161838E+00 error=0.522E-05 (eci= -0.977902884E+00 error=0.163E-09) iterations  17(   0 preconditioned, Ep,Sp= 20.0  200.0)
     orb,it,eci,eold,eci-eold=                    1                    1 -0.97790290268125379      -0.97790288410563020       -1.8575623594863089E-008 F
     orb,it,eci,eold,eci-eold=                    1                    2 -0.97790290931759560      -0.97790290268125379       -6.6363418094184112E-009 F
     orb,it,eci,eold,eci-eold=                    1                    3 -0.97790291117071804      -0.97790290931759560       -1.8531224332818397E-009 F
     orb,it,eci,eold,eci-eold=                    1                    4 -0.97790291202794866      -0.97790291117071804       -8.5723061982179161E-010 F
     orbital   1 current e= -0.161838E+00 error=0.674E-07 (eci= -0.977902912E+00 error=0.857E-09) iterations   4(   0 preconditioned, Ep,Sp= 20.0  200.0)
     orb,it,eci,eold,eci-eold=                    2                    1 -0.78389560890427545      -0.78339201735116593       -5.0359155310952808E-004 F
     orb,it,eci,eold,eci-eold=                    2                    2 -0.78393065291135255      -0.78389560890427545       -3.5044007077100758E-005 F
     orb,it,eci,eold,eci-eold=                    2                    3 -0.78397782339996480      -0.78393065291135255       -4.7170488612247041E-005 F
     orb,it,eci,eold,eci-eold=                    2                    4 -0.78408943924458852      -0.78397782339996480       -1.1161584462371366E-004 F
     orb,it,eci,eold,eci-eold=                    2                    5 -0.78415167290985566      -0.78408943924458852       -6.2233665267141802E-005 F
     orb,it,eci,eold,eci-eold=                    2                    6 -0.78424005608575031      -0.78415167290985566       -8.8383175894657384E-005 F
     orb,it,eci,eold,eci-eold=                    2                    7 -0.78430026216562088      -0.78424005608575031       -6.0206079870561702E-005 F
     orb,it,eci,eold,eci-eold=                    2                    8 -0.78435506865199178      -0.78430026216562088       -5.4806486370906349E-005 F
     orb,it,eci,eold,eci-eold=                    2                    9 -0.78438248003188837      -0.78435506865199178       -2.7411379896591370E-005 F
     orb,it,eci,eold,eci-eold=                    2                   10 -0.78440483690245633      -0.78438248003188837       -2.2356870567952214E-005 F
     orb,it,eci,eold,eci-eold=                    2                   11 -0.78441421110052434      -0.78440483690245633       -9.3741980680128734E-006 F
     orb,it,eci,eold,eci-eold=                    2                   12 -0.78442123721959645      -0.78441421110052434       -7.0261190721065958E-006 F
     orb,it,eci,eold,eci-eold=                    2                   13 -0.78445909027150496      -0.78442123721959645       -3.7853051908509627E-005 F
     orb,it,eci,eold,eci-eold=                    2                   14 -0.78447614836216450      -0.78445909027150496       -1.7058090659549663E-005 F
     orb,it,eci,eold,eci-eold=                    2                   15 -0.78449122709007457      -0.78447614836216450       -1.5078727910067258E-005 F
     orb,it,eci,eold,eci-eold=                    2                   16 -0.78450221354752503      -0.78449122709007457       -1.0986457450457010E-005 F
     orb,it,eci,eold,eci-eold=                    2                   17 -0.78453533279655363      -0.78450221354752503       -3.3119249028601416E-005 F
     orb,it,eci,eold,eci-eold=                    2                   18 -0.78454430816831411      -0.78453533279655363       -8.9753717604779126E-006 F
     orb,it,eci,eold,eci-eold=                    2                   19 -0.78454680589561110      -0.78454430816831411       -2.4977272969906039E-006 F
     orb,it,eci,eold,eci-eold=                    2                   20 -0.78456557405623750      -0.78454680589561110       -1.8768160626403407E-005 F
     orb,it,eci,eold,eci-eold=                    2                   21 -0.78457044908253448      -0.78456557405623750       -4.8750262969798897E-006 F
     orb,it,eci,eold,eci-eold=                    2                   22 -0.78457293145233220      -0.78457044908253448       -2.4823697977183201E-006 F
     orb,it,eci,eold,eci-eold=                    2                   23 -0.78459163289035483      -0.78457293145233220       -1.8701438022628025E-005 F
     orb,it,eci,eold,eci-eold=                    2                   24 -0.78459937218457210      -0.78459163289035483       -7.7392942172682666E-006 F
     orb,it,eci,eold,eci-eold=                    2                   25 -0.78460083573998385      -0.78459937218457210       -1.4635554117514715E-006 F
     orb,it,eci,eold,eci-eold=                    2                   26 -0.78461152842124027      -0.78460083573998385       -1.0692681256418979E-005 F
     orb,it,eci,eold,eci-eold=                    2                   27 -0.78461462189107611      -0.78461152842124027       -3.0934698358464630E-006 F
     orb,it,eci,eold,eci-eold=                    2                   28 -0.78461659794306859      -0.78461462189107611       -1.9760519924805209E-006 F
     orb,it,eci,eold,eci-eold=                    2                   29 -0.78462758204550709      -0.78461659794306859       -1.0984102438493792E-005 F
     orb,it,eci,eold,eci-eold=                    2                   30 -0.78462881130298479      -0.78462758204550709       -1.2292574776973098E-006 F
     orb,it,eci,eold,eci-eold=                    2                   31 -0.78462928907449991      -0.78462881130298479       -4.7777151512828908E-007 F
     orb,it,eci,eold,eci-eold=                    2                   32 -0.78463813755899880      -0.78462928907449991       -8.8484844988911959E-006 F
     orb,it,eci,eold,eci-eold=                    2                   33 -0.78463983342143262      -0.78463813755899880       -1.6958624338148098E-006 F
     orb,it,eci,eold,eci-eold=                    2                   34 -0.78464024581523939      -0.78463983342143262       -4.1239380677016158E-007 F
     orb,it,eci,eold,eci-eold=                    2                   35 -0.78464647559829181      -0.78464024581523939       -6.2297830524249420E-006 F
     orb,it,eci,eold,eci-eold=                    2                   36 -0.78464838389531011      -0.78464647559829181       -1.9082970182937586E-006 F
     orb,it,eci,eold,eci-eold=                    2                   37 -0.78464898053799104      -0.78464838389531011       -5.9664268092785022E-007 F
     orb,it,eci,eold,eci-eold=                    2                   38 -0.78465505057742502      -0.78464898053799104       -6.0700394339807673E-006 F
     orb,it,eci,eold,eci-eold=                    2                   39 -0.78465583172718478      -0.78465505057742502       -7.8114975976539824E-007 F
     orb,it,eci,eold,eci-eold=                    2                   40 -0.78465608645758411      -0.78465583172718478       -2.5473039932943919E-007 F
     orb,it,eci,eold,eci-eold=                    2                   41 -0.78465971262958378      -0.78465608645758411       -3.6261719996710795E-006 F
     orb,it,eci,eold,eci-eold=                    2                   42 -0.78466065749776548      -0.78465971262958378       -9.4486818169592368E-007 F
     orb,it,eci,eold,eci-eold=                    2                   43 -0.78466080909007796      -0.78466065749776548       -1.5159231248063065E-007 F
     orb,it,eci,eold,eci-eold=                    2                   44 -0.78466408348523253      -0.78466080909007796       -3.2743951545732841E-006 F
     orb,it,eci,eold,eci-eold=                    2                   45 -0.78466611905578787      -0.78466408348523253       -2.0355705553365411E-006 F
     orb,it,eci,eold,eci-eold=                    2                   46 -0.78466675077819525      -0.78466611905578787       -6.3172240738484930E-007 F
     orb,it,eci,eold,eci-eold=                    2                   47 -0.78466940853150968      -0.78466675077819525       -2.6577533144278576E-006 F
     orb,it,eci,eold,eci-eold=                    2                   48 -0.78466977467342003      -0.78466940853150968       -3.6614191034622934E-007 F
     orb,it,eci,eold,eci-eold=                    2                   49 -0.78466977594397691      -0.78466977467342003       -1.2705568819271207E-009 F
     orb,it,eci,eold,eci-eold=                    2                   50 -0.78467191560428917      -0.78466977594397691       -2.1396603122614266E-006 F
     orb,it,eci,eold,eci-eold=                    2                   51 -0.78467307583425816      -0.78467191560428917       -1.1602299689883466E-006 F
     orb,it,eci,eold,eci-eold=                    2                   52 -0.78467334886947948      -0.78467307583425816       -2.7303522132093860E-007 F
     orb,it,eci,eold,eci-eold=                    2                   53 -0.78467513892752616      -0.78467334886947948       -1.7900580466800875E-006 F
     orb,it,eci,eold,eci-eold=                    2                   54 -0.78467581097284644      -0.78467513892752616       -6.7204532028242170E-007 F
     orb,it,eci,eold,eci-eold=                    2                   55 -0.78467597667354205      -0.78467581097284644       -1.6570069560906120E-007 F
     orb,it,eci,eold,eci-eold=                    2                   56 -0.78467730729025797      -0.78467597667354205       -1.3306167159221616E-006 F
     orb,it,eci,eold,eci-eold=                    2                   57 -0.78467784416840503      -0.78467730729025797       -5.3687814705050130E-007 F
     orb,it,eci,eold,eci-eold=                    2                   58 -0.78467807409593482      -0.78467784416840503       -2.2992752979344999E-007 F
     orb,it,eci,eold,eci-eold=                    2                   59 -0.78467932082446212      -0.78467807409593482       -1.2467285273043416E-006 F
     orb,it,eci,eold,eci-eold=                    2                   60 -0.78467946891481200      -0.78467932082446212       -1.4809034987184333E-007 F
     orb,it,eci,eold,eci-eold=                    2                   61 -0.78467952627650672      -0.78467946891481200       -5.7361694727475765E-008 F
     orb,it,eci,eold,eci-eold=                    2                   62 -0.78468068185704964      -0.78467952627650672       -1.1555805429219745E-006 F
     orb,it,eci,eold,eci-eold=                    2                   63 -0.78468083969368885      -0.78468068185704964       -1.5783663920299063E-007 F
     orb,it,eci,eold,eci-eold=                    2                   64 -0.78468088752651266      -0.78468083969368885       -4.7832823812932190E-008 F
     orb,it,eci,eold,eci-eold=                    2                   65 -0.78468185035911886      -0.78468088752651266       -9.6283260619944855E-007 F
     orb,it,eci,eold,eci-eold=                    2                   66 -0.78468242675624289      -0.78468185035911886       -5.7639712403023680E-007 F
     orb,it,eci,eold,eci-eold=                    2                   67 -0.78468280153619174      -0.78468242675624289       -3.7477994885293242E-007 F
     orb,it,eci,eold,eci-eold=                    2                   68 -0.78468296950992622      -0.78468280153619174       -1.6797373447730024E-007 F
     orb,it,eci,eold,eci-eold=                    2                   69 -0.78468345607191625      -0.78468296950992622       -4.8656199003183076E-007 F
     orb,it,eci,eold,eci-eold=                    2                   70 -0.78468351508719791      -0.78468345607191625       -5.9015281661523034E-008 F
     orb,it,eci,eold,eci-eold=                    2                   71 -0.78468355619874763      -0.78468351508719791       -4.1111549720085350E-008 F
     orb,it,eci,eold,eci-eold=                    2                   72 -0.78468400547758566      -0.78468355619874763       -4.4927883802170498E-007 F
     orb,it,eci,eold,eci-eold=                    2                   73 -0.78468424444272966      -0.78468400547758566       -2.3896514400600921E-007 F
     orb,it,eci,eold,eci-eold=                    2                   74 -0.78468447531188146      -0.78468424444272966       -2.3086915179604262E-007 F
     orb,it,eci,eold,eci-eold=                    2                   75 -0.78468461085292085      -0.78468447531188146       -1.3554103939217299E-007 F
     orb,it,eci,eold,eci-eold=                    2                   76 -0.78468484972560004      -0.78468461085292085       -2.3887267919242561E-007 F
     orb,it,eci,eold,eci-eold=                    2                   77 -0.78468497183925590      -0.78468484972560004       -1.2211365585379497E-007 F
     orb,it,eci,eold,eci-eold=                    2                   78 -0.78468513646359950      -0.78468497183925590       -1.6462434360153821E-007 F
     orb,it,eci,eold,eci-eold=                    2                   79 -0.78468514555917057      -0.78468513646359950       -9.0955710740914242E-009 F
     orb,it,eci,eold,eci-eold=                    2                   80 -0.78468517152478690      -0.78468514555917057       -2.5965616323730956E-008 F
     orb,it,eci,eold,eci-eold=                    2                   81 -0.78468531327757862      -0.78468517152478690       -1.4175279172690125E-007 F
     orb,it,eci,eold,eci-eold=                    2                   82 -0.78468537351966217      -0.78468531327757862       -6.0242083543826652E-008 F
     orb,it,eci,eold,eci-eold=                    2                   83 -0.78468539201889098      -0.78468537351966217       -1.8499228815471724E-008 F
     orb,it,eci,eold,eci-eold=                    2                   84 -0.78468549042536273      -0.78468539201889098       -9.8406471749079572E-008 F
     orb,it,eci,eold,eci-eold=                    2                   85 -0.78468553139115826      -0.78468549042536273       -4.0965795533587368E-008 F
     orb,it,eci,eold,eci-eold=                    2                   86 -0.78468554857194039      -0.78468553139115826       -1.7180782130310490E-008 F
     orb,it,eci,eold,eci-eold=                    2                   87 -0.78468562985525026      -0.78468554857194039       -8.1283309860680220E-008 F
     orb,it,eci,eold,eci-eold=                    2                   88 -0.78468566029391518      -0.78468562985525026       -3.0438664921916825E-008 F
     orb,it,eci,eold,eci-eold=                    2                   89 -0.78468567351296148      -0.78468566029391518       -1.3219046302026527E-008 F
     orb,it,eci,eold,eci-eold=                    2                   90 -0.78468575261711271      -0.78468567351296148       -7.9104151229358877E-008 F
     orb,it,eci,eold,eci-eold=                    2                   91 -0.78468579511499603      -0.78468575261711271       -4.2497883323555641E-008 F
     orb,it,eci,eold,eci-eold=                    2                   92 -0.78468580606500082      -0.78468579511499603       -1.0950004791787649E-008 F
     orb,it,eci,eold,eci-eold=                    2                   93 -0.78468585794647172      -0.78468580606500082       -5.1881470897185977E-008 F
     orb,it,eci,eold,eci-eold=                    2                   94 -0.78468588127891592      -0.78468585794647172       -2.3332444198942426E-008 F
     orb,it,eci,eold,eci-eold=                    2                   95 -0.78468589290993918      -0.78468588127891592       -1.1631023255631590E-008 F
     orb,it,eci,eold,eci-eold=                    2                   96 -0.78468594156930438      -0.78468589290993918       -4.8659365203818084E-008 F
     orb,it,eci,eold,eci-eold=                    2                   97 -0.78468595865878821      -0.78468594156930438       -1.7089483828058860E-008 F
     orb,it,eci,eold,eci-eold=                    2                   98 -0.78468596256399614      -0.78468595865878821       -3.9052079348067537E-009 F
     orb,it,eci,eold,eci-eold=                    2                   99 -0.78468599356337587      -0.78468596256399614       -3.0999379729834686E-008 F
     orb,it,eci,eold,eci-eold=                    2                  100 -0.78468601341217947      -0.78468599356337587       -1.9848803600730491E-008 F
     orb,it,eci,eold,eci-eold=                    2                  101 -0.78468602521272968      -0.78468601341217947       -1.1800550203666660E-008 F
     orb,it,eci,eold,eci-eold=                    2                  102 -0.78468606112772654      -0.78468602521272968       -3.5914996865393789E-008 F
     orb,it,eci,eold,eci-eold=                    2                  103 -0.78468607034898274      -0.78468606112772654       -9.2212562030624667E-009 F
     orb,it,eci,eold,eci-eold=                    2                  104 -0.78468607268515855      -0.78468607034898274       -2.3361758083595419E-009 F
     orb,it,eci,eold,eci-eold=                    2                  105 -0.78468609967252689      -0.78468607268515855       -2.6987368340058993E-008 F
     orb,it,eci,eold,eci-eold=                    2                  106 -0.78468612064171206      -0.78468609967252689       -2.0969185166030968E-008 F
     orb,it,eci,eold,eci-eold=                    2                  107 -0.78468612926460490      -0.78468612064171206       -8.6228928442011465E-009 F
     orb,it,eci,eold,eci-eold=                    2                  108 -0.78468615173971101      -0.78468612926460490       -2.2475106109531851E-008 F
     orb,it,eci,eold,eci-eold=                    2                  109 -0.78468615692993526      -0.78468615173971101       -5.1902242503842899E-009 F
     orb,it,eci,eold,eci-eold=                    2                  110 -0.78468616007578174      -0.78468615692993526       -3.1458464722078361E-009 F
     orb,it,eci,eold,eci-eold=                    2                  111 -0.78468617988283551      -0.78468616007578174       -1.9807053774911765E-008 F
     orb,it,eci,eold,eci-eold=                    2                  112 -0.78468618779795984      -0.78468617988283551       -7.9151243337349797E-009 F
     orb,it,eci,eold,eci-eold=                    2                  113 -0.78468618951151448      -0.78468618779795984       -1.7135546315216743E-009 F
     orb,it,eci,eold,eci-eold=                    2                  114 -0.78468620432075942      -0.78468618951151448       -1.4809244941460520E-008 F
     orb,it,eci,eold,eci-eold=                    2                  115 -0.78468621352307055      -0.78468620432075942       -9.2023111353256581E-009 F
     orb,it,eci,eold,eci-eold=                    2                  116 -0.78468621701739982      -0.78468621352307055       -3.4943292703815132E-009 F
     orb,it,eci,eold,eci-eold=                    2                  117 -0.78468622955896783      -0.78468621701739982       -1.2541568006341208E-008 F
     orb,it,eci,eold,eci-eold=                    2                  118 -0.78468623446804608      -0.78468622955896783       -4.9090782550109680E-009 F
     orb,it,eci,eold,eci-eold=                    2                  119 -0.78468623627522549      -0.78468623446804608       -1.8071794061214064E-009 F
     orb,it,eci,eold,eci-eold=                    2                  120 -0.78468624488505057      -0.78468623627522549       -8.6098250751120986E-009 F
     orb,it,eci,eold,eci-eold=                    2                  121 -0.78468624912236784      -0.78468624488505057       -4.2373172748355614E-009 F
     orbital   2 current e=  0.348495E+00 error=0.466E-01 (eci= -0.784686249E+00 error=0.424E-08) iterations 121(   0 preconditioned, Ep,Sp= 20.0  200.0)
     orb,it,eci,eold,eci-eold=                    2                    1 -0.78468625368080036      -0.78468624912236784       -4.5584325203407161E-009 F
     orb,it,eci,eold,eci-eold=                    2                    2 -0.78468625423235583      -0.78468625368080036       -5.5155546796470389E-010 F
     orbital   2 current e=  0.348480E+00 error=0.155E-04 (eci= -0.784686254E+00 error=0.552E-09) iterations   2(   0 preconditioned, Ep,Sp= 20.0  200.0)
     orb,it,eci,eold,eci-eold=                    2                    1 -0.78468625551953308      -0.78468625423235583       -1.2871772536726667E-009 F
     orb,it,eci,eold,eci-eold=                    2                    2 -0.78468625551953308      -0.78468625551953308        0.0000000000000000      F
     orbital   2 current e=  0.348467E+00 error=0.121E-04 (eci= -0.784686256E+00 error=0.000E+00) iterations   2(   0 preconditioned, Ep,Sp= 20.0  200.0)
     orb,it,eci,eold,eci-eold=                    3                    1 -0.78213172280855892      -0.78202346231670083       -1.0826049185808095E-004 F
     orb,it,eci,eold,eci-eold=                    3                    2 -0.78215203209300288      -0.78213172280855892       -2.0309284443964515E-005 F
     orb,it,eci,eold,eci-eold=                    3                    3 -0.78218620206368916      -0.78215203209300288       -3.4169970686281914E-005 F
     orb,it,eci,eold,eci-eold=                    3                    4 -0.78221092940113601      -0.78218620206368916       -2.4727337446850406E-005 F
     orb,it,eci,eold,eci-eold=                    3                    5 -0.78224704283818847      -0.78221092940113601       -3.6113437052454067E-005 F
     orb,it,eci,eold,eci-eold=                    3                    6 -0.78226300088350997      -0.78224704283818847       -1.5958045321506908E-005 F
     orb,it,eci,eold,eci-eold=                    3                    7 -0.78228557288601297      -0.78226300088350997       -2.2572002502996291E-005 F
     orb,it,eci,eold,eci-eold=                    3                    8 -0.78230097006393906      -0.78228557288601297       -1.5397177926090855E-005 F
     orb,it,eci,eold,eci-eold=                    3                    9 -0.78231876398817812      -0.78230097006393906       -1.7793924239062342E-005 F
     orb,it,eci,eold,eci-eold=                    3                   10 -0.78232785285472850      -0.78231876398817812       -9.0888665503774391E-006 F
     orb,it,eci,eold,eci-eold=                    3                   11 -0.78234308862236879      -0.78232785285472850       -1.5235767640287001E-005 F
     orb,it,eci,eold,eci-eold=                    3                   12 -0.78234462761934953      -0.78234308862236879       -1.5389969807433346E-006 F
     orb,it,eci,eold,eci-eold=                    3                   13 -0.78234933268706242      -0.78234462761934953       -4.7050677128845919E-006 F
     orb,it,eci,eold,eci-eold=                    3                   14 -0.78235900061409225      -0.78234933268706242       -9.6679270298327680E-006 F
     orb,it,eci,eold,eci-eold=                    3                   15 -0.78236047998208991      -0.78235900061409225       -1.4793679976587981E-006 F
     orb,it,eci,eold,eci-eold=                    3                   16 -0.78236433637493696      -0.78236047998208991       -3.8563928470569664E-006 F
     orb,it,eci,eold,eci-eold=                    3                   17 -0.78237320107230734      -0.78236433637493696       -8.8646973703809806E-006 F
     orb,it,eci,eold,eci-eold=                    3                   18 -0.78237398537011238      -0.78237320107230734       -7.8429780503430635E-007 F
     orb,it,eci,eold,eci-eold=                    3                   19 -0.78237574612160843      -0.78237398537011238       -1.7607514960493731E-006 F
     orb,it,eci,eold,eci-eold=                    3                   20 -0.78238330718993343      -0.78237574612160843       -7.5610683250015853E-006 F
     orb,it,eci,eold,eci-eold=                    3                   21 -0.78238482436303913      -0.78238330718993343       -1.5171731057028737E-006 F
     orb,it,eci,eold,eci-eold=                    3                   22 -0.78238549119346679      -0.78238482436303913       -6.6683042765358636E-007 F
     orb,it,eci,eold,eci-eold=                    3                   23 -0.78239122755686075      -0.78238549119346679       -5.7363633939599978E-006 F
     orb,it,eci,eold,eci-eold=                    3                   24 -0.78239343053631949      -0.78239122755686075       -2.2029794587430374E-006 F
     orb,it,eci,eold,eci-eold=                    3                   25 -0.78239417195217764      -0.78239343053631949       -7.4141585815201694E-007 F
     orb,it,eci,eold,eci-eold=                    3                   26 -0.78239839859482185      -0.78239417195217764       -4.2266426442116867E-006 F
     orb,it,eci,eold,eci-eold=                    3                   27 -0.78239969366574325      -0.78239839859482185       -1.2950709213921385E-006 F
     orb,it,eci,eold,eci-eold=                    3                   28 -0.78240039232164715      -0.78239969366574325       -6.9865590390794097E-007 F
     orb,it,eci,eold,eci-eold=                    3                   29 -0.78240443098887624      -0.78240039232164715       -4.0386672290892989E-006 F
     orb,it,eci,eold,eci-eold=                    3                   30 -0.78240487737699516      -0.78240443098887624       -4.4638811891317687E-007 F
     orb,it,eci,eold,eci-eold=                    3                   31 -0.78240506295813272      -0.78240487737699516       -1.8558113756839134E-007 F
     orb,it,eci,eold,eci-eold=                    3                   32 -0.78240900841669925      -0.78240506295813272       -3.9454585665232855E-006 F
     orb,it,eci,eold,eci-eold=                    3                   33 -0.78241130805437831      -0.78240900841669925       -2.2996376790596074E-006 F
     orb,it,eci,eold,eci-eold=                    3                   34 -0.78241234252531688      -0.78241130805437831       -1.0344709385767814E-006 F
     orb,it,eci,eold,eci-eold=                    3                   35 -0.78241269639150501      -0.78241234252531688       -3.5386618812971449E-007 F
     orb,it,eci,eold,eci-eold=                    3                   36 -0.78241449671098429      -0.78241269639150501       -1.8003194792726163E-006 F
     orb,it,eci,eold,eci-eold=                    3                   37 -0.78241489995844971      -0.78241449671098429       -4.0324746541919865E-007 F
     orb,it,eci,eold,eci-eold=                    3                   38 -0.78241504134008211      -0.78241489995844971       -1.4138163240140500E-007 F
     orb,it,eci,eold,eci-eold=                    3                   39 -0.78241674060698729      -0.78241504134008211       -1.6992669051862919E-006 F
     orb,it,eci,eold,eci-eold=                    3                   40 -0.78241677951972988      -0.78241674060698729       -3.8912742583718796E-008 F
     orb,it,eci,eold,eci-eold=                    3                   41 -0.78241683516783056      -0.78241677951972988       -5.5648100683036716E-008 F
     orb,it,eci,eold,eci-eold=                    3                   42 -0.78241824094173573      -0.78241683516783056       -1.4057739051720475E-006 F
     orb,it,eci,eold,eci-eold=                    3                   43 -0.78241848298996342      -0.78241824094173573       -2.4204822768325585E-007 F
     orb,it,eci,eold,eci-eold=                    3                   44 -0.78241853534890948      -0.78241848298996342       -5.2358946067698753E-008 F
     orb,it,eci,eold,eci-eold=                    3                   45 -0.78241963413134119      -0.78241853534890948       -1.0987824317076900E-006 F
     orb,it,eci,eold,eci-eold=                    3                   46 -0.78241979331998546      -0.78241963413134119       -1.5918864426645030E-007 F
     orb,it,eci,eold,eci-eold=                    3                   47 -0.78241984548082300      -0.78241979331998546       -5.2160837538117732E-008 F
     orb,it,eci,eold,eci-eold=                    3                   48 -0.78242078426267225      -0.78241984548082300       -9.3878184925788588E-007 F
     orb,it,eci,eold,eci-eold=                    3                   49 -0.78242080460455510      -0.78242078426267225       -2.0341882844832071E-008 F
     orb,it,eci,eold,eci-eold=                    3                   50 -0.78242080460455510      -0.78242080460455510        0.0000000000000000      F
     orbital   3 current e=  0.476658E+00 error=0.579E-01 (eci= -0.782420805E+00 error=0.000E+00) iterations  50(   0 preconditioned, Ep,Sp= 20.0  200.0)
     orb,it,eci,eold,eci-eold=                    3                    1 -0.78242205256918651      -0.78242080388952862       -1.2486796578947690E-006 F
     orb,it,eci,eold,eci-eold=                    3                    2 -0.78242252545445301      -0.78242205256918651       -4.7288526650035578E-007 F
     orb,it,eci,eold,eci-eold=                    3                    3 -0.78242257663213810      -0.78242252545445301       -5.1177685089776048E-008 F
     orb,it,eci,eold,eci-eold=                    3                    4 -0.78242301020526761      -0.78242257663213810       -4.3357312951020077E-007 F
     orb,it,eci,eold,eci-eold=                    3                    5 -0.78242374454627361      -0.78242301020526761       -7.3434100600344721E-007 F
     orb,it,eci,eold,eci-eold=                    3                    6 -0.78242413832629898      -0.78242374454627361       -3.9378002536505363E-007 F
     orb,it,eci,eold,eci-eold=                    3                    7 -0.78242432705140197      -0.78242413832629898       -1.8872510298972855E-007 F
     orb,it,eci,eold,eci-eold=                    3                    8 -0.78242442968775405      -0.78242432705140197       -1.0263635208396238E-007 F
     orb,it,eci,eold,eci-eold=                    3                    9 -0.78242470027895239      -0.78242442968775405       -2.7059119833694467E-007 F
     orb,it,eci,eold,eci-eold=                    3                   10 -0.78242480134736248      -0.78242470027895239       -1.0106841008550305E-007 F
     orb,it,eci,eold,eci-eold=                    3                   11 -0.78242486102621345      -0.78242480134736248       -5.9678850972133546E-008 F
     orb,it,eci,eold,eci-eold=                    3                   12 -0.78242490659880404      -0.78242486102621345       -4.5572590590126083E-008 F
     orb,it,eci,eold,eci-eold=                    3                   13 -0.78242495146582303      -0.78242490659880404       -4.4867018988981044E-008 F
     orb,it,eci,eold,eci-eold=                    3                   14 -0.78242497098457231      -0.78242495146582303       -1.9518749283520265E-008 F
     orb,it,eci,eold,eci-eold=                    3                   15 -0.78242498811716477      -0.78242497098457231       -1.7132592455837425E-008 F
     orb,it,eci,eold,eci-eold=                    3                   16 -0.78242499878556659      -0.78242498811716477       -1.0668401828617391E-008 F
     orb,it,eci,eold,eci-eold=                    3                   17 -0.78242501245706109      -0.78242499878556659       -1.3671494492051295E-008 F
     orb,it,eci,eold,eci-eold=                    3                   18 -0.78242502025411809      -0.78242501245706109       -7.7970570000474027E-009 F
     orb,it,eci,eold,eci-eold=                    3                   19 -0.78242502859332874      -0.78242502025411809       -8.3392106553503709E-009 F
     orb,it,eci,eold,eci-eold=                    3                   20 -0.78242503206748859      -0.78242502859332874       -3.4741598486931480E-009 F
     orb,it,eci,eold,eci-eold=                    3                   21 -0.78242503542536634      -0.78242503206748859       -3.3578777536291682E-009 F
     orb,it,eci,eold,eci-eold=                    3                   22 -0.78242503728630319      -0.78242503542536634       -1.8609368490629663E-009 F
     orb,it,eci,eold,eci-eold=                    3                   23 -0.78242503863900181      -0.78242503728630319       -1.3526986197831548E-009 F
     orb,it,eci,eold,eci-eold=                    3                   24 -0.78242503863900181      -0.78242503863900181        0.0000000000000000      F
     orbital   3 current e=  0.478635E+00 error=0.198E-02 (eci= -0.782425039E+00 error=0.000E+00) iterations  24(   0 preconditioned, Ep,Sp= 20.0  200.0)
     orb,it,eci,eold,eci-eold=                    3                    1 -0.78242503894961013      -0.78242503797323437       -9.7637575802167476E-010 F
     orbital   3 current e=  0.478639E+00 error=0.391E-05 (eci= -0.782425039E+00 error=0.976E-09) iterations   1(   0 preconditioned, Ep,Sp= 20.0  200.0)
     orb,it,eci,eold,eci-eold=                    4                    1 -0.78204719967849834      -0.78197279985274248       -7.4399825755855353E-005 F
     orb,it,eci,eold,eci-eold=                    4                    2 -0.78205340250597533      -0.78204719967849834       -6.2028274769865277E-006 F
     orb,it,eci,eold,eci-eold=                    4                    3 -0.78209144947880305      -0.78205340250597533       -3.8046972827721071E-005 F
     orb,it,eci,eold,eci-eold=                    4                    4 -0.78209238430789563      -0.78209144947880305       -9.3482909258035818E-007 F
     orb,it,eci,eold,eci-eold=                    4                    5 -0.78209697057179928      -0.78209238430789563       -4.5862639036498010E-006 F
     orb,it,eci,eold,eci-eold=                    4                    6 -0.78212203281442683      -0.78209697057179928       -2.5062242627549303E-005 F
     orb,it,eci,eold,eci-eold=                    4                    7 -0.78212514889939611      -0.78212203281442683       -3.1160849692790649E-006 F
     orb,it,eci,eold,eci-eold=                    4                    8 -0.78213189702406427      -0.78212514889939611       -6.7481246681655449E-006 F
     orb,it,eci,eold,eci-eold=                    4                    9 -0.78215202590165744      -0.78213189702406427       -2.0128877593172945E-005 F
     orb,it,eci,eold,eci-eold=                    4                   10 -0.78215868629324747      -0.78215202590165744       -6.6603915900298460E-006 F
     orb,it,eci,eold,eci-eold=                    4                   11 -0.78216579976350298      -0.78215868629324747       -7.1134702555042395E-006 F
     orb,it,eci,eold,eci-eold=                    4                   12 -0.78218201189109704      -0.78216579976350298       -1.6212127594061876E-005 F
     orb,it,eci,eold,eci-eold=                    4                   13 -0.78218587420780372      -0.78218201189109704       -3.8623167066820230E-006 F
     orb,it,eci,eold,eci-eold=                    4                   14 -0.78218995029549387      -0.78218587420780372       -4.0760876901524412E-006 F
     orb,it,eci,eold,eci-eold=                    4                   15 -0.78220208733727326      -0.78218995029549387       -1.2137041779380908E-005 F
     orb,it,eci,eold,eci-eold=                    4                   16 -0.78220477894232210      -0.78220208733727326       -2.6916050488434706E-006 F
     orb,it,eci,eold,eci-eold=                    4                   17 -0.78220702802574282      -0.78220477894232210       -2.2490834207244959E-006 F
     orb,it,eci,eold,eci-eold=                    4                   18 -0.78221542122777388      -0.78220702802574282       -8.3932020310539812E-006 F
     orb,it,eci,eold,eci-eold=                    4                   19 -0.78221755623622347      -0.78221542122777388       -2.1350084495885824E-006 F
     orb,it,eci,eold,eci-eold=                    4                   20 -0.78221904412408083      -0.78221755623622347       -1.4878878573654220E-006 F
     orb,it,eci,eold,eci-eold=                    4                   21 -0.78222475194663632      -0.78221904412408083       -5.7078225554896278E-006 F
     orb,it,eci,eold,eci-eold=                    4                   22 -0.78222645373823041      -0.78222475194663632       -1.7017915940886752E-006 F
     orb,it,eci,eold,eci-eold=                    4                   23 -0.78222759053722979      -0.78222645373823041       -1.1367989993793515E-006 F
     orb,it,eci,eold,eci-eold=                    4                   24 -0.78223134801305749      -0.78222759053722979       -3.7574758277036935E-006 F
     orb,it,eci,eold,eci-eold=                    4                   25 -0.78223234426871080      -0.78223134801305749       -9.9625565330718757E-007 F
     orb,it,eci,eold,eci-eold=                    4                   26 -0.78223310344037233      -0.78223234426871080       -7.5917166153516291E-007 F
     orb,it,eci,eold,eci-eold=                    4                   27 -0.78223563691588349      -0.78223310344037233       -2.5334755111572349E-006 F
     orb,it,eci,eold,eci-eold=                    4                   28 -0.78223648624879072      -0.78223563691588349       -8.4933290722677413E-007 F
     orb,it,eci,eold,eci-eold=                    4                   29 -0.78223713864007549      -0.78223648624879072       -6.5239128477223574E-007 F
     orb,it,eci,eold,eci-eold=                    4                   30 -0.78223896893342348      -0.78223713864007549       -1.8302933479930061E-006 F
     orb,it,eci,eold,eci-eold=                    4                   31 -0.78223960167287765      -0.78223896893342348       -6.3273945416497668E-007 F
     orb,it,eci,eold,eci-eold=                    4                   32 -0.78224011683621564      -0.78223960167287765       -5.1516333798851122E-007 F
     orb,it,eci,eold,eci-eold=                    4                   33 -0.78224144273278973      -0.78224011683621564       -1.3258965740892137E-006 F
     orb,it,eci,eold,eci-eold=                    4                   34 -0.78224184686103015      -0.78224144273278973       -4.0412824042768136E-007 F
     orb,it,eci,eold,eci-eold=                    4                   35 -0.78224220979811876      -0.78224184686103015       -3.6293708860490881E-007 F
     orb,it,eci,eold,eci-eold=                    4                   36 -0.78224316740524213      -0.78224220979811876       -9.5760712337522591E-007 F
     orb,it,eci,eold,eci-eold=                    4                   37 -0.78224340027489325      -0.78224316740524213       -2.3286965111779523E-007 F
     orb,it,eci,eold,eci-eold=                    4                   38 -0.78224362405527892      -0.78224340027489325       -2.2378038566639447E-007 F
     orb,it,eci,eold,eci-eold=                    4                   39 -0.78224429707068077      -0.78224362405527892       -6.7301540185304987E-007 F
     orb,it,eci,eold,eci-eold=                    4                   40 -0.78224442863303434      -0.78224429707068077       -1.3156235356692747E-007 F
     orb,it,eci,eold,eci-eold=                    4                   41 -0.78224455494524492      -0.78224442863303434       -1.2631221057990416E-007 F
     orb,it,eci,eold,eci-eold=                    4                   42 -0.78224504527420557      -0.78224455494524492       -4.9032896065615006E-007 F
     orb,it,eci,eold,eci-eold=                    4                   43 -0.78224515041945186      -0.78224504527420557       -1.0514524628746358E-007 F
     orb,it,eci,eold,eci-eold=                    4                   44 -0.78224521948074510      -0.78224515041945186       -6.9061293239691679E-008 F
     orb,it,eci,eold,eci-eold=                    4                   45 -0.78224558911696351      -0.78224521948074510       -3.6963621841135108E-007 F
     orb,it,eci,eold,eci-eold=                    4                   46 -0.78224569810397349      -0.78224558911696351       -1.0898700997241662E-007 F
     orb,it,eci,eold,eci-eold=                    4                   47 -0.78224574021474214      -0.78224569810397349       -4.2110768649905594E-008 F
     orb,it,eci,eold,eci-eold=                    4                   48 -0.78224600663244193      -0.78224574021474214       -2.6641769979018903E-007 F
     orb,it,eci,eold,eci-eold=                    4                   49 -0.78224612020174145      -0.78224600663244193       -1.1356929952022199E-007 F
     orb,it,eci,eold,eci-eold=                    4                   50 -0.78224616726114393      -0.78224612020174145       -4.7059402485949420E-008 F
     orb,it,eci,eold,eci-eold=                    4                   51 -0.78224635403493648      -0.78224616726114393       -1.8677379254317117E-007 F
     orb,it,eci,eold,eci-eold=                    4                   52 -0.78224642683684453      -0.78224635403493648       -7.2801908057584797E-008 F
     orb,it,eci,eold,eci-eold=                    4                   53 -0.78224647284158511      -0.78224642683684453       -4.6004740572591629E-008 F
     orb,it,eci,eold,eci-eold=                    4                   54 -0.78224662194469041      -0.78224647284158511       -1.4910310530691362E-007 F
     orb,it,eci,eold,eci-eold=                    4                   55 -0.78224665571950935      -0.78224662194469041       -3.3774818941623153E-008 F
     orb,it,eci,eold,eci-eold=                    4                   56 -0.78224667878281207      -0.78224665571950935       -2.3063302712067468E-008 F
     orb,it,eci,eold,eci-eold=                    4                   57 -0.78224680303628513      -0.78224667878281207       -1.2425347306610490E-007 F
     orb,it,eci,eold,eci-eold=                    4                   58 -0.78224684221814611      -0.78224680303628513       -3.9181860977954841E-008 F
     orb,it,eci,eold,eci-eold=                    4                   59 -0.78224685389546733      -0.78224684221814611       -1.1677321221092996E-008 F
     orb,it,eci,eold,eci-eold=                    4                   60 -0.78224694368747383      -0.78224685389546733       -8.9792006496836052E-008 F
     orb,it,eci,eold,eci-eold=                    4                   61 -0.78224698003234594      -0.78224694368747383       -3.6344872111904181E-008 F
     orb,it,eci,eold,eci-eold=                    4                   62 -0.78224699369160822      -0.78224698003234594       -1.3659262276810580E-008 F
     orb,it,eci,eold,eci-eold=                    4                   63 -0.78224707011920525      -0.78224699369160822       -7.6427597028860816E-008 F
     orb,it,eci,eold,eci-eold=                    4                   64 -0.78224708840351154      -0.78224707011920525       -1.8284306291249663E-008 F
     orb,it,eci,eold,eci-eold=                    4                   65 -0.78224708972118395      -0.78224708840351154       -1.3176724156238606E-009 F
     orb,it,eci,eold,eci-eold=                    4                   66 -0.78224714804916706      -0.78224708972118395       -5.8327983110117998E-008 F
     orb,it,eci,eold,eci-eold=                    4                   67 -0.78224718403939897      -0.78224714804916706       -3.5990231905813630E-008 F
     orb,it,eci,eold,eci-eold=                    4                   68 -0.78224719334471660      -0.78224718403939897       -9.3053176275503802E-009 F
     orb,it,eci,eold,eci-eold=                    4                   69 -0.78224723293824339      -0.78224719334471660       -3.9593526790504541E-008 F
     orb,it,eci,eold,eci-eold=                    4                   70 -0.78224724636619658      -0.78224723293824339       -1.3427953193811959E-008 F
     orb,it,eci,eold,eci-eold=                    4                   71 -0.78224725434790066      -0.78224724636619658       -7.9817040754548430E-009 F
     orb,it,eci,eold,eci-eold=                    4                   72 -0.78224729230303514      -0.78224725434790066       -3.7955134479794594E-008 F
     orb,it,eci,eold,eci-eold=                    4                   73 -0.78224729858967457      -0.78224729230303514       -6.2866394312521834E-009 F
     orb,it,eci,eold,eci-eold=                    4                   74 -0.78224729858967457      -0.78224729858967457        0.0000000000000000      F
     orbital   4 current e=  0.525278E+00 error=0.309E-02 (eci= -0.782247299E+00 error=0.000E+00) iterations  74(   0 preconditioned, Ep,Sp= 20.0  200.0)
     orb,it,eci,eold,eci-eold=                    4                    1 -0.78224739119530984      -0.78224729775457180       -9.3440738035965865E-008 F
     orb,it,eci,eold,eci-eold=                    4                    2 -0.78224739984177061      -0.78224739119530984       -8.6464607695901918E-009 F
     orb,it,eci,eold,eci-eold=                    4                    3 -0.78224740764329082      -0.78224739984177061       -7.8015202076286982E-009 F
     orb,it,eci,eold,eci-eold=                    4                    4 -0.78224744412697533      -0.78224740764329082       -3.6483684517918391E-008 F
     orb,it,eci,eold,eci-eold=                    4                    5 -0.78224746310985971      -0.78224744412697533       -1.8982884375517983E-008 F
     orb,it,eci,eold,eci-eold=                    4                    6 -0.78224747008803186      -0.78224746310985971       -6.9781721512285344E-009 F
     orb,it,eci,eold,eci-eold=                    4                    7 -0.78224747575691977      -0.78224747008803186       -5.6688879146449267E-009 F
     orb,it,eci,eold,eci-eold=                    4                    8 -0.78224748014225320      -0.78224747575691977       -4.3853334297239144E-009 F
     orb,it,eci,eold,eci-eold=                    4                    9 -0.78224748797380517      -0.78224748014225320       -7.8315519624894137E-009 F
     orb,it,eci,eold,eci-eold=                    4                   10 -0.78224748797380517      -0.78224748797380517        0.0000000000000000      F
     orbital   4 current e=  0.525736E+00 error=0.458E-03 (eci= -0.782247488E+00 error=0.000E+00) iterations  10(   0 preconditioned, Ep,Sp= 20.0  200.0)
     orb,it,eci,eold,eci-eold=                    4                    1 -0.78224749247549363      -0.78224748790156362       -4.5739300125191562E-009 F
     orb,it,eci,eold,eci-eold=                    4                    2 -0.78224749435500907      -0.78224749247549363       -1.8795154321793461E-009 F
     orb,it,eci,eold,eci-eold=                    4                    3 -0.78224750031293089      -0.78224749435500907       -5.9579218225636055E-009 F
     orb,it,eci,eold,eci-eold=                    4                    4 -0.78224750328008552      -0.78224750031293089       -2.9671546331044851E-009 F
     orb,it,eci,eold,eci-eold=                    4                    5 -0.78224750425317735      -0.78224750328008552       -9.7309182933713601E-010 F
     orbital   4 current e=  0.525777E+00 error=0.406E-04 (eci= -0.782247504E+00 error=0.973E-09) iterations   5(   0 preconditioned, Ep,Sp= 20.0  200.0)
     orb,it,eci,eold,eci-eold=                    5                    1 -0.78204753585359965      -0.78197266556243183       -7.4870291167816738E-005 F
     orb,it,eci,eold,eci-eold=                    5                    2 -0.78205382370102594      -0.78204753585359965       -6.2878474262895168E-006 F
     orb,it,eci,eold,eci-eold=                    5                    3 -0.78209214190758525      -0.78205382370102594       -3.8318206559306844E-005 F
     orb,it,eci,eold,eci-eold=                    5                    4 -0.78209234208944922      -0.78209214190758525       -2.0018186397408044E-007 F
     orb,it,eci,eold,eci-eold=                    5                    5 -0.78209641766241345      -0.78209234208944922       -4.0755729642238947E-006 F
[...]
    6    3    6    6        0.0000000038
    6    3    7    6        0.0000000913
    6    3    8    6        0.0000000002
    6    3    9    6        0.0000000003
    6    3    7    7        0.0000000024
    6    3    8    7        0.0000000052
    6    3    9    7        0.0000000058
    6    3    8    8       -0.0000000143
    6    3    9    8        0.0000000194
    6    3    9    9        0.0000000546
    7    3    7    3        0.0120916990
    7    3    8    3        0.0000003889
    7    3    9    3       -0.0000003839
    7    3    4    4        0.0000009011
    7    3    5    4       -0.0000000461
    7    3    6    4        0.0000000000
    7    3    7    4       -0.0005168154
    7    3    8    4        0.0000089641
    7    3    9    4       -0.0000088516
    7    3    5    5       -0.0000004211
    7    3    6    5       -0.0000000000
    7    3    7    5       -0.0000029297
    7    3    8    5        0.0077242630
    7    3    9    5       -0.0076272784
    7    3    6    6        0.0000008413
    7    3    7    6        0.0000000006
    7    3    8    6        0.0000000693
    7    3    9    6        0.0000000702
    7    3    7    7        0.0000010212
    7    3    8    7       -0.0000000756
    7    3    9    7        0.0000000746
    7    3    8    8        0.0000007342
    7    3    9    8       -0.0000000368
    7    3    9    9        0.0000007715
    8    3    8    3        0.0111690804
    8    3    9    3        0.0000000000
    8    3    4    4        0.0000000020
    8    3    5    4        0.0000009337
    8    3    6    4       -0.0000080666
    8    3    7    4        0.0000081698
    8    3    8    4        0.0001509527
    8    3    9    4       -0.0000000000
    8    3    5    5        0.0000000096
    8    3    6    5       -0.0067246035
    8    3    7    5        0.0068103222
    8    3    8    5        0.0000008546
    8    3    9    5        0.0000000037
    8    3    6    6        0.0000000001
    8    3    7    6        0.0000000049
    8    3    8    6       -0.0000000695
    8    3    9    6       -0.0000000443
    8    3    7    7       -0.0000000098
    8    3    8    7        0.0000000666
    8    3    9    7       -0.0000000847
    8    3    8    8        0.0000000002
    8    3    9    8       -0.0000000000
    8    3    9    9        0.0000000002
    9    3    9    3        0.0111683897
    9    3    4    4       -0.0000000021
    9    3    5    4       -0.0000009921
    9    3    6    4       -0.0000081688
    9    3    7    4       -0.0000080673
    9    3    8    4       -0.0000000000
    9    3    9    4        0.0001524864
    9    3    5    5       -0.0000000095
    9    3    6    5       -0.0068097623
    9    3    7    5       -0.0067248682
    9    3    8    5        0.0000000037
    9    3    9    5        0.0000008532
    9    3    6    6       -0.0000000000
    9    3    7    6        0.0000000050
    9    3    8    6        0.0000002430
    9    3    9    6        0.0000002710
    9    3    7    7        0.0000000096
    9    3    8    7       -0.0000002557
    9    3    9    7        0.0000002644
    9    3    8    8       -0.0000000003
    9    3    9    8        0.0000000000
    9    3    9    9       -0.0000000004
    4    4    4    4        0.2821031884
    4    4    5    4        0.0000140589
    4    4    6    4        0.0000000030
    4    4    7    4        0.0000004634
    4    4    8    4        0.0000000055
    4    4    9    4       -0.0000000054
    4    4    5    5        0.2654021321
    4    4    6    5       -0.0000000001
    4    4    7    5       -0.0000000050
    4    4    8    5        0.0000008377
    4    4    9    5       -0.0000008355
    4    4    6    6        0.2632690365
    4    4    7    6       -0.0000000000
    4    4    8    6       -0.0000405333
    4    4    9    6       -0.0000410518
    4    4    7    7        0.2632845548
    4    4    8    7        0.0000410478
    4    4    9    7       -0.0000405378
    4    4    8    8        0.2682417866
    4    4    9    8       -0.0000000002
    4    4    9    9        0.2682349831
    5    4    5    4        0.0360953442
    5    4    6    4       -0.0000000003
    5    4    7    4       -0.0000000402
    5    4    8    4        0.0000060011
    5    4    9    4       -0.0000057331
    5    4    5    5       -0.0000714528
    5    4    6    5       -0.0000000408
    5    4    7    5       -0.0000030598
    5    4    8    5        0.0000000300
    5    4    9    5       -0.0000000302
    5    4    6    6       -0.0000247498
    5    4    7    6       -0.0000000000
    5    4    8    6       -0.0414653700
    5    4    9    6       -0.0419925134
    5    4    7    7       -0.0000247070
    5    4    8    7        0.0419928508
    5    4    9    7       -0.0414678689
    5    4    8    8       -0.0000031607
    5    4    9    8        0.0000000210
    5    4    9    9       -0.0000031549
    6    4    6    4        0.0125602217
    6    4    7    4       -0.0000000000
    6    4    8    4       -0.0000016745
    6    4    9    4       -0.0000016978
    6    4    5    5       -0.0000000012
    6    4    6    5       -0.0000021065
    6    4    7    5       -0.0000000000
    6    4    8    5       -0.0030048090
    6    4    9    5       -0.0030439780
    6    4    6    6        0.0000000036
    6    4    7    6        0.0000000385
    6    4    8    6        0.0000000002
    6    4    9    6        0.0000000008
    6    4    7    7        0.0000000030
    6    4    8    7        0.0000000049
    6    4    9    7        0.0000000059
    6    4    8    8       -0.0000017452
    6    4    9    8       -0.0000000532
    6    4    9    9        0.0000016910
    7    4    7    4        0.0125602891
    7    4    8    4        0.0000016950
    7    4    9    4       -0.0000016758
    7    4    5    5        0.0000001660
    7    4    6    5        0.0000000000
    7    4    7    5       -0.0000021022
    7    4    8    5        0.0030421333
    7    4    9    5       -0.0030050639
    7    4    6    6        0.0000004463
    7    4    7    6        0.0000000003
    7    4    8    6        0.0000000690
    7    4    9    6        0.0000000699
    7    4    7    7        0.0000005243
    7    4    8    7       -0.0000000754
    7    4    9    7        0.0000000744
    7    4    8    8        0.0000022622
    7    4    9    8       -0.0000017577
    7    4    9    9        0.0000021582
    8    4    8    4        0.0127357788
    8    4    9    4       -0.0000000014
    8    4    5    5       -0.0000000101
    8    4    6    5       -0.0031971526
    8    4    7    5        0.0032371191
    8    4    8    5       -0.0000002484
    8    4    9    5        0.0000000016
    8    4    6    6       -0.0000000033
    8    4    7    6        0.0000000054
    8    4    8    6       -0.0000112278
    8    4    9    6       -0.0000096638
    8    4    7    7       -0.0000000142
    8    4    8    7        0.0000114385
    8    4    9    7       -0.0000112387
    8    4    8    8        0.0000000021
    8    4    9    8       -0.0000000001
    8    4    9    9        0.0000000019
    9    4    9    4        0.0127348226
    9    4    5    5        0.0000000093
    9    4    6    5       -0.0032389531
    9    4    7    5       -0.0031977965
    9    4    8    5        0.0000000016
    9    4    9    5       -0.0000002468
    9    4    6    6        0.0000000032
    9    4    7    6        0.0000000056
    9    4    8    6        0.0000090103
    9    4    9    6        0.0000108560
    9    4    7    7        0.0000000138
    9    4    8    7       -0.0000109245
    9    4    9    7        0.0000107874
    9    4    8    8       -0.0000000019
    9    4    9    8        0.0000000001
    9    4    9    9       -0.0000000021
    5    5    5    5        0.2958579345
    5    5    6    5        0.0000000001
    5    5    7    5        0.0000000103
    5    5    8    5        0.0000000418
    5    5    9    5       -0.0000000713
    5    5    6    6        0.2686092190
    5    5    7    6       -0.0000000000
    5    5    8    6        0.0001034633
    5    5    9    6        0.0001047750
    5    5    7    7        0.2686265882
    5    5    8    7       -0.0001047804
    5    5    9    7        0.0001034669
    5    5    8    8        0.2751034470
    5    5    9    8       -0.0000000001
    5    5    9    9        0.2750996869
    6    5    6    5        0.0132171248
    6    5    7    5        0.0000000000
    6    5    8    5        0.0000089896
    6    5    9    5        0.0000091061
    6    5    6    6        0.0000000001
    6    5    7    6        0.0000000002
    6    5    8    6        0.0000000836
    6    5    9    6        0.0000000715
    6    5    7    7        0.0000000001
    6    5    8    7        0.0000003540
    6    5    9    7        0.0000005082
    6    5    8    8       -0.0000000091
    6    5    9    8       -0.0000000000
    6    5    9    9        0.0000000093
    7    5    7    5        0.0132161501
    7    5    8    5       -0.0000091018
    7    5    9    5        0.0000089902
    7    5    6    6        0.0000000048
    7    5    7    6        0.0000000000
    7    5    8    6        0.0000055674
    7    5    9    6        0.0000056500
    7    5    7    7        0.0000000054
    7    5    8    7       -0.0000060525
    7    5    9    7        0.0000059728
    7    5    8    8        0.0000000104
    7    5    9    8       -0.0000000094
    7    5    9    9        0.0000000103
    8    5    8    5        0.0140165314
    8    5    9    5       -0.0000000000
    8    5    6    6        0.0000000560
    8    5    7    6        0.0000003947
    8    5    8    6       -0.0000000591
    8    5    9    6       -0.0000000507
    8    5    7    7       -0.0000007439
    8    5    8    7        0.0000000595
    8    5    9    7       -0.0000000594
    8    5    8    8        0.0000000543
    8    5    9    8       -0.0000000094
    8    5    9    9        0.0000000455
    9    5    9    5        0.0140176231
    9    5    6    6       -0.0000000694
    9    5    7    6        0.0000004111
    9    5    8    6        0.0000000503
    9    5    9    6        0.0000000601
    9    5    7    7        0.0000006996
    9    5    8    7       -0.0000000603
    9    5    9    7        0.0000000591
    9    5    8    8       -0.0000000774
    9    5    9    8        0.0000000054
    9    5    9    9       -0.0000000927
    6    6    6    6        0.2930177541
    6    6    7    6       -0.0000000025
    6    6    8    6        0.0000261559
    6    6    9    6        0.0000264849
    6    6    7    7        0.2682540599
    6    6    8    7       -0.0000227626
    6    6    9    7        0.0000224751
    6    6    8    8        0.2863437159
    6    6    9    8        0.0131511910
    6    6    9    9        0.2866628806
    7    6    7    6        0.0129570321
    7    6    8    6       -0.0000019721
    7    6    9    6        0.0000019470
    7    6    7    7        0.0000000025
    7    6    8    7        0.0000019408
    7    6    9    7        0.0000019653
    7    6    8    8       -0.0131480423
    7    6    9    8       -0.0001694987
    7    6    9    9        0.0131482019
    8    6    8    6        0.0964577700
    8    6    9    6        0.0844564583
    8    6    7    7        0.0000223996
    8    6    8    7       -0.0844557645
    8    6    9    7        0.0703387795
    8    6    8    8       -0.0000196204
    8    6    9    8       -0.0000015031
    8    6    9    9       -0.0000169256
    9    6    9    6        0.0985799516
    9    6    7    7        0.0000226817
    9    6    8    7       -0.0724756570
    9    6    9    7        0.0844555946
    9    6    8    8       -0.0000171370
    9    6    9    8       -0.0000014855
    9    6    9    9       -0.0000198789
    7    7    7    7        0.2930573870
    7    7    8    7       -0.0000263995
    7    7    9    7        0.0000260663
    7    7    8    8        0.2866872859
    7    7    9    8       -0.0131526461
    7    7    9    9        0.2863579970
    8    7    8    7        0.0985903762
    8    7    9    7       -0.0844653106
    8    7    8    8        0.0000198703
    8    7    9    8       -0.0000013999
    8    7    9    9        0.0000171281
    9    7    9    7        0.0964681148
    9    7    8    8       -0.0000169099
    9    7    9    8        0.0000014193
    9    7    9    9       -0.0000196312
    8    8    8    8        0.3064179943
    8    8    9    8        0.0000000025
    8    8    9    9        0.2795883244
    9    8    9    8        0.0140222874
    9    8    9    9       -0.0000000024
    9    9    9    9        0.3064094155
 end_two_electron_integrals


 output epsi filename:./pspw_hf_H2.emovecs

 Total PSPW energy     :  -0.7804692043E+00


=== Spin Contamination ===

 <Sexact^2> =    0.0000000000000000     
 <S^2>      =    0.0000000000000000     



== Center of Charge ==

spin up     (    0.0000,    0.0000,    0.0002 )
spin down   (    0.0000,    0.0000,    0.0002 )
     total  (    0.0000,    0.0000,    0.0002 )
ionic       (    0.0000,    0.0000,    0.0000 )


== Molecular Dipole wrt Center of Mass ==

mu   =  (   -0.0000,   -0.0000,   -0.0004 ) au
|mu| =     0.0004 au,       0.0009 Debye

 output psi filename:./pspw_hf_H2.movecs

 Writing Crystallographic Information File:./H2.cif
   - cell not shifted (nwpw:cif_shift_cell .false.)


== Timing ==

cputime in seconds
  prologue    :   0.712638E+01
  main loop   :   0.963110E+03
  epilogue    :   0.317362E-01
  total       :   0.970268E+03
  cputime/step:   0.637821E+01       (     151 evalulations,      63 linesearches)


Time spent doing                        total          step       percent
  total time                 :   0.970279E+03  0.642569E+01       100.0 %
  i/o time                   :   0.430987E+00  0.285422E-02         0.0 %
  FFTs                       :   0.730872E+03  0.484021E+01        75.3 %
  dot products               :   0.101330E+02  0.671062E-01         1.0 %
  geodesic                   :   0.712102E-01  0.471591E-03         0.0 %
  ffm_dgemm                  :   0.113110E-01  0.749075E-04         0.0 %
  fmf_dgemm                  :   0.191026E-01  0.126507E-03         0.0 %
  mmm_dgemm                  :   0.307646E-02  0.203739E-04         0.0 %
  m_diagonalize              :   0.134456E-02  0.890440E-05         0.0 %
  local pseudopotentials     :   0.125548E+02  0.831442E-01         1.3 %
  non-local pseudopotentials :   0.866810E+01  0.574046E-01         0.9 %
  structure factors          :   0.197035E+01  0.130487E-01         0.2 %
  phase factors              :   0.133180E-04  0.881987E-07         0.0 %
  masking and packing        :   0.909310E+01  0.602192E-01         0.9 %
  queue fft                  :   0.120866E+02  0.800434E-01         1.2 %
  queue fft (serial)         :   0.424793E+01  0.281320E-01         0.4 %
  queue fft (message passing):   0.776390E+01  0.514165E-01         0.8 %
  HFX potential              :   0.124406E+02  0.823883E-01         1.3 %
  non-local psp FFM          :   0.810261E+01  0.536596E-01         0.8 %
  non-local psp FMF          :   0.152952E+00  0.101293E-02         0.0 %
  non-local psp FFM A        :   0.110335E+00  0.730693E-03         0.0 %
  non-local psp FFM B        :   0.236414E+00  0.156565E-02         0.0 %

== HFX Counters ==
  HFX Evalulations         =   151
  Lin ACE HFX Evalulations =     0


     >>>  JOB COMPLETED     AT Wed Apr 23 08:01:51 2025  <<<

 Task  times  cpu:      906.2s     wall:      970.3s


                                NWChem Input Module
                                -------------------


 Summary of allocated global arrays
-----------------------------------
  No active global arrays


MA_summarize_allocated_blocks: starting scan ...
MA_summarize_allocated_blocks: scan completed: 0 heap blocks, 0 stack blocks
MA usage statistics:

	allocation statistics:
					      heap	     stack
					      ----	     -----
	current number of blocks	         0	         0
	maximum number of blocks	       313	        36
	current total bytes		         0	         0
	maximum total bytes		  40660720	  13584728
	maximum total K-bytes		     40661	     13585
	maximum total M-bytes		        41	        14


                                     CITATION
                                     --------
                Please cite the following reference when publishing
                           results obtained with NWChem:

          E. Apra, E. J. Bylaska, W. A. de Jong, N. Govind, K. Kowalski,
       T. P. Straatsma, M. Valiev, H. J. J. van Dam, Y. Alexeev, J. Anchell,
       V. Anisimov, F. W. Aquino, R. Atta-Fynn, J. Autschbach, N. P. Bauman,
     J. C. Becca, D. E. Bernholdt, K. Bhaskaran-Nair, S. Bogatko, P. Borowski,
         J. Boschen, J. Brabec, A. Bruner, E. Cauet, Y. Chen, G. N. Chuev,
      C. J. Cramer, J. Daily, M. J. O. Deegan, T. H. Dunning Jr., M. Dupuis,
   K. G. Dyall, G. I. Fann, S. A. Fischer, A. Fonari, H. Fruchtl, L. Gagliardi,
      J. Garza, N. Gawande, S. Ghosh, K. Glaesemann, A. W. Gotz, J. Hammond,
       V. Helms, E. D. Hermes, K. Hirao, S. Hirata, M. Jacquelin, L. Jensen,
   B. G. Johnson, H. Jonsson, R. A. Kendall, M. Klemm, R. Kobayashi, V. Konkov,
      S. Krishnamoorthy, M. Krishnan, Z. Lin, R. D. Lins, R. J. Littlefield,
      A. J. Logsdail, K. Lopata, W. Ma, A. V. Marenich, J. Martin del Campo,
   D. Mejia-Rodriguez, J. E. Moore, J. M. Mullin, T. Nakajima, D. R. Nascimento,
    J. A. Nichols, P. J. Nichols, J. Nieplocha, A. Otero-de-la-Roza, B. Palmer,
    A. Panyala, T. Pirojsirikul, B. Peng, R. Peverati, J. Pittner, L. Pollack,
   R. M. Richard, P. Sadayappan, G. C. Schatz, W. A. Shelton, D. W. Silverstein,
   D. M. A. Smith, T. A. Soares, D. Song, M. Swart, H. L. Taylor, G. S. Thomas,
            V. Tipparaju, D. G. Truhlar, K. Tsemekhman, T. Van Voorhis,
      A. Vazquez-Mayagoitia, P. Verma, O. Villa, A. Vishnu, K. D. Vogiatzis,
        D. Wang, J. H. Weare, M. J. Williamson, T. L. Windus, K. Wolinski,
        A. T. Wong, Q. Wu, C. Yang, Q. Yu, M. Zacharias, Z. Zhang, Y. Zhao,
                                and R. J. Harrison
                        "NWChem: Past, present, and future
                         J. Chem. Phys. 152, 184102 (2020)
                               doi:10.1063/5.0004997

                                      AUTHORS
                                      -------
  E. Apra, E. J. Bylaska, N. Govind, K. Kowalski, M. Valiev, D. Mejia-Rodriguez,
       A. Kunitsa, N. P. Bauman, A. Panyala, W. A. de Jong, T. P. Straatsma,
   H. J. J. van Dam, D. Wang, T. L. Windus, J. Hammond, J. Autschbach, A. Woods,
    K. Bhaskaran-Nair, J. Brabec, K. Lopata, S. A. Fischer, S. Krishnamoorthy,
     M. Jacquelin, W. Ma, M. Klemm, O. Villa, Y. Chen, V. Anisimov, F. Aquino,
     S. Hirata, M. T. Hackler, E. Hermes, L. Jensen, J. E. Moore, J. C. Becca,
      V. Konjkov, T. Risthaus, M. Malagoli, A. Marenich, A. Otero-de-la-Roza,
        J. Mullin, P. Nichols, R. Peverati, J. Pittner, Y. Zhao, P.-D. Fan,
        A. Fonari, M. J. Williamson, R. J. Harrison, J. R. Rehr, M. Dupuis,
     D. Silverstein, D. M. A. Smith, J. Nieplocha, V. Tipparaju, M. Krishnan,
     B. E. Van Kuiken, A. Vazquez-Mayagoitia, M. Swart, Q. Wu, T. Van Voorhis,
     A. A. Auer, M. Nooijen, L. D. Crosby, E. Brown, G. Cisneros, G. I. Fann,
   H. Fruchtl, J. Garza, K. Hirao, R. A. Kendall, J. A. Nichols, K. Tsemekhman,
    K. Wolinski, J. Anchell, D. E. Bernholdt, P. Borowski, T. Clark, D. Clerc,
   H. Dachsel, M. J. O. Deegan, K. Dyall, D. Elwood, E. Glendening, M. Gutowski,
   A. C. Hess, J. Jaffe, B. G. Johnson, J. Ju, R. Kobayashi, R. Kutteh, Z. Lin,
   R. Littlefield, X. Long, B. Meng, T. Nakajima, S. Niu, L. Pollack, M. Rosing,
   K. Glaesemann, G. Sandrone, M. Stave, H. Taylor, G. Thomas, J. H. van Lenthe,
                               A. T. Wong, Z. Zhang.

 Total times  cpu:      906.3s     wall:      970.3s
