 argument  1 = H2-6.0.nw



============================== echo of input deck ==============================
title "swnc: e theory=pspw4 xc=hf formula=H2 charge=0 mult=1"
#machinejob:expert

echo

start pspw_hf_H2

memory heap 1200 mb stack 1200 mb global 10 mb

charge 0

geometry
H    0.00000    0.00000   -3.00000
H    0.00000    0.00000    3.00000
end

nwpw  
  ### pseudopotential block begin ###
  ### pseudopotential block end   ###
  simulation_cell
     SC 15.0000
     boundary_conditions aperiodic
  end

  cutoff 50.0
  mult 1
  xc hf
  lmbfgs
  tolerances 1.0e-9 1.0e-9

  virtual 8
end
set nwpw:cif_filename H2

#set nwpw:CI_maxit_orb 15
#set nwpw:CI_maxit_linesearch 15
set pspw:HFX_screening_radius 14.0


set nwpw:2qintegrals .true.
set nwpw:3x3_virtual .true.

task pspw energy
================================================================================


                                         
                                         


             Northwest Computational Chemistry Package (NWChem) 7.2.3
             --------------------------------------------------------


                    Environmental Molecular Sciences Laboratory
                       Pacific Northwest National Laboratory
                                Richland, WA 99352

                              Copyright (c) 1994-2022
                       Pacific Northwest National Laboratory
                            Battelle Memorial Institute

             NWChem is an open-source computational chemistry package
                        distributed under the terms of the
                      Educational Community License (ECL) 2.0
             A copy of the license is included with this distribution
                              in the LICENSE.TXT file

                                  ACKNOWLEDGMENT
                                  --------------

            This software and its documentation were developed at the
            EMSL at Pacific Northwest National Laboratory, a multiprogram
            national laboratory, operated for the U.S. Department of Energy
            by Battelle under Contract Number DE-AC05-76RL01830. Support
            for this work was provided by the Department of Energy Office
            of Biological and Environmental Research, Office of Basic
            Energy Sciences, and the Office of Advanced Scientific Computing.


           Job information
           ---------------

    hostname        = mqs-al
    program         = nwchem
    date            = Sat Apr  5 15:05:04 2025

    compiled        = Thu_Oct_31_08:55:15_2024
    source          = /home/conda/feedstock_root/build_artifacts/nwchem_1730356057992/work
    nwchem branch   = 7.2.3
    nwchem revision = c400b04
    ga revision     = 5.8.0
    use scalapack   = T
    input           = H2-6.0.nw
    prefix          = pspw_hf_H2.
    data base       = ./pspw_hf_H2.db
    status          = startup
    nproc           =       24
    time left       =     -1s



           Memory information
           ------------------

    heap     =  157286400 doubles =   1200.0 Mbytes
    stack    =  157286397 doubles =   1200.0 Mbytes
    global   =    1310720 doubles =     10.0 Mbytes (distinct from heap & stack)
    total    =  315883517 doubles =   2410.0 Mbytes
    verify   = yes
    hardfail = no 


           Directory information
           ---------------------

  0 permanent = .
  0 scratch   = .




                                NWChem Input Module
                                -------------------


               swnc: e theory=pspw4 xc=hf formula=H2 charge=0 mult=1
               -----------------------------------------------------

 Scaling coordinates for geometry "geometry" by  1.889725989
 (inverse scale =  0.529177249)

  zeroes
  zeroes
  zeroes
  zeroes
  zeroes
  zeroes
  zeroes
  zeroes
  zeroes
  zeroes
  zeroes
  zeroes
  zeroes
  zeroes
  zeroes
  zeroes
  zeroes
  zeroes
  zeroes
  zeroes
  zeroes
  zeroes
  zeroes
  zeroes
  zeroes
  zeroes
  zeroes
  zeroes
  zeroes
  zeroes
  zeroes
  zeroes
  zeroes
  zeroes
  zeroes
  zeroes
  zeroes
  zeroes
  zeroes
  zeroes
  zeroes
  zeroes
  zeroes
  zeroes
  zeroes
  zeroes
  zeroes
  zeroes
 ORDER OF PRIMARY AXIS IS BEING SET TO 4
 D4H symmetry detected

          ------
          auto-z
          ------
     1 autoz failed with cvr_scaling = 1.2 changing to 1.3
     2 autoz failed with cvr_scaling = 1.3 changing to 1.4
     3 autoz failed with cvr_scaling = 1.4 changing to 1.5
     4 autoz failed with cvr_scaling = 1.5 changing to 1.6
     5 autoz failed with cvr_scaling = 1.6 changing to 1.7

 AUTOZ failed to generate good internal coordinates.
 Cartesian coordinates will be used in optimizations.



                             Geometry "geometry" -> ""
                             -------------------------

 Output coordinates in angstroms (scale by  1.889725989 to convert to a.u.)

  No.       Tag          Charge          X              Y              Z
 ---- ---------------- ---------- -------------- -------------- --------------
    1 H                    1.0000     0.00000000     0.00000000    -3.00000000
    2 H                    1.0000     0.00000000     0.00000000     3.00000000

      Atomic Mass 
      ----------- 

      H                  1.007825


 Effective nuclear repulsion energy (a.u.)       0.0881962082

            Nuclear Dipole moment (a.u.) 
            ----------------------------
        X                 Y               Z
 ---------------- ---------------- ----------------
     0.0000000000     0.0000000000     0.0000000000

      Symmetry information
      --------------------

 Group name             D4h       
 Group number             28
 Group order              16
 No. of unique centers     1

      Symmetry unique atoms

     1


            XYZ format geometry
            -------------------
     2
 geometry
 H                     0.00000000     0.00000000    -3.00000000
 H                     0.00000000     0.00000000     3.00000000

          ****************************************************
          *                                                  *
          *               NWPW PSPW Calculation              *
          *                                                  *
          * [ (Grassmann/Stiefel manifold implementation)  ] *
          *                                                  *
          *      [ NorthWest Chemistry implementation ]      *
          *                                                  *
          *            version #5.10   06/12/02              *
          *                                                  *
          *    This code was developed by Eric J. Bylaska,   *
          *    and was based upon algorithms and code        *
          *    developed by the group of Prof. John H. Weare *
          *                                                  *
          ****************************************************
     >>>  JOB STARTED       AT Sat Apr  5 15:05:05 2025  <<<
          ================ input data ========================
  library name resolved from: environment
  NWCHEM_NWPW_LIBRARY set to: </home/adria/miniconda/envs/adrienv/share/nwchem/libraryps/>
 Generating 1d pseudopotential for H   

 Generated formatted_filename: ./H.vpp
 random planewave guess, initial psi:pspw_hf_H2.movecs                                 
 -   spin, nalpha, nbeta:                    1                    1                    0

 input psi filename:./pspw_hf_H2.movecs

 Warning - K.S. orbitals are not orthonormal. Applying Gram-Schmidt orthonormalization.
         - exact norm=0.100000E+01 norm=0.791079E+00 corrected norm=0.100000E+01 (error=0.208921E+00)


 number of processors used:        24
 processor grid           :  24 x   1
 parallel mapping         :2d-hilbert
 parallel mapping         :  balanced
 number of threads        :         1
 parallel io              :       off

 options:
      boundary conditions  = aperiodic   (version4)
      electron spin        = restricted
      exchange-correlation = Hartree-Fock
      - HFX relaxed
      - HFX restricted orbitals :    1
      - HFX free-space coulomb solver


 elements involved in the cluster:
      1: H   valence charge:  1.0000  lmax=  1
             comment    : Parameterized (Chem.Phys.Lett., vol 322, page 447) Hamman psp
             pseudpotential type            :   0
             highest angular component      :   1
             local potential used           :   1
             number of non-local projections:   1
             aperiodic cutoff radius        :  1.000
             cutoff =   0.800   0.800


 total charge:   0.000

 atomic composition:
     H   :    2

 number of electrons: spin up=     1 (   1 per task)  down=     1 (   1 per task) (Fourier space)
 number of orbitals : spin up=     1 (   1 per task)  down=     1 (   1 per task) (Fourier space)

 supercell:
      cell_name:  cell_default                                      
      lattice:    a1=<  15.000   0.000   0.000 >
                  a2=<   0.000  15.000   0.000 >
                  a3=<   0.000   0.000  15.000 >
      reciprocal: b1=<   0.419   0.000   0.000 >
                  b2=<   0.000   0.419   0.000 >
                  b3=<   0.000   0.000   0.419 >
      lattice:    a=      15.000 b=     15.000 c=      15.000
                  alpha=  90.000 beta=  90.000 gamma=  90.000
                  omega=      3375.0

      density cutoff= 25.000  fft= 36x 36x 36(    10003 waves      416 per task)
      wavefnc cutoff= 12.500  fft= 36x 36x 36(     3562 waves      148 per task)

 technical parameters:
      time step=      5.80     fictitious mass=  400000.0
      tolerance=0.100E-08 (energy)   0.100E-08 (density)
      maximum iterations =      1000 (   10 inner    100 outer )





== Energy Calculation ==


          ============ Grassmann lmbfgs iteration ============
     >>>  ITERATION STARTED AT Sat Apr  5 15:05:05 2025  <<<
    iter.           Energy         DeltaE       DeltaRho 
    ------------------------------------------------------
     -  15 steepest descent iterations performed
      10   -0.8319455565E+00   -0.28275E-02    0.47210E-01
     -  10 steepest descent iterations performed
      20   -0.8394115402E+00   -0.34284E-04    0.44422E-04
      30   -0.8394547459E+00   -0.25975E-06    0.64340E-06
      40   -0.8394550095E+00   -0.62399E-09    0.93756E-09
  *** tolerance ok. iteration terminated
     >>>  ITERATION ENDED   AT Sat Apr  5 15:05:06 2025  <<<


==  Summary Of Results  ==

 number of electrons: spin up=    1.00000  down=    1.00000 (real space)

 total     energy    :  -0.8394550095E+00 (   -0.41973E+00/ion)
 total orbital energy:  -0.6200687625E+00 (   -0.62007E+00/electron)
 hartree   energy    :   0.6151649103E+00 (    0.61516E+00/electron)
 exc-corr  energy    :   0.0000000000E+00 (    0.00000E+00/electron)
 HF exchange energy  :  -0.3075824552E+00 (   -0.30758E+00/electron)
 ion-ion   energy    :   0.8819620817E-01 (    0.44098E-01/ion)

 kinetic (planewave) :   0.5984857206E+00 (    0.59849E+00/electron)
 V_local (planewave) :  -0.1684870705E+01 (   -0.16849E+01/electron)
 V_nl    (planewave) :  -0.1488486880E+00 (   -0.14885E+00/electron)
 V_Coul  (planewave) :   0.1230329821E+01 (    0.12303E+01/electron)
 V_xc.   (planewave) :   0.0000000000E+00 (    0.00000E+00/electron)
 K.S. HFX energy     :  -0.6151649103E+00 (   -0.61516E+00/electron)
 Virial Coefficient  :  -0.1008193766E+01

 orbital energies:
    -0.3100344E+00 (  -8.437eV)


== Virtual Orbital Calculation ==

 random planewave guess, initial psi:pspw_hf_H2.emovecs                                
 -   spin, nalpha, nbeta:                    1                    8                    0

 input epsi filename:./pspw_hf_H2.emovecs

 COVOs Mimimization
 ------------------
CI gradient algorithm =         3
maxit_sweeps          =         3
maxit_orb             =       120
maxit_linesearch      =        15
maxerror              = 0.100E-08

     orb,it,eci,eold,eci-eold=                    1                    1 -0.84023205369715981      -0.83950781526868479       -7.2423842847502140E-004 F
     orb,it,eci,eold,eci-eold=                    1                    2 -0.84023415074837215      -0.84023205369715981       -2.0970512123463791E-006 F
     orb,it,eci,eold,eci-eold=                    1                    3 -0.84052901042785400      -0.84023415074837215       -2.9485967948184033E-004 F
     orb,it,eci,eold,eci-eold=                    1                    4 -0.84161558943560300      -0.84052901042785400       -1.0865790077490001E-003 F
     orb,it,eci,eold,eci-eold=                    1                    5 -0.84222649272255523      -0.84161558943560300       -6.1090328695223572E-004 F
     orb,it,eci,eold,eci-eold=                    1                    6 -0.84226323770222722      -0.84222649272255523       -3.6744979671987643E-005 F
     orb,it,eci,eold,eci-eold=                    1                    7 -0.84228412073031633      -0.84226323770222722       -2.0883028089113687E-005 F
     orb,it,eci,eold,eci-eold=                    1                    8 -0.84254789005310216      -0.84228412073031633       -2.6376932278582288E-004 F
     orb,it,eci,eold,eci-eold=                    1                    9 -0.84301655638531414      -0.84254789005310216       -4.6866633221198661E-004 F
     orb,it,eci,eold,eci-eold=                    1                   10 -0.85352489320602176      -0.84301655638531414       -1.0508336820707620E-002 F
     orb,it,eci,eold,eci-eold=                    1                   11 -0.86294672638434822      -0.85352489320602176       -9.4218331783264553E-003 F
     orb,it,eci,eold,eci-eold=                    1                   12 -0.88530141794424955      -0.86294672638434822       -2.2354691559901330E-002 F
     orb,it,eci,eold,eci-eold=                    1                   13 -0.91289853274708299      -0.88530141794424955       -2.7597114802833445E-002 F
     orb,it,eci,eold,eci-eold=                    1                   14 -0.91855958023491591      -0.91289853274708299       -5.6610474878329153E-003 F
     orb,it,eci,eold,eci-eold=                    1                   15 -0.92913931285780182      -0.91855958023491591       -1.0579732622885918E-002 F
     orb,it,eci,eold,eci-eold=                    1                   16 -0.95237923903245059      -0.92913931285780182       -2.3239926174648762E-002 F
     orb,it,eci,eold,eci-eold=                    1                   17 -0.96514261512727906      -0.95237923903245059       -1.2763376094828471E-002 F
     orb,it,eci,eold,eci-eold=                    1                   18 -0.97271210471864566      -0.96514261512727906       -7.5694895913666072E-003 F
     orb,it,eci,eold,eci-eold=                    1                   19 -0.97597192376237252      -0.97271210471864566       -3.2598190437268526E-003 F
     orb,it,eci,eold,eci-eold=                    1                   20 -0.97611732516462379      -0.97597192376237252       -1.4540140225127729E-004 F
     orb,it,eci,eold,eci-eold=                    1                   21 -0.97623738317915310      -0.97611732516462379       -1.2005801452930065E-004 F
     orb,it,eci,eold,eci-eold=                    1                   22 -0.97728847237911487      -0.97623738317915310       -1.0510891999617744E-003 F
     orb,it,eci,eold,eci-eold=                    1                   23 -0.97776052614239140      -0.97728847237911487       -4.7205376327652537E-004 F
     orb,it,eci,eold,eci-eold=                    1                   24 -0.97804362830303804      -0.97776052614239140       -2.8310216064664218E-004 F
     orb,it,eci,eold,eci-eold=                    1                   25 -0.97823702616887775      -0.97804362830303804       -1.9339786583971730E-004 F
     orb,it,eci,eold,eci-eold=                    1                   26 -0.97824066531654275      -0.97823702616887775       -3.6391476649910715E-006 F
     orb,it,eci,eold,eci-eold=                    1                   27 -0.97829327582384540      -0.97824066531654275       -5.2610507302652820E-005 F
     orb,it,eci,eold,eci-eold=                    1                   28 -0.97833436200068880      -0.97829327582384540       -4.1086176843396771E-005 F
     orb,it,eci,eold,eci-eold=                    1                   29 -0.97834869841302141      -0.97833436200068880       -1.4336412332616177E-005 F
     orb,it,eci,eold,eci-eold=                    1                   30 -0.97840979726018240      -0.97834869841302141       -6.1098847160989678E-005 F
     orb,it,eci,eold,eci-eold=                    1                   31 -0.97845045440211142      -0.97840979726018240       -4.0657141929023588E-005 F
     orb,it,eci,eold,eci-eold=                    1                   32 -0.97848417945099730      -0.97845045440211142       -3.3725048885879794E-005 F
     orb,it,eci,eold,eci-eold=                    1                   33 -0.97851854521664883      -0.97848417945099730       -3.4365765651522828E-005 F
     orb,it,eci,eold,eci-eold=                    1                   34 -0.97853005688372319      -0.97851854521664883       -1.1511667074359799E-005 F
     orb,it,eci,eold,eci-eold=                    1                   35 -0.97853668631427371      -0.97853005688372319       -6.6294305505198992E-006 F
     orb,it,eci,eold,eci-eold=                    1                   36 -0.97854311249763404      -0.97853668631427371       -6.4261833603307394E-006 F
     orb,it,eci,eold,eci-eold=                    1                   37 -0.97856566333315365      -0.97854311249763404       -2.2550835519608015E-005 F
     orb,it,eci,eold,eci-eold=                    1                   38 -0.97856948183104608      -0.97856566333315365       -3.8184978924382662E-006 F
     orb,it,eci,eold,eci-eold=                    1                   39 -0.97857008543667878      -0.97856948183104608       -6.0360563269856726E-007 F
     orb,it,eci,eold,eci-eold=                    1                   40 -0.97857740361004342      -0.97857008543667878       -7.3181733646343616E-006 F
     orb,it,eci,eold,eci-eold=                    1                   41 -0.97858138314901277      -0.97857740361004342       -3.9795389693564331E-006 F
     orb,it,eci,eold,eci-eold=                    1                   42 -0.97858538032150810      -0.97858138314901277       -3.9971724953291599E-006 F
     orb,it,eci,eold,eci-eold=                    1                   43 -0.97858627200195536      -0.97858538032150810       -8.9168044725695950E-007 F
     orb,it,eci,eold,eci-eold=                    1                   44 -0.97858633723139565      -0.97858627200195536       -6.5229440293634866E-008 F
     orb,it,eci,eold,eci-eold=                    1                   45 -0.97858691378919538      -0.97858633723139565       -5.7655779972520804E-007 F
     orb,it,eci,eold,eci-eold=                    1                   46 -0.97858878520638992      -0.97858691378919538       -1.8714171945433122E-006 F
     orb,it,eci,eold,eci-eold=                    1                   47 -0.97859141262296889      -0.97858878520638992       -2.6274165789708093E-006 F
     orb,it,eci,eold,eci-eold=                    1                   48 -0.97859310700845581      -0.97859141262296889       -1.6943854869166941E-006 F
     orb,it,eci,eold,eci-eold=                    1                   49 -0.97859614043775522      -0.97859310700845581       -3.0334292994149692E-006 F
     orb,it,eci,eold,eci-eold=                    1                   50 -0.97859782815239205      -0.97859614043775522       -1.6877146368221574E-006 F
     orb,it,eci,eold,eci-eold=                    1                   51 -0.97859946641960027      -0.97859782815239205       -1.6382672082260186E-006 F
     orb,it,eci,eold,eci-eold=                    1                   52 -0.97860028658306164      -0.97859946641960027       -8.2016346136803975E-007 F
     orb,it,eci,eold,eci-eold=                    1                   53 -0.97860183753720065      -0.97860028658306164       -1.5509541390068549E-006 F
     orb,it,eci,eold,eci-eold=                    1                   54 -0.97860263118769319      -0.97860183753720065       -7.9365049254764841E-007 F
     orb,it,eci,eold,eci-eold=                    1                   55 -0.97860297284856013      -0.97860263118769319       -3.4166086693154796E-007 F
     orb,it,eci,eold,eci-eold=                    1                   56 -0.97860303858166631      -0.97860297284856013       -6.5733106180410061E-008 F
     orb,it,eci,eold,eci-eold=                    1                   57 -0.97860356984777197      -0.97860303858166631       -5.3126610566334165E-007 F
     orb,it,eci,eold,eci-eold=                    1                   58 -0.97860388485928973      -0.97860356984777197       -3.1501151775970015E-007 F
     orb,it,eci,eold,eci-eold=                    1                   59 -0.97860407277628325      -0.97860388485928973       -1.8791699352149749E-007 F
     orb,it,eci,eold,eci-eold=                    1                   60 -0.97860452248177232      -0.97860407277628325       -4.4970548906952956E-007 F
     orb,it,eci,eold,eci-eold=                    1                   61 -0.97860473594266484      -0.97860452248177232       -2.1346089251750300E-007 F
     orb,it,eci,eold,eci-eold=                    1                   62 -0.97860489857203592      -0.97860473594266484       -1.6262937108102449E-007 F
     orb,it,eci,eold,eci-eold=                    1                   63 -0.97860500437386333      -0.97860489857203592       -1.0580182741026789E-007 F
     orb,it,eci,eold,eci-eold=                    1                   64 -0.97860521483013985      -0.97860500437386333       -2.1045627651705701E-007 F
     orb,it,eci,eold,eci-eold=                    1                   65 -0.97860522151374874      -0.97860521483013985       -6.6836088885580125E-009 F
     orb,it,eci,eold,eci-eold=                    1                   66 -0.97860523211834582      -0.97860522151374874       -1.0604597089347578E-008 F
     orb,it,eci,eold,eci-eold=                    1                   67 -0.97860536095127781      -0.97860523211834582       -1.2883293198928669E-007 F
     orb,it,eci,eold,eci-eold=                    1                   68 -0.97860537557051142      -0.97860536095127781       -1.4619233601464998E-008 F
     orb,it,eci,eold,eci-eold=                    1                   69 -0.97860538401681629      -0.97860537557051142       -8.4463048777294603E-009 F
     orb,it,eci,eold,eci-eold=                    1                   70 -0.97860551799021145      -0.97860538401681629       -1.3397339515552886E-007 F
     orb,it,eci,eold,eci-eold=                    1                   71 -0.97860553066473233      -0.97860551799021145       -1.2674520877276052E-008 F
     orb,it,eci,eold,eci-eold=                    1                   72 -0.97860553347314805      -0.97860553066473233       -2.8084157221996975E-009 F
     orb,it,eci,eold,eci-eold=                    1                   73 -0.97860563177418114      -0.97860553347314805       -9.8301033091274803E-008 F
     orb,it,eci,eold,eci-eold=                    1                   74 -0.97860564754554535      -0.97860563177418114       -1.5771364214600680E-008 F
     orb,it,eci,eold,eci-eold=                    1                   75 -0.97860564938770134      -0.97860564754554535       -1.8421559833114998E-009 F
     orb,it,eci,eold,eci-eold=                    1                   76 -0.97860571591436729      -0.97860564938770134       -6.6526665953858810E-008 F
     orb,it,eci,eold,eci-eold=                    1                   77 -0.97860572252834799      -0.97860571591436729       -6.6139806964571335E-009 F
     orb,it,eci,eold,eci-eold=                    1                   78 -0.97860572369777521      -0.97860572252834799       -1.1694272217255275E-009 F
     orb,it,eci,eold,eci-eold=                    1                   79 -0.97860577699847118      -0.97860572369777521       -5.3300695967983813E-008 F
     orb,it,eci,eold,eci-eold=                    1                   80 -0.97860579195470587      -0.97860577699847118       -1.4956234695162607E-008 F
     orb,it,eci,eold,eci-eold=                    1                   81 -0.97860579504242229      -0.97860579195470587       -3.0877164158837900E-009 F
     orb,it,eci,eold,eci-eold=                    1                   82 -0.97860583493185715      -0.97860579504242229       -3.9889434866324791E-008 F
     orb,it,eci,eold,eci-eold=                    1                   83 -0.97860585636725306      -0.97860583493185715       -2.1435395902713594E-008 F
     orb,it,eci,eold,eci-eold=                    1                   84 -0.97860586485119760      -0.97860585636725306       -8.4839445468887220E-009 F
     orb,it,eci,eold,eci-eold=                    1                   85 -0.97860586645267311      -0.97860586485119760       -1.6014755077620180E-009 F
     orb,it,eci,eold,eci-eold=                    1                   86 -0.97860587953198419      -0.97860586645267311       -1.3079311078634248E-008 F
     orb,it,eci,eold,eci-eold=                    1                   87 -0.97860588518656300      -0.97860587953198419       -5.6545788051920454E-009 F
     orb,it,eci,eold,eci-eold=                    1                   88 -0.97860588719156572      -0.97860588518656300       -2.0050027194074005E-009 F
     orb,it,eci,eold,eci-eold=                    1                   89 -0.97860589696665956      -0.97860588719156572       -9.7750938454765901E-009 F
     orb,it,eci,eold,eci-eold=                    1                   90 -0.97860589933777620      -0.97860589696665956       -2.3711166363682423E-009 F
     orb,it,eci,eold,eci-eold=                    1                   91 -0.97860589985159807      -0.97860589933777620       -5.1382187393755885E-010 F
     orbital   1 current e= -0.922106E-01 error=0.512E+00 (eci= -0.978605900E+00 error=0.514E-09) iterations  91(   0 preconditioned, Ep,Sp= 20.0  200.0)
     orb,it,eci,eold,eci-eold=                    1                    1 -0.97860592224175891      -0.97860589985159807       -2.2390160836494033E-008 F
     orb,it,eci,eold,eci-eold=                    1                    2 -0.97860592807685043      -0.97860592224175891       -5.8350915210780840E-009 F
     orb,it,eci,eold,eci-eold=                    1                    3 -0.97860593097552873      -0.97860592807685043       -2.8986782973916547E-009 F
     orb,it,eci,eold,eci-eold=                    1                    4 -0.97860593352313918      -0.97860593097552873       -2.5476104559274404E-009 F
     orb,it,eci,eold,eci-eold=                    1                    5 -0.97860593480945279      -0.97860593352313918       -1.2863136111818108E-009 F
     orb,it,eci,eold,eci-eold=                    1                    6 -0.97860593535711760      -0.97860593480945279       -5.4766480239720750E-010 F
     orbital   1 current e= -0.922092E-01 error=0.141E-05 (eci= -0.978605935E+00 error=0.548E-09) iterations   6(   0 preconditioned, Ep,Sp= 20.0  200.0)
     orb,it,eci,eold,eci-eold=                    1                    1 -0.97860593551436081      -0.97860593535711760       -1.5724321844601263E-010 F
     orbital   1 current e= -0.922094E-01 error=0.199E-06 (eci= -0.978605936E+00 error=0.157E-09) iterations   1(   0 preconditioned, Ep,Sp= 20.0  200.0)
     orb,it,eci,eold,eci-eold=                    2                    1 -0.84075838407733927      -0.83945722463237116       -1.3011594449681141E-003 F
     orb,it,eci,eold,eci-eold=                    2                    2 -0.84158601852922299      -0.84075838407733927       -8.2763445188371865E-004 F
     orb,it,eci,eold,eci-eold=                    2                    3 -0.84182127103841986      -0.84158601852922299       -2.3525250919687046E-004 F
     orb,it,eci,eold,eci-eold=                    2                    4 -0.84217593511053424      -0.84182127103841986       -3.5466407211437456E-004 F
     orb,it,eci,eold,eci-eold=                    2                    5 -0.84224804907710271      -0.84217593511053424       -7.2113966568476684E-005 F
     orb,it,eci,eold,eci-eold=                    2                    6 -0.84228750293995780      -0.84224804907710271       -3.9453862855087785E-005 F
     orb,it,eci,eold,eci-eold=                    2                    7 -0.84234797568625108      -0.84228750293995780       -6.0472746293283031E-005 F
     orb,it,eci,eold,eci-eold=                    2                    8 -0.84235531589518631      -0.84234797568625108       -7.3402089352248012E-006 F
     orb,it,eci,eold,eci-eold=                    2                    9 -0.84237314047205281      -0.84235531589518631       -1.7824576866498631E-005 F
     orb,it,eci,eold,eci-eold=                    2                   10 -0.84244839218146927      -0.84237314047205281       -7.5251709416468415E-005 F
     orb,it,eci,eold,eci-eold=                    2                   11 -0.84249067483972695      -0.84244839218146927       -4.2282658257675187E-005 F
     orb,it,eci,eold,eci-eold=                    2                   12 -0.84250825675687091      -0.84249067483972695       -1.7581917143960624E-005 F
     orb,it,eci,eold,eci-eold=                    2                   13 -0.84252289926965462      -0.84250825675687091       -1.4642512783713535E-005 F
     orb,it,eci,eold,eci-eold=                    2                   14 -0.84254489771304630      -0.84252289926965462       -2.1998443391679778E-005 F
     orb,it,eci,eold,eci-eold=                    2                   15 -0.84255751632104980      -0.84254489771304630       -1.2618608003500675E-005 F
     orb,it,eci,eold,eci-eold=                    2                   16 -0.84256282891975043      -0.84255751632104980       -5.3125987006241715E-006 F
     orb,it,eci,eold,eci-eold=                    2                   17 -0.84256359984621432      -0.84256282891975043       -7.7092646388887687E-007 F
     orb,it,eci,eold,eci-eold=                    2                   18 -0.84256484365439999      -0.84256359984621432       -1.2438081856691596E-006 F
     orb,it,eci,eold,eci-eold=                    2                   19 -0.84256762401233476      -0.84256484365439999       -2.7803579347729368E-006 F
     orb,it,eci,eold,eci-eold=                    2                   20 -0.84256968970118229      -0.84256762401233476       -2.0656888475301116E-006 F
     orb,it,eci,eold,eci-eold=                    2                   21 -0.84257100558449105      -0.84256968970118229       -1.3158833087612010E-006 F
     orb,it,eci,eold,eci-eold=                    2                   22 -0.84257520812970843      -0.84257100558449105       -4.2025452173799493E-006 F
     orb,it,eci,eold,eci-eold=                    2                   23 -0.84257676551464444      -0.84257520812970843       -1.5573849360128733E-006 F
     orb,it,eci,eold,eci-eold=                    2                   24 -0.84257778522423088      -0.84257676551464444       -1.0197095864361572E-006 F
     orb,it,eci,eold,eci-eold=                    2                   25 -0.84257820781145432      -0.84257778522423088       -4.2258722343646582E-007 F
     orb,it,eci,eold,eci-eold=                    2                   26 -0.84257852977855141      -0.84257820781145432       -3.2196709709442217E-007 F
     orb,it,eci,eold,eci-eold=                    2                   27 -0.84258053782451170      -0.84257852977855141       -2.0080459602889178E-006 F
     orb,it,eci,eold,eci-eold=                    2                   28 -0.84258175763164345      -0.84258053782451170       -1.2198071317470749E-006 F
     orb,it,eci,eold,eci-eold=                    2                   29 -0.84258250428490089      -0.84258175763164345       -7.4665325744405209E-007 F
     orb,it,eci,eold,eci-eold=                    2                   30 -0.84258369000436606      -0.84258250428490089       -1.1857194651687664E-006 F
     orb,it,eci,eold,eci-eold=                    2                   31 -0.84258421906905889      -0.84258369000436606       -5.2906469283353630E-007 F
     orb,it,eci,eold,eci-eold=                    2                   32 -0.84258478684022875      -0.84258421906905889       -5.6777116985706755E-007 F
     orb,it,eci,eold,eci-eold=                    2                   33 -0.84258513498580467      -0.84258478684022875       -3.4814557592355300E-007 F
     orb,it,eci,eold,eci-eold=                    2                   34 -0.84258565249521600      -0.84258513498580467       -5.1750941132411299E-007 F
     orb,it,eci,eold,eci-eold=                    2                   35 -0.84258593855003383      -0.84258565249521600       -2.8605481783294806E-007 F
     orb,it,eci,eold,eci-eold=                    2                   36 -0.84258626178346452      -0.84258593855003383       -3.2323343068796362E-007 F
     orb,it,eci,eold,eci-eold=                    2                   37 -0.84258641201384932      -0.84258626178346452       -1.5023038479888839E-007 F
     orb,it,eci,eold,eci-eold=                    2                   38 -0.84258654430212554      -0.84258641201384932       -1.3228827622224770E-007 F
     orb,it,eci,eold,eci-eold=                    2                   39 -0.84258661517266009      -0.84258654430212554       -7.0870534552014419E-008 F
     orb,it,eci,eold,eci-eold=                    2                   40 -0.84258677965540141      -0.84258661517266009       -1.6448274131608542E-007 F
     orb,it,eci,eold,eci-eold=                    2                   41 -0.84258681221154319      -0.84258677965540141       -3.2556141782436043E-008 F
     orb,it,eci,eold,eci-eold=                    2                   42 -0.84258685356154328      -0.84258681221154319       -4.1350000090645267E-008 F
     orb,it,eci,eold,eci-eold=                    2                   43 -0.84258700743730319      -0.84258685356154328       -1.5387575991177016E-007 F
     orb,it,eci,eold,eci-eold=                    2                   44 -0.84258703775787280      -0.84258700743730319       -3.0320569610609027E-008 F
     orb,it,eci,eold,eci-eold=                    2                   45 -0.84258705596313543      -0.84258703775787280       -1.8205262630743846E-008 F
     orb,it,eci,eold,eci-eold=                    2                   46 -0.84258716402112510      -0.84258705596313543       -1.0805798966728730E-007 F
     orb,it,eci,eold,eci-eold=                    2                   47 -0.84258721925454172      -0.84258716402112510       -5.5233416618172271E-008 F
     orb,it,eci,eold,eci-eold=                    2                   48 -0.84258724587516376      -0.84258721925454172       -2.6620622040063324E-008 F
     orb,it,eci,eold,eci-eold=                    2                   49 -0.84258726270304107      -0.84258724587516376       -1.6827877313829731E-008 F
     orb,it,eci,eold,eci-eold=                    2                   50 -0.84258730388056491      -0.84258726270304107       -4.1177523835145280E-008 F
     orb,it,eci,eold,eci-eold=                    2                   51 -0.84258732504013001      -0.84258730388056491       -2.1159565100070665E-008 F
     orb,it,eci,eold,eci-eold=                    2                   52 -0.84258734451433970      -0.84258732504013001       -1.9474209689285260E-008 F
     orb,it,eci,eold,eci-eold=                    2                   53 -0.84258735596675094      -0.84258734451433970       -1.1452411241563709E-008 F
     orb,it,eci,eold,eci-eold=                    2                   54 -0.84258737387032057      -0.84258735596675094       -1.7903569626831484E-008 F
     orb,it,eci,eold,eci-eold=                    2                   55 -0.84258738275300105      -0.84258737387032057       -8.8826804800490322E-009 F
     orb,it,eci,eold,eci-eold=                    2                   56 -0.84258739185480280      -0.84258738275300105       -9.1018017567279230E-009 F
     orb,it,eci,eold,eci-eold=                    2                   57 -0.84258739721867371      -0.84258739185480280       -5.3638709029968368E-009 F
     orb,it,eci,eold,eci-eold=                    2                   58 -0.84258740828185297      -0.84258739721867371       -1.1063179261583400E-008 F
     orb,it,eci,eold,eci-eold=                    2                   59 -0.84258740843785251      -0.84258740828185297       -1.5599954661382753E-010 F
     orbital   2 current e=  0.462498E+00 error=0.246E+00 (eci= -0.842587408E+00 error=0.156E-09) iterations  59(   0 preconditioned, Ep,Sp= 20.0  200.0)
     orb,it,eci,eold,eci-eold=                    2                    1 -0.84258741562307138      -0.84258740843785251       -7.1852188643362069E-009 F
     orb,it,eci,eold,eci-eold=                    2                    2 -0.84258741846142859      -0.84258741562307138       -2.8383572159285109E-009 F
     orb,it,eci,eold,eci-eold=                    2                    3 -0.84258743141070380      -0.84258741846142859       -1.2949275207674305E-008 F
     orb,it,eci,eold,eci-eold=                    2                    4 -0.84258743736944330      -0.84258743141070380       -5.9587395018212419E-009 F
     orb,it,eci,eold,eci-eold=                    2                    5 -0.84258743797823721      -0.84258743736944330       -6.0879390417767354E-010 F
     orbital   2 current e=  0.462401E+00 error=0.970E-04 (eci= -0.842587438E+00 error=0.609E-09) iterations   5(   0 preconditioned, Ep,Sp= 20.0  200.0)
     orb,it,eci,eold,eci-eold=                    2                    1 -0.84258744237969452      -0.84258743797823721       -4.4014573097328480E-009 F
     orb,it,eci,eold,eci-eold=                    2                    2 -0.84258744237969452      -0.84258744237969452        0.0000000000000000      F
     orbital   2 current e=  0.462370E+00 error=0.318E-04 (eci= -0.842587442E+00 error=0.000E+00) iterations   2(   0 preconditioned, Ep,Sp= 20.0  200.0)
     orb,it,eci,eold,eci-eold=                    3                    1 -0.83997243396059096      -0.83946431140986921       -5.0812255072174572E-004 F
     orb,it,eci,eold,eci-eold=                    3                    2 -0.83997255325071696      -0.83997243396059096       -1.1929012599942723E-007 F
     orb,it,eci,eold,eci-eold=                    3                    3 -0.84020855490635804      -0.83997255325071696       -2.3600165564108266E-004 F
     orb,it,eci,eold,eci-eold=                    3                    4 -0.84027666909123822      -0.84020855490635804       -6.8114184880174733E-005 F
     orb,it,eci,eold,eci-eold=                    3                    5 -0.84028722465709837      -0.84027666909123822       -1.0555565860159710E-005 F
     orb,it,eci,eold,eci-eold=                    3                    6 -0.84071299442469416      -0.84028722465709837       -4.2576976759578500E-004 F
     orb,it,eci,eold,eci-eold=                    3                    7 -0.84072250220612688      -0.84071299442469416       -9.5077814327160226E-006 F
     orb,it,eci,eold,eci-eold=                    3                    8 -0.84073547180015717      -0.84072250220612688       -1.2969594030298737E-005 F
     orb,it,eci,eold,eci-eold=                    3                    9 -0.84078194048968868      -0.84073547180015717       -4.6468689531509177E-005 F
     orb,it,eci,eold,eci-eold=                    3                   10 -0.84117696415589183      -0.84078194048968868       -3.9502366620314255E-004 F
     orb,it,eci,eold,eci-eold=                    3                   11 -0.84119385155988136      -0.84117696415589183       -1.6887403989529481E-005 F
     orb,it,eci,eold,eci-eold=                    3                   12 -0.84126363181825026      -0.84119385155988136       -6.9780258368901116E-005 F
     orb,it,eci,eold,eci-eold=                    3                   13 -0.84133450819148914      -0.84126363181825026       -7.0876373238881740E-005 F
     orb,it,eci,eold,eci-eold=                    3                   14 -0.84135744753545083      -0.84133450819148914       -2.2939343961692060E-005 F
     orb,it,eci,eold,eci-eold=                    3                   15 -0.84136187421756292      -0.84135744753545083       -4.4266821120908517E-006 F
     orb,it,eci,eold,eci-eold=                    3                   16 -0.84142194312133645      -0.84136187421756292       -6.0068903773524696E-005 F
     orb,it,eci,eold,eci-eold=                    3                   17 -0.84142960896469043      -0.84142194312133645       -7.6658433539877890E-006 F
     orb,it,eci,eold,eci-eold=                    3                   18 -0.84143260608955839      -0.84142960896469043       -2.9971248679538931E-006 F
     orb,it,eci,eold,eci-eold=                    3                   19 -0.84144361981726667      -0.84143260608955839       -1.1013727708286680E-005 F
     orb,it,eci,eold,eci-eold=                    3                   20 -0.84145299049621303      -0.84144361981726667       -9.3706789463521289E-006 F
     orb,it,eci,eold,eci-eold=                    3                   21 -0.84145763180828059      -0.84145299049621303       -4.6413120675659059E-006 F
     orb,it,eci,eold,eci-eold=                    3                   22 -0.84146591040606489      -0.84145763180828059       -8.2785977842947389E-006 F
     orb,it,eci,eold,eci-eold=                    3                   23 -0.84147710099656481      -0.84146591040606489       -1.1190590499920994E-005 F
     orb,it,eci,eold,eci-eold=                    3                   24 -0.84148908357996766      -0.84147710099656481       -1.1982583402847524E-005 F
     orb,it,eci,eold,eci-eold=                    3                   25 -0.84151035031059029      -0.84148908357996766       -2.1266730622637731E-005 F
     orb,it,eci,eold,eci-eold=                    3                   26 -0.84157951538113540      -0.84151035031059029       -6.9165070545107454E-005 F
     orb,it,eci,eold,eci-eold=                    3                   27 -0.84162490713112137      -0.84157951538113540       -4.5391749985967955E-005 F
     orb,it,eci,eold,eci-eold=                    3                   28 -0.84163334913720811      -0.84162490713112137       -8.4420060867396174E-006 F
     orb,it,eci,eold,eci-eold=                    3                   29 -0.84164165215173758      -0.84163334913720811       -8.3030145294760160E-006 F
     orb,it,eci,eold,eci-eold=                    3                   30 -0.84165596611441484      -0.84164165215173758       -1.4313962677259262E-005 F
     orb,it,eci,eold,eci-eold=                    3                   31 -0.84165868603452254      -0.84165596611441484       -2.7199201076966162E-006 F
     orb,it,eci,eold,eci-eold=                    3                   32 -0.84166096885696351      -0.84165868603452254       -2.2828224409687792E-006 F
     orb,it,eci,eold,eci-eold=                    3                   33 -0.84166632926153573      -0.84166096885696351       -5.3604045722188687E-006 F
     orb,it,eci,eold,eci-eold=                    3                   34 -0.84166676138883800      -0.84166632926153573       -4.3212730227448759E-007 F
     orb,it,eci,eold,eci-eold=                    3                   35 -0.84166700535075822      -0.84166676138883800       -2.4396192022102525E-007 F
     orb,it,eci,eold,eci-eold=                    3                   36 -0.84167444373388944      -0.84166700535075822       -7.4383831312196946E-006 F
     orb,it,eci,eold,eci-eold=                    3                   37 -0.84167573568770282      -0.84167444373388944       -1.2919538133759900E-006 F
     orb,it,eci,eold,eci-eold=                    3                   38 -0.84167630625079870      -0.84167573568770282       -5.7056309588077170E-007 F
     orb,it,eci,eold,eci-eold=                    3                   39 -0.84167703891427470      -0.84167630625079870       -7.3266347599965087E-007 F
     orb,it,eci,eold,eci-eold=                    3                   40 -0.84167724098272889      -0.84167703891427470       -2.0206845419146191E-007 F
     orb,it,eci,eold,eci-eold=                    3                   41 -0.84167733810870782      -0.84167724098272889       -9.7125978926193568E-008 F
     orb,it,eci,eold,eci-eold=                    3                   42 -0.84167741784185146      -0.84167733810870782       -7.9733143643068161E-008 F
     orb,it,eci,eold,eci-eold=                    3                   43 -0.84167758839249363      -0.84167741784185146       -1.7055064216453530E-007 F
     orb,it,eci,eold,eci-eold=                    3                   44 -0.84167766452627246      -0.84167758839249363       -7.6133778836862120E-008 F
     orb,it,eci,eold,eci-eold=                    3                   45 -0.84167772312793443      -0.84167766452627246       -5.8601661967472296E-008 F
     orb,it,eci,eold,eci-eold=                    3                   46 -0.84167781735244451      -0.84167772312793443       -9.4224510083229518E-008 F
     orb,it,eci,eold,eci-eold=                    3                   47 -0.84167796972739972      -0.84167781735244451       -1.5237495520903366E-007 F
     orb,it,eci,eold,eci-eold=                    3                   48 -0.84167817239442866      -0.84167796972739972       -2.0266702893678712E-007 F
     orb,it,eci,eold,eci-eold=                    3                   49 -0.84167821876277338      -0.84167817239442866       -4.6368344719383003E-008 F
     orb,it,eci,eold,eci-eold=                    3                   50 -0.84167823524720253      -0.84167821876277338       -1.6484429155028124E-008 F
     orb,it,eci,eold,eci-eold=                    3                   51 -0.84167827387054550      -0.84167823524720253       -3.8623342968335805E-008 F
     orb,it,eci,eold,eci-eold=                    3                   52 -0.84167829598574939      -0.84167827387054550       -2.2115203890393786E-008 F
     orb,it,eci,eold,eci-eold=                    3                   53 -0.84167832511180063      -0.84167829598574939       -2.9126051237504669E-008 F
     orb,it,eci,eold,eci-eold=                    3                   54 -0.84167832674728671      -0.84167832511180063       -1.6354860798983850E-009 F
     orb,it,eci,eold,eci-eold=                    3                   55 -0.84167834925030949      -0.84167832674728671       -2.2503022778508353E-008 F
     orb,it,eci,eold,eci-eold=                    3                   56 -0.84167838540137485      -0.84167834925030949       -3.6151065363476675E-008 F
     orb,it,eci,eold,eci-eold=                    3                   57 -0.84167841184037984      -0.84167838540137485       -2.6439004985334691E-008 F
     orb,it,eci,eold,eci-eold=                    3                   58 -0.84167844214134901      -0.84167841184037984       -3.0300969178220782E-008 F
     orb,it,eci,eold,eci-eold=                    3                   59 -0.84167845164873445      -0.84167844214134901       -9.5073854344818187E-009 F
     orb,it,eci,eold,eci-eold=                    3                   60 -0.84167846264112889      -0.84167845164873445       -1.0992394439135467E-008 F
     orb,it,eci,eold,eci-eold=                    3                   61 -0.84167849776376202      -0.84167846264112889       -3.5122633135209469E-008 F
     orb,it,eci,eold,eci-eold=                    3                   62 -0.84167853331653231      -0.84167849776376202       -3.5552770283331370E-008 F
     orb,it,eci,eold,eci-eold=                    3                   63 -0.84167855417309134      -0.84167853331653231       -2.0856559035387079E-008 F
     orb,it,eci,eold,eci-eold=                    3                   64 -0.84167855713333162      -0.84167855417309134       -2.9602402751294221E-009 F
     orb,it,eci,eold,eci-eold=                    3                   65 -0.84167857176380079      -0.84167855713333162       -1.4630469169496507E-008 F
     orb,it,eci,eold,eci-eold=                    3                   66 -0.84167858411662344      -0.84167857176380079       -1.2352822653660667E-008 F
     orb,it,eci,eold,eci-eold=                    3                   67 -0.84167859828986180      -0.84167858411662344       -1.4173238360726259E-008 F
     orb,it,eci,eold,eci-eold=                    3                   68 -0.84167860374474790      -0.84167859828986180       -5.4548860983771874E-009 F
     orb,it,eci,eold,eci-eold=                    3                   69 -0.84167861077190054      -0.84167860374474790       -7.0271526375620397E-009 F
     orb,it,eci,eold,eci-eold=                    3                   70 -0.84167861077190054      -0.84167861077190054        0.0000000000000000      F
     orbital   3 current e=  0.597238E+00 error=0.257E+00 (eci= -0.841678611E+00 error=0.000E+00) iterations  70(   0 preconditioned, Ep,Sp= 20.0  200.0)
     orb,it,eci,eold,eci-eold=                    3                    1 -0.84167862737580679      -0.84167861073234596       -1.6643460831744505E-008 F
     orb,it,eci,eold,eci-eold=                    3                    2 -0.84167862745905109      -0.84167862737580679       -8.3244300341789312E-011 F
     orbital   3 current e=  0.597393E+00 error=0.155E-03 (eci= -0.841678627E+00 error=0.832E-10) iterations   2(   0 preconditioned, Ep,Sp= 20.0  200.0)
     orb,it,eci,eold,eci-eold=                    3                    1 -0.84167862910429614      -0.84167862745905109       -1.6452450513071426E-009 F
     orb,it,eci,eold,eci-eold=                    3                    2 -0.84167862934286408      -0.84167862910429614       -2.3856794317822505E-010 F
     orbital   3 current e=  0.597388E+00 error=0.495E-05 (eci= -0.841678629E+00 error=0.239E-09) iterations   2(   0 preconditioned, Ep,Sp= 20.0  200.0)
     orb,it,eci,eold,eci-eold=                    4                    1 -0.83995711337268264      -0.83945609602467919       -5.0101734800345188E-004 F
     orb,it,eci,eold,eci-eold=                    4                    2 -0.84056272790564124      -0.83995711337268264       -6.0561453295859824E-004 F
     orb,it,eci,eold,eci-eold=                    4                    3 -0.84072979935118908      -0.84056272790564124       -1.6707144554783948E-004 F
     orb,it,eci,eold,eci-eold=                    4                    4 -0.84087129595508558      -0.84072979935118908       -1.4149660389650709E-004 F
     orb,it,eci,eold,eci-eold=                    4                    5 -0.84092935587567863      -0.84087129595508558       -5.8059920593045433E-005 F
     orb,it,eci,eold,eci-eold=                    4                    6 -0.84095431546374211      -0.84092935587567863       -2.4959588063477867E-005 F
     orb,it,eci,eold,eci-eold=                    4                    7 -0.84096679895966298      -0.84095431546374211       -1.2483495920867504E-005 F
     orb,it,eci,eold,eci-eold=                    4                    8 -0.84096789315015563      -0.84096679895966298       -1.0941904926564661E-006 F
     orb,it,eci,eold,eci-eold=                    4                    9 -0.84096802426389006      -0.84096789315015563       -1.3111373442509233E-007 F
     orb,it,eci,eold,eci-eold=                    4                   10 -0.84097342115286766      -0.84096802426389006       -5.3968889776045970E-006 F
     orb,it,eci,eold,eci-eold=                    4                   11 -0.84097569888828372      -0.84097342115286766       -2.2777354160563590E-006 F
     orb,it,eci,eold,eci-eold=                    4                   12 -0.84097669789239449      -0.84097569888828372       -9.9900411076880857E-007 F
     orb,it,eci,eold,eci-eold=                    4                   13 -0.84097678854401514      -0.84097669789239449       -9.0651620654469411E-008 F
     orb,it,eci,eold,eci-eold=                    4                   14 -0.84097856424258943      -0.84097678854401514       -1.7756985742911624E-006 F
     orb,it,eci,eold,eci-eold=                    4                   15 -0.84098143198164732      -0.84097856424258943       -2.8677390578879525E-006 F
     orb,it,eci,eold,eci-eold=                    4                   16 -0.84098608049675228      -0.84098143198164732       -4.6485151049546758E-006 F
     orb,it,eci,eold,eci-eold=                    4                   17 -0.84099897037168159      -0.84098608049675228       -1.2889874929311596E-005 F
     orb,it,eci,eold,eci-eold=                    4                   18 -0.84105705781096718      -0.84099897037168159       -5.8087439285592346E-005 F
     orb,it,eci,eold,eci-eold=                    4                   19 -0.84114940532993854      -0.84105705781096718       -9.2347518971358511E-005 F
     orb,it,eci,eold,eci-eold=                    4                   20 -0.84126814334260291      -0.84114940532993854       -1.1873801266437667E-004 F
     orb,it,eci,eold,eci-eold=                    4                   21 -0.84132952447681975      -0.84126814334260291       -6.1381134216831335E-005 F
     orb,it,eci,eold,eci-eold=                    4                   22 -0.84135014165495381      -0.84132952447681975       -2.0617178134063607E-005 F
     orb,it,eci,eold,eci-eold=                    4                   23 -0.84135845186123825      -0.84135014165495381       -8.3102062844453428E-006 F
     orb,it,eci,eold,eci-eold=                    4                   24 -0.84136114462272016      -0.84135845186123825       -2.6927614819038936E-006 F
     orb,it,eci,eold,eci-eold=                    4                   25 -0.84136228339924246      -0.84136114462272016       -1.1387765223025426E-006 F
     orb,it,eci,eold,eci-eold=                    4                   26 -0.84136423592445619      -0.84136228339924246       -1.9525252137331250E-006 F
     orb,it,eci,eold,eci-eold=                    4                   27 -0.84136480689545734      -0.84136423592445619       -5.7097100114589239E-007 F
     orb,it,eci,eold,eci-eold=                    4                   28 -0.84136678610333782      -0.84136480689545734       -1.9792078804758972E-006 F
     orb,it,eci,eold,eci-eold=                    4                   29 -0.84136720840807977      -0.84136678610333782       -4.2230474195381618E-007 F
     orb,it,eci,eold,eci-eold=                    4                   30 -0.84136773414480370      -0.84136720840807977       -5.2573672393307902E-007 F
     orb,it,eci,eold,eci-eold=                    4                   31 -0.84137188296417720      -0.84136773414480370       -4.1488193734950940E-006 F
     orb,it,eci,eold,eci-eold=                    4                   32 -0.84137404890583678      -0.84137188296417720       -2.1659416595820602E-006 F
     orb,it,eci,eold,eci-eold=                    4                   33 -0.84137584749506900      -0.84137404890583678       -1.7985892322158747E-006 F
     orb,it,eci,eold,eci-eold=                    4                   34 -0.84137806965779693      -0.84137584749506900       -2.2221627279384037E-006 F
     orb,it,eci,eold,eci-eold=                    4                   35 -0.84137972155114815      -0.84137806965779693       -1.6518933512177369E-006 F
     orb,it,eci,eold,eci-eold=                    4                   36 -0.84138166118271163      -0.84137972155114815       -1.9396315634745420E-006 F
     orb,it,eci,eold,eci-eold=                    4                   37 -0.84138395306837621      -0.84138166118271163       -2.2918856645848251E-006 F
     orb,it,eci,eold,eci-eold=                    4                   38 -0.84138987149983158      -0.84138395306837621       -5.9184314553650808E-006 F
     orb,it,eci,eold,eci-eold=                    4                   39 -0.84139647809347473      -0.84138987149983158       -6.6065936431547456E-006 F
     orb,it,eci,eold,eci-eold=                    4                   40 -0.84141009690471957      -0.84139647809347473       -1.3618811244842099E-005 F
     orb,it,eci,eold,eci-eold=                    4                   41 -0.84142208852145184      -0.84141009690471957       -1.1991616732265342E-005 F
     orb,it,eci,eold,eci-eold=                    4                   42 -0.84143247064173954      -0.84142208852145184       -1.0382120287699692E-005 F
     orb,it,eci,eold,eci-eold=                    4                   43 -0.84143554637605911      -0.84143247064173954       -3.0757343195686460E-006 F
     orb,it,eci,eold,eci-eold=                    4                   44 -0.84143930855737947      -0.84143554637605911       -3.7621813203658760E-006 F
     orb,it,eci,eold,eci-eold=                    4                   45 -0.84144138248517664      -0.84143930855737947       -2.0739277971637549E-006 F
     orb,it,eci,eold,eci-eold=                    4                   46 -0.84144517639777094      -0.84144138248517664       -3.7939125943076135E-006 F
     orb,it,eci,eold,eci-eold=                    4                   47 -0.84144769474738157      -0.84144517639777094       -2.5183496106251368E-006 F
     orb,it,eci,eold,eci-eold=                    4                   48 -0.84145338510986922      -0.84144769474738157       -5.6903624876536441E-006 F
     orb,it,eci,eold,eci-eold=                    4                   49 -0.84146260187187472      -0.84145338510986922       -9.2167620054928179E-006 F
     orb,it,eci,eold,eci-eold=                    4                   50 -0.84146400491210149      -0.84146260187187472       -1.4030402267772857E-006 F
     orb,it,eci,eold,eci-eold=                    4                   51 -0.84146638210231450      -0.84146400491210149       -2.3771902130098610E-006 F
     orb,it,eci,eold,eci-eold=                    4                   52 -0.84146945429737841      -0.84146638210231450       -3.0721950639023277E-006 F
     orb,it,eci,eold,eci-eold=                    4                   53 -0.84146995253289036      -0.84146945429737841       -4.9823551195871119E-007 F
     orb,it,eci,eold,eci-eold=                    4                   54 -0.84147055545464566      -0.84146995253289036       -6.0292175529941261E-007 F
     orb,it,eci,eold,eci-eold=                    4                   55 -0.84147093735156009      -0.84147055545464566       -3.8189691442536144E-007 F
     orb,it,eci,eold,eci-eold=                    4                   56 -0.84147120727531033      -0.84147093735156009       -2.6992375024015303E-007 F
     orb,it,eci,eold,eci-eold=                    4                   57 -0.84147236728584696      -0.84147120727531033       -1.1600105366271762E-006 F
     orb,it,eci,eold,eci-eold=                    4                   58 -0.84147278502239042      -0.84147236728584696       -4.1773654346766165E-007 F
     orb,it,eci,eold,eci-eold=                    4                   59 -0.84147350420986100      -0.84147278502239042       -7.1918747057697630E-007 F
     orb,it,eci,eold,eci-eold=                    4                   60 -0.84147361125271170      -0.84147350420986100       -1.0704285069440544E-007 F
     orb,it,eci,eold,eci-eold=                    4                   61 -0.84147362616414023      -0.84147361125271170       -1.4911428536379390E-008 F
     orb,it,eci,eold,eci-eold=                    4                   62 -0.84147446425655170      -0.84147362616414023       -8.3809241147037028E-007 F
     orb,it,eci,eold,eci-eold=                    4                   63 -0.84147481868404728      -0.84147446425655170       -3.5442749557468289E-007 F
     orb,it,eci,eold,eci-eold=                    4                   64 -0.84147503380490241      -0.84147481868404728       -2.1512085512931378E-007 F
     orb,it,eci,eold,eci-eold=                    4                   65 -0.84147511264104591      -0.84147503380490241       -7.8836143502236666E-008 F
     orb,it,eci,eold,eci-eold=                    4                   66 -0.84147515391061156      -0.84147511264104591       -4.1269565653756501E-008 F
     orb,it,eci,eold,eci-eold=                    4                   67 -0.84147534375930655      -0.84147515391061156       -1.8984869498694934E-007 F
     orb,it,eci,eold,eci-eold=                    4                   68 -0.84147537314532284      -0.84147534375930655       -2.9386016286991890E-008 F
     orb,it,eci,eold,eci-eold=                    4                   69 -0.84147538596100691      -0.84147537314532284       -1.2815684069522604E-008 F
     orb,it,eci,eold,eci-eold=                    4                   70 -0.84147556209104957      -0.84147538596100691       -1.7613004266170407E-007 F
     orb,it,eci,eold,eci-eold=                    4                   71 -0.84147564702203448      -0.84147556209104957       -8.4930984911579799E-008 F
     orb,it,eci,eold,eci-eold=                    4                   72 -0.84147574515508028      -0.84147564702203448       -9.8133045800530283E-008 F
     orb,it,eci,eold,eci-eold=                    4                   73 -0.84147586305028654      -0.84147574515508028       -1.1789520626415140E-007 F
     orb,it,eci,eold,eci-eold=                    4                   74 -0.84147592415487527      -0.84147586305028654       -6.1104588722216135E-008 F
     orb,it,eci,eold,eci-eold=                    4                   75 -0.84147604515549146      -0.84147592415487527       -1.2100061619335634E-007 F
     orb,it,eci,eold,eci-eold=                    4                   76 -0.84147609472767304      -0.84147604515549146       -4.9572181581858388E-008 F
     orb,it,eci,eold,eci-eold=                    4                   77 -0.84147611923267329      -0.84147609472767304       -2.4505000251195952E-008 F
     orb,it,eci,eold,eci-eold=                    4                   78 -0.84147613411921607      -0.84147611923267329       -1.4886542776260114E-008 F
     orb,it,eci,eold,eci-eold=                    4                   79 -0.84147617922851581      -0.84147613411921607       -4.5109299739998221E-008 F
     orb,it,eci,eold,eci-eold=                    4                   80 -0.84147620512857679      -0.84147617922851581       -2.5900060984795914E-008 F
     orb,it,eci,eold,eci-eold=                    4                   81 -0.84147621110591198      -0.84147620512857679       -5.9773351823722010E-009 F
     orb,it,eci,eold,eci-eold=                    4                   82 -0.84147621110591198      -0.84147621110591198        0.0000000000000000      F
     orbital   4 current e=  0.488220E+00 error=0.442E+00 (eci= -0.841476211E+00 error=0.000E+00) iterations  82(   0 preconditioned, Ep,Sp= 20.0  200.0)
     orb,it,eci,eold,eci-eold=                    4                    1 -0.84147624626971163      -0.84147621024977792       -3.6019933702391427E-008 F
     orb,it,eci,eold,eci-eold=                    4                    2 -0.84147625608357135      -0.84147624626971163       -9.8138597248720316E-009 F
     orb,it,eci,eold,eci-eold=                    4                    3 -0.84147626528039698      -0.84147625608357135       -9.1968256343832877E-009 F
     orb,it,eci,eold,eci-eold=                    4                    4 -0.84147627860616159      -0.84147626528039698       -1.3325764602889478E-008 F
     orb,it,eci,eold,eci-eold=                    4                    5 -0.84147628397752117      -0.84147627860616159       -5.3713595793425384E-009 F
     orb,it,eci,eold,eci-eold=                    4                    6 -0.84147628442007372      -0.84147628397752117       -4.4255255016167894E-010 F
     orbital   4 current e=  0.488137E+00 error=0.831E-04 (eci= -0.841476284E+00 error=0.443E-09) iterations   6(   0 preconditioned, Ep,Sp= 20.0  200.0)
     orb,it,eci,eold,eci-eold=                    4                    1 -0.84147629439769689      -0.84147628442007372       -9.9776231721193653E-009 F
     orb,it,eci,eold,eci-eold=                    4                    2 -0.84147629930714662      -0.84147629439769689       -4.9094497356350075E-009 F
     orb,it,eci,eold,eci-eold=                    4                    3 -0.84147630196108081      -0.84147629930714662       -2.6539341835274399E-009 F
     orb,it,eci,eold,eci-eold=                    4                    4 -0.84147630291436304      -0.84147630196108081       -9.5328223093105180E-010 F
     orbital   4 current e=  0.488204E+00 error=0.670E-04 (eci= -0.841476303E+00 error=0.953E-09) iterations   4(   0 preconditioned, Ep,Sp= 20.0  200.0)
     orb,it,eci,eold,eci-eold=                    5                    1 -0.84037175227115801      -0.83945783031274845       -9.1392195840955814E-004 F
     orb,it,eci,eold,eci-eold=                    5                    2 -0.84094052525409391      -0.84037175227115801       -5.6877298293589451E-004 F
     orb,it,eci,eold,eci-eold=                    5                    3 -0.84107474672310578      -0.84094052525409391       -1.3422146901187482E-004 F
     orb,it,eci,eold,eci-eold=                    5                    4 -0.84129011904300621      -0.84107474672310578       -2.1537231990043093E-004 F
     orb,it,eci,eold,eci-eold=                    5                    5 -0.84133011724596929      -0.84129011904300621       -3.9998202963076324E-005 F
     orb,it,eci,eold,eci-eold=                    5                    6 -0.84133225879908746      -0.84133011724596929       -2.1415531181734337E-006 F
     orb,it,eci,eold,eci-eold=                    5                    7 -0.84133777045758462      -0.84133225879908746       -5.5116584971592886E-006 F
     orb,it,eci,eold,eci-eold=                    5                    8 -0.84135479734489471      -0.84133777045758462       -1.7026887310089833E-005 F
     orb,it,eci,eold,eci-eold=                    5                    9 -0.84136490058597535      -0.84135479734489471       -1.0103241080638981E-005 F
     orb,it,eci,eold,eci-eold=                    5                   10 -0.84136958514578897      -0.84136490058597535       -4.6845598136169286E-006 F
     orb,it,eci,eold,eci-eold=                    5                   11 -0.84137049930200325      -0.84136958514578897       -9.1415621428225791E-007 F
     orb,it,eci,eold,eci-eold=                    5                   12 -0.84137319599786875      -0.84137049930200325       -2.6966958655005868E-006 F
     orb,it,eci,eold,eci-eold=                    5                   13 -0.84137513035696043      -0.84137319599786875       -1.9343590916820474E-006 F
     orb,it,eci,eold,eci-eold=                    5                   14 -0.84137520782737107      -0.84137513035696043       -7.7470410642099807E-008 F
     orb,it,eci,eold,eci-eold=                    5                   15 -0.84137571836330649      -0.84137520782737107       -5.1053593541627862E-007 F
     orb,it,eci,eold,eci-eold=                    5                   16 -0.84137704125628032      -0.84137571836330649       -1.3228929738318129E-006 F
     orb,it,eci,eold,eci-eold=                    5                   17 -0.84137948899025705      -0.84137704125628032       -2.4477339767292605E-006 F
     orb,it,eci,eold,eci-eold=                    5                   18 -0.84138205848268166      -0.84137948899025705       -2.5694924246089101E-006 F
     orb,it,eci,eold,eci-eold=                    5                   19 -0.84138432717646428      -0.84138205848268166       -2.2686937826144060E-006 F
     orb,it,eci,eold,eci-eold=                    5                   20 -0.84138799233641626      -0.84138432717646428       -3.6651599519821332E-006 F
     orb,it,eci,eold,eci-eold=                    5                   21 -0.84139499904077952      -0.84138799233641626       -7.0067043632660031E-006 F
     orb,it,eci,eold,eci-eold=                    5                   22 -0.84140026769905119      -0.84139499904077952       -5.2686582716621189E-006 F
     orb,it,eci,eold,eci-eold=                    5                   23 -0.84140549121704389      -0.84140026769905119       -5.2235179927029307E-006 F
     orb,it,eci,eold,eci-eold=                    5                   24 -0.84142035214013400      -0.84140549121704389       -1.4860923090109779E-005 F
     orb,it,eci,eold,eci-eold=                    5                   25 -0.84142440369237415      -0.84142035214013400       -4.0515522401474158E-006 F
     orb,it,eci,eold,eci-eold=                    5                   26 -0.84143120037282326      -0.84142440369237415       -6.7966804491170763E-006 F
     orb,it,eci,eold,eci-eold=                    5                   27 -0.84145213899901194      -0.84143120037282326       -2.0938626188682363E-005 F
     orb,it,eci,eold,eci-eold=                    5                   28 -0.84146233772123546      -0.84145213899901194       -1.0198722223520029E-005 F
     orb,it,eci,eold,eci-eold=                    5                   29 -0.84146859975083910      -0.84146233772123546       -6.2620296036319800E-006 F
     orb,it,eci,eold,eci-eold=                    5                   30 -0.84147099786656887      -0.84146859975083910       -2.3981157297736644E-006 F
     orb,it,eci,eold,eci-eold=                    5                   31 -0.84147215174495649      -0.84147099786656887       -1.1538783876163805E-006 F
     orb,it,eci,eold,eci-eold=                    5                   32 -0.84147222216203876      -0.84147215174495649       -7.0417082276286180E-008 F
     orb,it,eci,eold,eci-eold=                    5                   33 -0.84147223628731371      -0.84147222216203876       -1.4125274949705613E-008 F
     orb,it,eci,eold,eci-eold=                    5                   34 -0.84147287168624108      -0.84147223628731371       -6.3539892736219628E-007 F
     orb,it,eci,eold,eci-eold=                    5                   35 -0.84147315623685204      -0.84147287168624108       -2.8455061096277490E-007 F
     orb,it,eci,eold,eci-eold=                    5                   36 -0.84147326911066367      -0.84147315623685204       -1.1287381163072041E-007 F
     orb,it,eci,eold,eci-eold=                    5                   37 -0.84147329576509811      -0.84147326911066367       -2.6654434437389796E-008 F
     orb,it,eci,eold,eci-eold=                    5                   38 -0.84147340765197032      -0.84147329576509811       -1.1188687221164173E-007 F
     orb,it,eci,eold,eci-eold=                    5                   39 -0.84147356018660968      -0.84147340765197032       -1.5253463936382161E-007 F
     orb,it,eci,eold,eci-eold=                    5                   40 -0.84147372260418152      -0.84147356018660968       -1.6241757183621530E-007 F
     orb,it,eci,eold,eci-eold=                    5                   41 -0.84147389189610633      -0.84147372260418152       -1.6929192481196509E-007 F
     orb,it,eci,eold,eci-eold=                    5                   42 -0.84147412031215185      -0.84147389189610633       -2.2841604552237271E-007 F
     orb,it,eci,eold,eci-eold=                    5                   43 -0.84147420825029096      -0.84147412031215185       -8.7938139103904689E-008 F
     orb,it,eci,eold,eci-eold=                    5                   44 -0.84147440555834396      -0.84147420825029096       -1.9730805300710585E-007 F
     orb,it,eci,eold,eci-eold=                    5                   45 -0.84147474509233666      -0.84147440555834396       -3.3953399269925910E-007 F
     orb,it,eci,eold,eci-eold=                    5                   46 -0.84147501425526960      -0.84147474509233666       -2.6916293294210192E-007 F
     orb,it,eci,eold,eci-eold=                    5                   47 -0.84147512566625526      -0.84147501425526960       -1.1141098565925489E-007 F
     orb,it,eci,eold,eci-eold=                    5                   48 -0.84147516770390651      -0.84147512566625526       -4.2037651248882923E-008 F
     orb,it,eci,eold,eci-eold=                    5                   49 -0.84147528541813532      -0.84147516770390651       -1.1771422880890725E-007 F
     orb,it,eci,eold,eci-eold=                    5                   50 -0.84147533611471670      -0.84147528541813532       -5.0696581377351890E-008 F
     orb,it,eci,eold,eci-eold=                    5                   51 -0.84147537118571614      -0.84147533611471670       -3.5070999437891714E-008 F
     orb,it,eci,eold,eci-eold=                    5                   52 -0.84147539444626918      -0.84147537118571614       -2.3260553039250453E-008 F
     orb,it,eci,eold,eci-eold=                    5                   53 -0.84147545100610310      -0.84147539444626918       -5.6559833927494196E-008 F
     orb,it,eci,eold,eci-eold=                    5                   54 -0.84147548460619737      -0.84147545100610310       -3.3600094262453695E-008 F
     orb,it,eci,eold,eci-eold=                    5                   55 -0.84147550953363282      -0.84147548460619737       -2.4927435449129121E-008 F
     orb,it,eci,eold,eci-eold=                    5                   56 -0.84147552483977961      -0.84147550953363282       -1.5306146794458186E-008 F
     orb,it,eci,eold,eci-eold=                    5                   57 -0.84147556555353442      -0.84147552483977961       -4.0713754811960712E-008 F
     orb,it,eci,eold,eci-eold=                    5                   58 -0.84147558869621142      -0.84147556555353442       -2.3142676996990019E-008 F
     orb,it,eci,eold,eci-eold=                    5                   59 -0.84147559895740409      -0.84147558869621142       -1.0261192673333142E-008 F
     orb,it,eci,eold,eci-eold=                    5                   60 -0.84147562217942862      -0.84147559895740409       -2.3222024525537677E-008 F
     orb,it,eci,eold,eci-eold=                    5                   61 -0.84147565450826833      -0.84147562217942862       -3.2328839716377900E-008 F
     orb,it,eci,eold,eci-eold=                    5                   62 -0.84147567130217327      -0.84147565450826833       -1.6793904933365411E-008 F
     orb,it,eci,eold,eci-eold=                    5                   63 -0.84147568844401055      -0.84147567130217327       -1.7141837282963479E-008 F
     orb,it,eci,eold,eci-eold=                    5                   64 -0.84147572632344270      -0.84147568844401055       -3.7879432146503689E-008 F
     orb,it,eci,eold,eci-eold=                    5                   65 -0.84147572942956350      -0.84147572632344270       -3.1061208050076061E-009 F
     orb,it,eci,eold,eci-eold=                    5                   66 -0.84147575385155293      -0.84147572942956350       -2.4421989430756241E-008 F
     orb,it,eci,eold,eci-eold=                    5                   67 -0.84147581983072672      -0.84147575385155293       -6.5979173791141932E-008 F
     orb,it,eci,eold,eci-eold=                    5                   68 -0.84147582224490691      -0.84147581983072672       -2.4141801890920078E-009 F
     orb,it,eci,eold,eci-eold=                    5                   69 -0.84147583681181914      -0.84147582224490691       -1.4566912232005791E-008 F
     orb,it,eci,eold,eci-eold=                    5                   70 -0.84147589522608446      -0.84147583681181914       -5.8414265313722069E-008 F
     orb,it,eci,eold,eci-eold=                    5                   71 -0.84147590630701241      -0.84147589522608446       -1.1080927952988873E-008 F
     orb,it,eci,eold,eci-eold=                    5                   72 -0.84147591415418888      -0.84147590630701241       -7.8471764641818709E-009 F
     orb,it,eci,eold,eci-eold=                    5                   73 -0.84147595139400022      -0.84147591415418888       -3.7239811345735063E-008 F
     orb,it,eci,eold,eci-eold=                    5                   74 -0.84147595522332552      -0.84147595139400022       -3.8293253012966488E-009 F
     orb,it,eci,eold,eci-eold=                    5                   75 -0.84147596011337933      -0.84147595522332552       -4.8900538063278987E-009 F
     orb,it,eci,eold,eci-eold=                    5                   76 -0.84147599311657451      -0.84147596011337933       -3.3003195176739553E-008 F
     orb,it,eci,eold,eci-eold=                    5                   77 -0.84147599356681690      -0.84147599311657451       -4.5024239891944262E-010 F
     orbital   5 current e=  0.488709E+00 error=0.454E+00 (eci= -0.841475994E+00 error=0.450E-09) iterations  77(   0 preconditioned, Ep,Sp= 20.0  200.0)
     orb,it,eci,eold,eci-eold=                    5                    1 -0.84147606046473666      -0.84147599356681690       -6.6897919759334457E-008 F
     orb,it,eci,eold,eci-eold=                    5                    2 -0.84147609216705432      -0.84147606046473666       -3.1702317659920709E-008 F
     orb,it,eci,eold,eci-eold=                    5                    3 -0.84147613140968092      -0.84147609216705432       -3.9242626592717045E-008 F
     orb,it,eci,eold,eci-eold=                    5                    4 -0.84147614450245123      -0.84147613140968092       -1.3092770312361779E-008 F
     orb,it,eci,eold,eci-eold=                    5                    5 -0.84147618762470056      -0.84147614450245123       -4.3122249326899009E-008 F
     orb,it,eci,eold,eci-eold=                    5                    6 -0.84147622092143826      -0.84147618762470056       -3.3296737700361234E-008 F
     orb,it,eci,eold,eci-eold=                    5                    7 -0.84147622247910503      -0.84147622092143826       -1.5576667733441241E-009 F
     orb,it,eci,eold,eci-eold=                    5                    8 -0.84147622503673547      -0.84147622247910503       -2.5576304407692874E-009 F
     orb,it,eci,eold,eci-eold=                    5                    9 -0.84147623028222840      -0.84147622503673547       -5.2454929289069696E-009 F
     orb,it,eci,eold,eci-eold=                    5                   10 -0.84147624082840222      -0.84147623028222840       -1.0546173823122729E-008 F
     orb,it,eci,eold,eci-eold=                    5                   11 -0.84147624710842428      -0.84147624082840222       -6.2800220579362076E-009 F
     orb,it,eci,eold,eci-eold=                    5                   12 -0.84147624920991337      -0.84147624710842428       -2.1014890938531039E-009 F
     orb,it,eci,eold,eci-eold=                    5                   13 -0.84147626249913743      -0.84147624920991337       -1.3289224054524595E-008 F
     orb,it,eci,eold,eci-eold=                    5                   14 -0.84147626944373932      -0.84147626249913743       -6.9446018935437337E-009 F
     orb,it,eci,eold,eci-eold=                    5                   15 -0.84147627355135168      -0.84147626944373932       -4.1076123613592586E-009 F
     orb,it,eci,eold,eci-eold=                    5                   16 -0.84147627574180472      -0.84147627355135168       -2.1904530411731571E-009 F
     orb,it,eci,eold,eci-eold=                    5                   17 -0.84147627969245653      -0.84147627574180472       -3.9506518056953155E-009 F
     orb,it,eci,eold,eci-eold=                    5                   18 -0.84147628107224548      -0.84147627969245653       -1.3797889497624283E-009 F
     orb,it,eci,eold,eci-eold=                    5                   19 -0.84147628330816771      -0.84147628107224548       -2.2359222251466804E-009 F
     orb,it,eci,eold,eci-eold=                    5                   20 -0.84147628560096677      -0.84147628330816771       -2.2927990617205296E-009 F
     orb,it,eci,eold,eci-eold=                    5                   21 -0.84147628600713398      -0.84147628560096677       -4.0616721097563868E-010 F
     orbital   5 current e=  0.488046E+00 error=0.662E-03 (eci= -0.841476286E+00 error=0.406E-09) iterations  21(   0 preconditioned, Ep,Sp= 20.0  200.0)
     orb,it,eci,eold,eci-eold=                    5                    1 -0.84147629567911841      -0.84147628600713398       -9.6719844355774853E-009 F
     orb,it,eci,eold,eci-eold=                    5                    2 -0.84147629567911841      -0.84147629567911841        0.0000000000000000      F
[...]
    6    3    6    6        0.0000054108
    6    3    7    6        0.0000302532
    6    3    8    6        0.0003250384
    6    3    9    6       -0.0001048924
    6    3    7    7        0.0000447154
    6    3    8    7        0.0089140379
    6    3    9    7       -0.0028769415
    6    3    8    8        0.0000069921
    6    3    9    8       -0.0000001837
    6    3    9    9        0.0000097019
    7    3    7    3        0.1090777865
    7    3    8    3       -0.0000109649
    7    3    9    3       -0.0000084406
    7    3    4    4       -0.0223444146
    7    3    5    4       -0.0000812896
    7    3    6    4       -0.0001741000
    7    3    7    4       -0.0791295730
    7    3    8    4        0.0000182805
    7    3    9    4        0.0000040074
    7    3    5    5       -0.0004386965
    7    3    6    5       -0.0000265825
    7    3    7    5        0.0000281462
    7    3    8    5        0.0378163770
    7    3    9    5        0.1171969302
    7    3    6    6       -0.0003064363
    7    3    7    6        0.0000529107
    7    3    8    6        0.1171833032
    7    3    9    6       -0.0378127544
    7    3    7    7        0.0136899674
    7    3    8    7       -0.0003614989
    7    3    9    7       -0.0000364891
    7    3    8    8        0.0008032107
    7    3    9    8        0.0000656448
    7    3    9    9        0.0009088321
    8    3    8    3        0.0129808767
    8    3    9    3        0.0000002742
    8    3    4    4        0.0000021425
    8    3    5    4        0.0000690950
    8    3    6    4        0.0002135362
    8    3    7    4        0.0000084293
    8    3    8    4        0.0008326682
    8    3    9    4        0.0000001363
    8    3    5    5        0.0000057308
    8    3    6    5        0.0000166216
    8    3    7    5        0.0027962605
    8    3    8    5       -0.0000041291
    8    3    9    5       -0.0000121939
    8    3    6    6        0.0000438624
    8    3    7    6        0.0086646860
    8    3    8    6       -0.0000120595
    8    3    9    6        0.0000032020
    8    3    7    7       -0.0000508027
    8    3    8    7        0.0001984699
    8    3    9    7        0.0000048992
    8    3    8    8       -0.0000005768
    8    3    9    8       -0.0000000216
    8    3    9    9       -0.0000005175
    9    3    9    3        0.0129813127
    9    3    4    4        0.0000019067
    9    3    5    4        0.0002134128
    9    3    6    4       -0.0000683304
    9    3    7    4        0.0000062679
    9    3    8    4        0.0000001488
    9    3    9    4        0.0008332721
    9    3    5    5        0.0000185559
    9    3    6    5        0.0000194538
    9    3    7    5        0.0086654198
    9    3    8    5       -0.0000040659
    9    3    9    5       -0.0000101663
    9    3    6    6       -0.0000140956
    9    3    7    6       -0.0027961280
    9    3    8    6       -0.0000093670
    9    3    9    6        0.0000042429
    9    3    7    7       -0.0000056587
    9    3    8    7        0.0000049148
    9    3    9    7        0.0002067809
    9    3    8    8        0.0000001917
    9    3    9    8       -0.0000000439
    9    3    9    9        0.0000001539
    4    4    4    4        0.3267270791
    4    4    5    4        0.0000208821
    4    4    6    4        0.0000428428
    4    4    7    4        0.0210001810
    4    4    8    4       -0.0000058179
    4    4    9    4       -0.0000005388
    4    4    5    5        0.2739264859
    4    4    6    5        0.0000069419
    4    4    7    5        0.0000136241
    4    4    8    5       -0.0095495614
    4    4    9    5       -0.0295933641
    4    4    6    6        0.2738630249
    4    4    7    6        0.0000325580
    4    4    8    6       -0.0295908577
    4    4    9    6        0.0095469678
    4    4    7    7        0.2962280954
    4    4    8    7        0.0000831814
    4    4    9    7        0.0000061212
    4    4    8    8        0.2867694051
    4    4    9    8       -0.0000164507
    4    4    9    9        0.2867439901
    5    4    5    4        0.0173376291
    5    4    6    4        0.0000007302
    5    4    7    4        0.0000651969
    5    4    8    4       -0.0008409844
    5    4    9    4       -0.0026076340
    5    4    5    5       -0.0000014469
    5    4    6    5       -0.0000012026
    5    4    7    5       -0.0003664739
    5    4    8    5       -0.0000353830
    5    4    9    5       -0.0001092268
    5    4    6    6       -0.0000008521
    5    4    7    6        0.0000020379
    5    4    8    6       -0.0001068935
    5    4    9    6        0.0000128094
    5    4    7    7       -0.0000149314
    5    4    8    7       -0.0029269633
    5    4    9    7       -0.0090711972
    5    4    8    8       -0.0000007904
    5    4    9    8        0.0000021636
    5    4    9    9       -0.0000010322
    6    4    6    4        0.0173311977
    6    4    7    4        0.0001374644
    6    4    8    4       -0.0026062849
    6    4    9    4        0.0008432029
    6    4    5    5       -0.0000039392
    6    4    6    5       -0.0000004158
    6    4    7    5        0.0000018620
    6    4    8    5       -0.0000780448
    6    4    9    5       -0.0002105364
    6    4    6    6       -0.0000064011
    6    4    7    6       -0.0003780000
    6    4    8    6       -0.0002324309
    6    4    9    6        0.0000751040
    6    4    7    7       -0.0000330611
    6    4    8    7       -0.0090694812
    6    4    9    7        0.0029268214
    6    4    8    8       -0.0000027859
    6    4    9    8       -0.0000002293
    6    4    9    9       -0.0000073344
    7    4    7    4        0.0830569084
    7    4    8    4       -0.0000094467
    7    4    9    4       -0.0000027805
    7    4    5    5       -0.0007286102
    7    4    6    5        0.0000228976
    7    4    7    5       -0.0000248556
    7    4    8    5       -0.0323696696
    7    4    9    5       -0.1003176763
    7    4    6    6       -0.0008434836
    7    4    7    6       -0.0000455177
    7    4    8    6       -0.1003066050
    7    4    9    6        0.0323670881
    7    4    7    7       -0.0135448865
    7    4    8    7        0.0003126424
    7    4    9    7        0.0000315333
    7    4    8    8       -0.0020767629
    7    4    9    8       -0.0000557681
    7    4    9    9       -0.0021660747
    8    4    8    4        0.0141098646
    8    4    9    4       -0.0000014327
    8    4    5    5       -0.0000057787
    8    4    6    5       -0.0000144659
    8    4    7    5       -0.0027321506
    8    4    8    5        0.0000084334
    8    4    9    5        0.0000245174
    8    4    6    6       -0.0000360750
    8    4    7    6       -0.0084658437
    8    4    8    6        0.0000262773
    8    4    9    6       -0.0000074294
    8    4    7    7        0.0000493687
    8    4    8    7       -0.0000041034
    8    4    9    7       -0.0000046763
    8    4    8    8        0.0000002868
    8    4    9    8       -0.0000000557
    8    4    9    9        0.0000001378
    9    4    9    4        0.0141092664
    9    4    5    5       -0.0000163701
    9    4    6    5       -0.0000155073
    9    4    7    5       -0.0084666989
    9    4    8    5        0.0000035975
    9    4    9    5        0.0000053988
    9    4    6    6        0.0000119362
    9    4    7    6        0.0027317664
    9    4    8    6        0.0000043648
    9    4    9    6       -0.0000017797
    9    4    7    7        0.0000057108
    9    4    8    7       -0.0000049710
    9    4    9    7       -0.0000111385
    9    4    8    8        0.0000003643
    9    4    9    8        0.0000000945
    9    4    9    9        0.0000002326
    5    5    5    5        0.2829178056
    5    5    6    5       -0.0000005809
    5    5    7    5        0.0000047999
    5    5    8    5       -0.0000939499
    5    5    9    5       -0.0002928051
    5    5    6    6        0.2565675325
    5    5    7    6        0.0000155468
    5    5    8    6       -0.0004311680
    5    5    9    6        0.0001318537
    5    5    7    7        0.2683796862
    5    5    8    7        0.0000040439
    5    5    9    7        0.0000047340
    5    5    8    8        0.2716274202
    5    5    9    8        0.0082257815
    5    5    9    9        0.2939765200
    6    5    6    5        0.0138033884
    6    5    7    5       -0.0000025465
    6    5    8    5        0.0000581663
    6    5    9    5       -0.0000597715
    6    5    6    6        0.0000009726
    6    5    7    6       -0.0000010813
    6    5    8    6       -0.0000118755
    6    5    9    6        0.0000976746
    6    5    7    7       -0.0000035688
    6    5    8    7        0.0000048286
    6    5    9    7        0.0000044827
    6    5    8    8        0.0082374678
    6    5    9    8        0.0116832799
    6    5    9    9       -0.0082379946
    7    5    7    5        0.0131707941
    7    5    8    5        0.0000119363
    7    5    9    5        0.0000375538
    7    5    6    6        0.0000067635
    7    5    7    6       -0.0000002763
    7    5    8    6        0.0000363656
    7    5    9    6       -0.0000058384
    7    5    7    7        0.0000218112
    7    5    8    7        0.0005108615
    7    5    9    7        0.0015840721
    7    5    8    8       -0.0000094449
    7    5    9    8       -0.0000383094
    7    5    9    9        0.0000066465
    8    5    8    5        0.0313555091
    8    5    9    5        0.0541379424
    8    5    6    6       -0.0000886816
    8    5    7    6        0.0000235092
    8    5    8    6        0.0541410209
    8    5    9    6       -0.0035849821
    8    5    7    7        0.0053731809
    8    5    8    7       -0.0001539172
    8    5    9    7       -0.0000505153
    8    5    8    8        0.0007275736
    8    5    9    8        0.0002335073
    8    5    9    9        0.0006598252
    9    5    9    5        0.1811915452
    9    5    6    6       -0.0002508612
    9    5    7    6        0.0000627407
    9    5    8    6        0.1543827850
    9    5    9    6       -0.0541425656
    9    5    7    7        0.0166569436
    9    5    8    7       -0.0004475350
    9    5    9    7       -0.0000472968
    9    5    8    8        0.0018759879
    9    5    9    8        0.0001611496
    9    5    9    9        0.0024168154
    6    6    6    6        0.2828621403
    6    6    7    6        0.0000109069
    6    6    8    6       -0.0000912438
    6    6    9    6        0.0000268537
    6    6    7    7        0.2683693249
    6    6    8    7        0.0000122973
    6    6    9    7       -0.0000047123
    6    6    8    8        0.2939471206
    6    6    9    8       -0.0082248583
    6    6    9    9        0.2715997431
    7    6    7    6        0.0131705877
    7    6    8    6        0.0000686113
    7    6    9    6       -0.0000222222
    7    6    7    7        0.0000485383
    7    6    8    7        0.0015843209
    7    6    9    7       -0.0005122027
    7    6    8    8       -0.0000403385
    7    6    9    8        0.0000082332
    7    6    9    9        0.0000347583
    8    6    8    6        0.1811527103
    8    6    9    6       -0.0541275858
    8    6    7    7        0.0166535556
    8    6    8    7       -0.0004779195
    8    6    9    7       -0.0000334007
    8    6    8    8        0.0022534886
    8    6    9    8        0.0000283684
    8    6    9    9        0.0020038788
    9    6    9    6        0.0313502770
    9    6    7    7       -0.0053785468
    9    6    8    7        0.0001403165
    9    6    9    7        0.0000185113
    9    6    8    8       -0.0005922953
    9    6    9    8        0.0001836825
    9    6    9    9       -0.0007860762
    7    7    7    7        0.3194250143
    7    7    8    7       -0.0000551010
    7    7    9    7       -0.0000074827
    7    7    8    8        0.2879042785
    7    7    9    8        0.0000092660
    7    7    9    9        0.2879179227
    8    7    8    7        0.0155410358
    8    7    9    7        0.0000010177
    8    7    8    8       -0.0000053306
    8    7    9    8       -0.0000003042
    8    7    9    9       -0.0000046962
    9    7    9    7        0.0155409188
    9    7    8    8       -0.0000022630
    9    7    9    8       -0.0000005815
    9    7    9    9       -0.0000022955
    8    8    8    8        0.3185063398
    8    8    9    8        0.0000014368
    8    8    9    9        0.2873078019
    9    8    9    8        0.0162750901
    9    8    9    9        0.0000011799
    9    9    9    9        0.3185076133
 end_two_electron_integrals


 output epsi filename:./pspw_hf_H2.emovecs

 Total PSPW energy     :  -0.8412106167E+00


=== Spin Contamination ===

 <Sexact^2> =    0.0000000000000000     
 <S^2>      =    0.0000000000000000     



== Center of Charge ==

spin up     (    0.0000,    0.0000,    0.0647 )
spin down   (    0.0000,    0.0000,    0.0647 )
     total  (    0.0000,    0.0000,    0.0647 )
ionic       (    0.0000,    0.0000,    0.0000 )


== Molecular Dipole wrt Center of Mass ==

mu   =  (   -0.0000,   -0.0000,   -0.1295 ) au
|mu| =     0.1295 au,       0.3290 Debye

 output psi filename:./pspw_hf_H2.movecs

 Writing Crystallographic Information File:./H2.cif
   - cell not shifted (nwpw:cif_shift_cell .false.)


== Timing ==

cputime in seconds
  prologue    :   0.617779E+01
  main loop   :   0.515599E+02
  epilogue    :   0.161090E-01
  total       :   0.577538E+02
  cputime/step:   0.972827E+00       (      53 evalulations,      22 linesearches)


Time spent doing                        total          step       percent
  total time                 :   0.577640E+02  0.108989E+01       100.0 %
  i/o time                   :   0.491568E+00  0.927486E-02         0.9 %
  FFTs                       :   0.370017E+02  0.698145E+00        64.1 %
  dot products               :   0.840809E+00  0.158643E-01         1.5 %
  geodesic                   :   0.198521E-01  0.374568E-03         0.0 %
  ffm_dgemm                  :   0.229225E-02  0.432499E-04         0.0 %
  fmf_dgemm                  :   0.234665E-02  0.442765E-04         0.0 %
  mmm_dgemm                  :   0.889253E-03  0.167784E-04         0.0 %
  m_diagonalize              :   0.445309E-03  0.840206E-05         0.0 %
  local pseudopotentials     :   0.821787E+00  0.155054E-01         1.4 %
  non-local pseudopotentials :   0.723142E+00  0.136442E-01         1.3 %
  structure factors          :   0.899400E-01  0.169698E-02         0.2 %
  phase factors              :   0.906400E-05  0.171019E-06         0.0 %
  masking and packing        :   0.118950E+01  0.224435E-01         2.1 %
  queue fft                  :   0.107643E+01  0.203101E-01         1.9 %
  queue fft (serial)         :   0.429293E+00  0.809987E-02         0.7 %
  queue fft (message passing):   0.641615E+00  0.121059E-01         1.1 %
  HFX potential              :   0.144217E+01  0.272108E-01         2.5 %
  non-local psp FFM          :   0.655117E+00  0.123607E-01         1.1 %
  non-local psp FMF          :   0.146100E-01  0.275661E-03         0.0 %
  non-local psp FFM A        :   0.617727E-02  0.116552E-03         0.0 %
  non-local psp FFM B        :   0.194312E-01  0.366627E-03         0.0 %

== HFX Counters ==
  HFX Evalulations         =    53
  Lin ACE HFX Evalulations =     0


     >>>  JOB COMPLETED     AT Sat Apr  5 15:07:25 2025  <<<

 Task  times  cpu:      131.6s     wall:      140.6s


                                NWChem Input Module
                                -------------------


 Summary of allocated global arrays
-----------------------------------
  No active global arrays


MA_summarize_allocated_blocks: starting scan ...
MA_summarize_allocated_blocks: scan completed: 0 heap blocks, 0 stack blocks
MA usage statistics:

	allocation statistics:
					      heap	     stack
					      ----	     -----
	current number of blocks	         0	         0
	maximum number of blocks	       313	        36
	current total bytes		         0	         0
	maximum total bytes		  20287464	   5334728
	maximum total K-bytes		     20288	      5335
	maximum total M-bytes		        21	         6


                                     CITATION
                                     --------
                Please cite the following reference when publishing
                           results obtained with NWChem:

          E. Apra, E. J. Bylaska, W. A. de Jong, N. Govind, K. Kowalski,
       T. P. Straatsma, M. Valiev, H. J. J. van Dam, Y. Alexeev, J. Anchell,
       V. Anisimov, F. W. Aquino, R. Atta-Fynn, J. Autschbach, N. P. Bauman,
     J. C. Becca, D. E. Bernholdt, K. Bhaskaran-Nair, S. Bogatko, P. Borowski,
         J. Boschen, J. Brabec, A. Bruner, E. Cauet, Y. Chen, G. N. Chuev,
      C. J. Cramer, J. Daily, M. J. O. Deegan, T. H. Dunning Jr., M. Dupuis,
   K. G. Dyall, G. I. Fann, S. A. Fischer, A. Fonari, H. Fruchtl, L. Gagliardi,
      J. Garza, N. Gawande, S. Ghosh, K. Glaesemann, A. W. Gotz, J. Hammond,
       V. Helms, E. D. Hermes, K. Hirao, S. Hirata, M. Jacquelin, L. Jensen,
   B. G. Johnson, H. Jonsson, R. A. Kendall, M. Klemm, R. Kobayashi, V. Konkov,
      S. Krishnamoorthy, M. Krishnan, Z. Lin, R. D. Lins, R. J. Littlefield,
      A. J. Logsdail, K. Lopata, W. Ma, A. V. Marenich, J. Martin del Campo,
   D. Mejia-Rodriguez, J. E. Moore, J. M. Mullin, T. Nakajima, D. R. Nascimento,
    J. A. Nichols, P. J. Nichols, J. Nieplocha, A. Otero-de-la-Roza, B. Palmer,
    A. Panyala, T. Pirojsirikul, B. Peng, R. Peverati, J. Pittner, L. Pollack,
   R. M. Richard, P. Sadayappan, G. C. Schatz, W. A. Shelton, D. W. Silverstein,
   D. M. A. Smith, T. A. Soares, D. Song, M. Swart, H. L. Taylor, G. S. Thomas,
            V. Tipparaju, D. G. Truhlar, K. Tsemekhman, T. Van Voorhis,
      A. Vazquez-Mayagoitia, P. Verma, O. Villa, A. Vishnu, K. D. Vogiatzis,
        D. Wang, J. H. Weare, M. J. Williamson, T. L. Windus, K. Wolinski,
        A. T. Wong, Q. Wu, C. Yang, Q. Yu, M. Zacharias, Z. Zhang, Y. Zhao,
                                and R. J. Harrison
                        "NWChem: Past, present, and future
                         J. Chem. Phys. 152, 184102 (2020)
                               doi:10.1063/5.0004997

                                      AUTHORS
                                      -------
  E. Apra, E. J. Bylaska, N. Govind, K. Kowalski, M. Valiev, D. Mejia-Rodriguez,
       A. Kunitsa, N. P. Bauman, A. Panyala, W. A. de Jong, T. P. Straatsma,
   H. J. J. van Dam, D. Wang, T. L. Windus, J. Hammond, J. Autschbach, A. Woods,
    K. Bhaskaran-Nair, J. Brabec, K. Lopata, S. A. Fischer, S. Krishnamoorthy,
     M. Jacquelin, W. Ma, M. Klemm, O. Villa, Y. Chen, V. Anisimov, F. Aquino,
     S. Hirata, M. T. Hackler, E. Hermes, L. Jensen, J. E. Moore, J. C. Becca,
      V. Konjkov, T. Risthaus, M. Malagoli, A. Marenich, A. Otero-de-la-Roza,
        J. Mullin, P. Nichols, R. Peverati, J. Pittner, Y. Zhao, P.-D. Fan,
        A. Fonari, M. J. Williamson, R. J. Harrison, J. R. Rehr, M. Dupuis,
     D. Silverstein, D. M. A. Smith, J. Nieplocha, V. Tipparaju, M. Krishnan,
     B. E. Van Kuiken, A. Vazquez-Mayagoitia, M. Swart, Q. Wu, T. Van Voorhis,
     A. A. Auer, M. Nooijen, L. D. Crosby, E. Brown, G. Cisneros, G. I. Fann,
   H. Fruchtl, J. Garza, K. Hirao, R. A. Kendall, J. A. Nichols, K. Tsemekhman,
    K. Wolinski, J. Anchell, D. E. Bernholdt, P. Borowski, T. Clark, D. Clerc,
   H. Dachsel, M. J. O. Deegan, K. Dyall, D. Elwood, E. Glendening, M. Gutowski,
   A. C. Hess, J. Jaffe, B. G. Johnson, J. Ju, R. Kobayashi, R. Kutteh, Z. Lin,
   R. Littlefield, X. Long, B. Meng, T. Nakajima, S. Niu, L. Pollack, M. Rosing,
   K. Glaesemann, G. Sandrone, M. Stave, H. Taylor, G. Thomas, J. H. van Lenthe,
                               A. T. Wong, Z. Zhang.

 Total times  cpu:      131.6s     wall:      140.6s
