 argument  1 = H2-0.6.nw



============================== echo of input deck ==============================
title "swnc: e theory=pspw4 xc=hf formula=H2 charge=0 mult=1"
#machinejob:expert

echo

start pspw_hf_H2

memory heap 1200 mb stack 1200 mb global 10 mb

charge 0

geometry
H    0.00000    0.00000   -0.30000
H    0.00000    0.00000    0.30000
end

nwpw
  ### pseudopotential block begin ###
  ### pseudopotential block end   ###
  simulation_cell
     SC 15.0000
     boundary_conditions aperiodic
  end

  cutoff 50.0
  mult 1
  xc hf
  lmbfgs
  tolerances 1.0e-9 1.0e-9

  virtual 10
end
set nwpw:cif_filename H2

#set nwpw:CI_maxit_orb 15
#set nwpw:CI_maxit_linesearch 15
set pspw:HFX_screening_radius 14.0


set nwpw:2qintegrals .true.
#set nwpw:3x3_virtual .true.

task pspw energy

================================================================================


                                         
                                         


             Northwest Computational Chemistry Package (NWChem) 7.2.2
             --------------------------------------------------------


                    Environmental Molecular Sciences Laboratory
                       Pacific Northwest National Laboratory
                                Richland, WA 99352

                              Copyright (c) 1994-2022
                       Pacific Northwest National Laboratory
                            Battelle Memorial Institute

             NWChem is an open-source computational chemistry package
                        distributed under the terms of the
                      Educational Community License (ECL) 2.0
             A copy of the license is included with this distribution
                              in the LICENSE.TXT file

                                  ACKNOWLEDGMENT
                                  --------------

            This software and its documentation were developed at the
            EMSL at Pacific Northwest National Laboratory, a multiprogram
            national laboratory, operated for the U.S. Department of Energy
            by Battelle under Contract Number DE-AC05-76RL01830. Support
            for this work was provided by the Department of Energy Office
            of Biological and Environmental Research, Office of Basic
            Energy Sciences, and the Office of Advanced Scientific Computing.


           Job information
           ---------------

    hostname        = LAPTOP-JJQSTSEL
    program         = nwchem
    date            = Wed Apr 30 00:19:47 2025

    compiled        = Fri_Jun_07_07:50:04_2024
    source          = /home/conda/feedstock_root/build_artifacts/nwchem_1717738148552/work
    nwchem branch   = 7.2.2
    nwchem revision = 64ba0f0
    ga revision     = 5.8.0
    use scalapack   = T
    input           = H2-0.6.nw
    prefix          = pspw_hf_H2.
    data base       = ./pspw_hf_H2.db
    status          = startup
    nproc           =        1
    time left       =     -1s



           Memory information
           ------------------

    heap     =  157286400 doubles =   1200.0 Mbytes
    stack    =  157286397 doubles =   1200.0 Mbytes
    global   =    1310720 doubles =     10.0 Mbytes (distinct from heap & stack)
    total    =  315883517 doubles =   2410.0 Mbytes
    verify   = yes
    hardfail = no 


           Directory information
           ---------------------

  0 permanent = .
  0 scratch   = .




                                NWChem Input Module
                                -------------------


               swnc: e theory=pspw4 xc=hf formula=H2 charge=0 mult=1
               -----------------------------------------------------

 Scaling coordinates for geometry "geometry" by  1.889725989
 (inverse scale =  0.529177249)

 ORDER OF PRIMARY AXIS IS BEING SET TO 4
 D4H symmetry detected

          ------
          auto-z
          ------
  no constraints, skipping    0.0000000000000000     
  no constraints, skipping    0.0000000000000000     


                             Geometry "geometry" -> ""
                             -------------------------

 Output coordinates in angstroms (scale by  1.889725989 to convert to a.u.)

  No.       Tag          Charge          X              Y              Z
 ---- ---------------- ---------- -------------- -------------- --------------
    1 H                    1.0000     0.00000000     0.00000000    -0.30000000
    2 H                    1.0000     0.00000000     0.00000000     0.30000000

      Atomic Mass 
      ----------- 

      H                  1.007825


 Effective nuclear repulsion energy (a.u.)       0.8819620817

            Nuclear Dipole moment (a.u.) 
            ----------------------------
        X                 Y               Z
 ---------------- ---------------- ----------------
     0.0000000000     0.0000000000     0.0000000000

      Symmetry information
      --------------------

 Group name             D4h       
 Group number             28
 Group order              16
 No. of unique centers     1

      Symmetry unique atoms

     1



                                Z-matrix (autoz)
                                -------- 

 Units are Angstrom for bonds and degrees for angles

      Type          Name      I     J     K     L     M      Value
      ----------- --------  ----- ----- ----- ----- ----- ----------
    1 Stretch                  1     2                       0.60000


            XYZ format geometry
            -------------------
     2
 geometry
 H                     0.00000000     0.00000000    -0.30000000
 H                     0.00000000     0.00000000     0.30000000

 ==============================================================================
                                internuclear distances
 ------------------------------------------------------------------------------
       center one      |      center two      | atomic units |  angstroms
 ------------------------------------------------------------------------------
    2 H                |   1 H                |     1.13384  |     0.60000
 ------------------------------------------------------------------------------
                         number of included internuclear distances:          1
 ==============================================================================



          ****************************************************
          *                                                  *
          *               NWPW PSPW Calculation              *
          *                                                  *
          * [ (Grassmann/Stiefel manifold implementation)  ] *
          *                                                  *
          *      [ NorthWest Chemistry implementation ]      *
          *                                                  *
          *            version #5.10   06/12/02              *
          *                                                  *
          *    This code was developed by Eric J. Bylaska,   *
          *    and was based upon algorithms and code        *
          *    developed by the group of Prof. John H. Weare *
          *                                                  *
          ****************************************************
     >>>  JOB STARTED       AT Wed Apr 30 00:19:47 2025  <<<
          ================ input data ========================
  library name resolved from: environment
  NWCHEM_NWPW_LIBRARY set to: </home/blanch/miniconda3/envs/adrienv/share/nwchem/libraryps/>
 Generating 1d pseudopotential for H   

 Generated formatted_filename: ./H.vpp
 random planewave guess, initial psi:pspw_hf_H2.movecs                                 
 -   spin, nalpha, nbeta:                    1                    1                    0

 input psi filename:./pspw_hf_H2.movecs

 Warning - K.S. orbitals are not orthonormal. Applying Gram-Schmidt orthonormalization.
         - exact norm=0.100000E+01 norm=0.791079E+00 corrected norm=0.100000E+01 (error=0.208921E+00)


 number of processors used:         1
 processor grid           :   1 x   1
 parallel mapping         :2d-hilbert
 parallel mapping         :  balanced
 number of threads        :         1
 parallel io              :       off

 options:
      boundary conditions  = aperiodic   (version4)
      electron spin        = restricted
      exchange-correlation = Hartree-Fock
      - HFX relaxed
      - HFX restricted orbitals :    1
      - HFX free-space coulomb solver


 elements involved in the cluster:
      1: H   valence charge:  1.0000  lmax=  1
             comment    : Parameterized (Chem.Phys.Lett., vol 322, page 447) Hamman psp
             pseudpotential type            :   0
             highest angular component      :   1
             local potential used           :   1
             number of non-local projections:   1
             aperiodic cutoff radius        :  1.000
             cutoff =   0.800   0.800


 total charge:   0.000

 atomic composition:
     H   :    2

 number of electrons: spin up=     1 (   1 per task)  down=     1 (   1 per task) (Fourier space)
 number of orbitals : spin up=     1 (   1 per task)  down=     1 (   1 per task) (Fourier space)

 supercell:
      cell_name:  cell_default                                      
      lattice:    a1=<  15.000   0.000   0.000 >
                  a2=<   0.000  15.000   0.000 >
                  a3=<   0.000   0.000  15.000 >
      reciprocal: b1=<   0.419   0.000   0.000 >
                  b2=<   0.000   0.419   0.000 >
                  b3=<   0.000   0.000   0.419 >
      lattice:    a=      15.000 b=     15.000 c=      15.000
                  alpha=  90.000 beta=  90.000 gamma=  90.000
                  omega=      3375.0

      density cutoff= 25.000  fft= 36x 36x 36(    10003 waves    10003 per task)
      wavefnc cutoff= 12.500  fft= 36x 36x 36(     3562 waves     3562 per task)

 technical parameters:
      time step=      5.80     fictitious mass=  400000.0
      tolerance=0.100E-08 (energy)   0.100E-08 (density)
      maximum iterations =      1000 (   10 inner    100 outer )





== Energy Calculation ==


          ============ Grassmann lmbfgs iteration ============
     >>>  ITERATION STARTED AT Wed Apr 30 00:19:48 2025  <<<
    iter.           Energy         DeltaE       DeltaRho 
    ------------------------------------------------------
     -  15 steepest descent iterations performed
      10   -0.1113792367E+01   -0.13725E-01    0.21886E+00
     -  10 steepest descent iterations performed
      20   -0.1120466506E+01   -0.26582E-05    0.10241E-03
      30   -0.1120468387E+01   -0.20897E-09    0.42029E-07
      40   -0.1120468387E+01   -0.89665E-10    0.71855E-13
  *** tolerance ok. iteration terminated
     >>>  ITERATION ENDED   AT Wed Apr 30 00:19:51 2025  <<<


==  Summary Of Results  ==

 number of electrons: spin up=    1.00000  down=    1.00000 (real space)

 total     energy    :  -0.1120468387E+01 (   -0.56023E+00/ion)
 total orbital energy:  -0.1291096291E+01 (   -0.12911E+01/electron)
 hartree   energy    :   0.1422668356E+01 (    0.14227E+01/electron)
 exc-corr  energy    :   0.0000000000E+00 (    0.00000E+00/electron)
 HF exchange energy  :  -0.7113341780E+00 (   -0.71133E+00/electron)
 ion-ion   energy    :   0.8819620817E+00 (    0.44098E+00/ion)

 kinetic (planewave) :   0.1229694660E+01 (    0.12297E+01/electron)
 V_local (planewave) :  -0.3539307802E+01 (   -0.35393E+01/electron)
 V_nl    (planewave) :  -0.4041515048E+00 (   -0.40415E+00/electron)
 V_Coul  (planewave) :   0.2845336712E+01 (    0.28453E+01/electron)
 V_xc.   (planewave) :   0.0000000000E+00 (    0.00000E+00/electron)
 K.S. HFX energy     :  -0.1422668356E+01 (   -0.14227E+01/electron)
 Virial Coefficient  :  -0.8930042803E+00

 orbital energies:
    -0.6455481E+00 ( -17.566eV)


== Virtual Orbital Calculation ==

 random planewave guess, initial psi:pspw_hf_H2.emovecs                                
 -   spin, nalpha, nbeta:                    1                   10                    0

 input epsi filename:./pspw_hf_H2.emovecs
     orbital   1 current e= 0.564E-02 (error=0.851E-09) iterations  60(  41 preconditioned, Ep,Sp= 20.0  200.0)
     orbital   2 current e= 0.840E-01 (error=0.931E-06) iterations 121( 120 preconditioned, Ep,Sp= 20.0  200.0)
     orbital   2 current e= 0.840E-01 (error=0.975E-09) iterations  63(   5 preconditioned, Ep,Sp= 20.0  200.0)
     orbital   3 current e= 0.861E-01 (error=0.642E-06) iterations 121( 108 preconditioned, Ep,Sp= 20.0  200.0)
     orbital   3 current e= 0.861E-01 (error=0.874E-09) iterations  68(  17 preconditioned, Ep,Sp= 20.0  200.0)
     orbital   4 current e= 0.869E-01 (error=0.734E-05) iterations 121( 111 preconditioned, Ep,Sp= 20.0  200.0)
     orbital   4 current e= 0.861E-01 (error=0.895E-09) iterations 107(  80 preconditioned, Ep,Sp= 20.0  200.0)
     orbital   5 current e= 0.874E-01 (error=0.728E-06) iterations 121( 120 preconditioned, Ep,Sp= 20.0  200.0)
     orbital   5 current e= 0.874E-01 (error=0.734E-09) iterations  70(  27 preconditioned, Ep,Sp= 20.0  200.0)
     orbital   6 current e= 0.878E-01 (error=0.132E-08) iterations 121(  93 preconditioned, Ep,Sp= 20.0  200.0)
     orbital   6 current e= 0.878E-01 (error=0.348E-09) iterations   2(   1 preconditioned, Ep,Sp= 20.0  200.0)
     orbital   7 current e= 0.110E+00 (error=0.951E-09) iterations 100(  80 preconditioned, Ep,Sp= 20.0  200.0)
     orbital   8 current e= 0.163E+00 (error=0.255E-06) iterations 121( 117 preconditioned, Ep,Sp= 20.0  200.0)
     orbital   8 current e= 0.163E+00 (error=0.862E-09) iterations  66(   6 preconditioned, Ep,Sp= 20.0  200.0)
     orbital   9 current e= 0.171E+00 (error=0.168E-06) iterations 121( 120 preconditioned, Ep,Sp= 20.0  200.0)
     orbital   9 current e= 0.171E+00 (error=0.626E-09) iterations  49(   1 preconditioned, Ep,Sp= 20.0  200.0)
     orbital  10 current e= 0.172E+00 (error=0.380E-04) iterations 121( 120 preconditioned, Ep,Sp= 20.0  200.0)
     orbital  10 current e= 0.171E+00 (error=0.544E-09) iterations  77(  41 preconditioned, Ep,Sp= 20.0  200.0)

 virtual orbital energies:
     0.1705926E+00 (   4.642eV)
     0.1705926E+00 (   4.642eV)
     0.1634955E+00 (   4.449eV)
     0.1097034E+00 (   2.985eV)
     0.8780849E-01 (   2.389eV)
     0.8740602E-01 (   2.378eV)
     0.8609391E-01 (   2.343eV)
     0.8609387E-01 (   2.343eV)
     0.8395781E-01 (   2.285eV)
     0.5639343E-02 (   0.153eV)


 == Generating One-Electron and Two-Electron Integrals ==

 begin_one_electron_integrals
    1    1        -1.3568823233
    2    1         0.0323304500
    3    1        -0.0000002144
    4    1        -0.0000145275
    5    1        -0.0000042313
    6    1        -0.0016077184
    7    1         0.0000190433
    8    1        -0.0480969282
    9    1        -0.0000072377
   10    1         0.0000071663
   11    1        -0.0000004097
    2    2        -0.2746792866
    3    2         0.0000034424
    4    2         0.0000121853
    5    2         0.0000015347
    6    2         0.0015058962
    7    2        -0.0000258671
    8    2         0.0708554822
    9    2         0.0000173757
   10    2        -0.0000076432
   11    2        -0.0000002052
    3    3        -0.2492428115
    4    3        -0.0000019728
    5    3         0.0000089794
    6    3         0.0000389321
    7    3        -0.0000025206
    8    3         0.0000254537
    9    3        -0.1097196201
   10    3         0.0000009415
   11    3         0.0000120180
    4    4        -0.2316561024
    5    4        -0.0000062035
    6    4         0.0002252194
    7    4        -0.0001177679
    8    4        -0.0000095825
    9    4         0.0000090630
   10    4        -0.0061520047
   11    4         0.0936053633
    5    5        -0.2316511380
    6    5         0.0000809725
    7    5        -0.0002835731
    8    5        -0.0000007363
    9    5         0.0000066742
   10    5         0.0936066016
   11    5         0.0061431529
    6    6        -0.1909090265
    7    6         0.0000010415
    8    6        -0.0006110571
    9    6         0.0000547172
   10    6        -0.0001551917
   11    6        -0.0005478063
    7    7        -0.1892947811
    8    7         0.0000015769
    9    7         0.0000120724
   10    7         0.0006091588
   11    7         0.0003405970
    8    8        -0.1816621590
    9    8         0.0000090191
   10    8         0.0000071252
   11    8        -0.0000010395
    9    9        -0.2156186677
   10    9         0.0000111828
   11    9         0.0000063807
   10   10        -0.1843966214
   11   10         0.0000105208
   11   11        -0.1843885662
 end_one_electron_integrals

 begin_two_electron_integrals
    1    1    1    1        0.7113341780
    1    1    2    1       -0.0323305745
    1    1    3    1        0.0000002650
    1    1    4    1        0.0000146554
    1    1    5    1        0.0000044041
    1    1    6    1        0.0016075967
    1    1    7    1       -0.0000191101
    1    1    8    1        0.0480949797
    1    1    9    1        0.0000072054
    1    1   10    1       -0.0000073391
    1    1   11    1        0.0000002253
    1    1    2    2        0.1412827966
    1    1    3    2       -0.0000027243
    1    1    4    2       -0.0000065609
    1    1    5    2       -0.0000007882
    1    1    6    2       -0.0008113128
    1    1    7    2        0.0000133983
    1    1    8    2       -0.0371511978
    1    1    9    2       -0.0000097907
    1    1   10    2        0.0000028459
    1    1   11    2       -0.0000004243
    1    1    3    3        0.1682809065
    1    1    4    3        0.0000011533
    1    1    5    3       -0.0000047499
    1    1    6    3       -0.0000196062
    1    1    7    3        0.0000015498
    1    1    8    3       -0.0000127699
    1    1    9    3        0.0576770678
    1    1   10    3       -0.0000015379
    1    1   11    3       -0.0000065227
    1    1    4    4        0.1597031198
    1    1    5    4        0.0000032025
    1    1    6    4       -0.0001132722
    1    1    7    4        0.0000586577
    1    1    8    4        0.0000057487
    1    1    9    4       -0.0000036388
    1    1   10    4        0.0031640190
    1    1   11    4       -0.0481972513
    1    1    5    5        0.1597005805
    1    1    6    5       -0.0000407003
    1    1    7    5        0.0001414193
    1    1    8    5        0.0000003468
    1    1    9    5       -0.0000065480
    1    1   10    5       -0.0481966774
    1    1   11    5       -0.0031630276
    1    1    6    6        0.1392070401
    1    1    7    6       -0.0000005893
    1    1    8    6        0.0003964511
    1    1    9    6       -0.0000325059
    1    1   10    6        0.0000795424
    1    1   11    6        0.0002816962
    1    1    7    7        0.1385895832
    1    1    8    7       -0.0000056439
    1    1    9    7       -0.0000014232
    1    1   10    7       -0.0003153158
    1    1   11    7       -0.0001746732
    1    1    8    8        0.1483367993
    1    1    9    8       -0.0000102182
    1    1   10    8       -0.0000022857
    1    1   11    8        0.0000007584
    1    1    9    9        0.1943275168
    1    1   10    9       -0.0000059214
    1    1   11    9       -0.0000035008
    1    1   10   10        0.1798762949
    1    1   11   10       -0.0000054503
    1    1   11   11        0.1798721571
    2    1    2    1        0.0022469641
    2    1    3    1       -0.0000006338
    2    1    4    1       -0.0000008407
    2    1    5    1       -0.0000000471
    2    1    6    1       -0.0001180649
    2    1    7    1        0.0000013752
    2    1    8    1       -0.0034452300
    2    1    9    1       -0.0000014573
    2    1   10    1        0.0000001252
    2    1   11    1       -0.0000004011
    2    1    2    2       -0.0003365774
    2    1    3    2       -0.0000028835
    2    1    4    2        0.0000020377
    2    1    5    2        0.0000020724
    2    1    6    2       -0.0000060693
    2    1    7    2       -0.0000001967
    2    1    8    2        0.0005137142
    2    1    9    2       -0.0000003192
    2    1   10    2       -0.0000004270
    2    1   11    2       -0.0000003832
    2    1    3    3       -0.0007366647
    2    1    4    3       -0.0000000299
    2    1    5    3        0.0000001270
    2    1    6    3        0.0000020722
    2    1    7    3       -0.0000000219
    2    1    8    3        0.0000010462
    2    1    9    3       -0.0011209180
    2    1   10    3        0.0000000664
    2    1   11    3        0.0000001614
    2    1    4    4       -0.0004998792
    2    1    5    4       -0.0000000186
    2    1    6    4        0.0000026950
    2    1    7    4       -0.0000019985
    2    1    8    4       -0.0000005235
    2    1    9    4        0.0000000340
    2    1   10    4       -0.0000498473
    2    1   11    4        0.0007597058
    2    1    5    5       -0.0004998707
    2    1    6    5        0.0000013162
    2    1    7    5       -0.0000016378
    2    1    8    5       -0.0000004547
    2    1    9    5        0.0000001777
    2    1   10    5        0.0007597225
    2    1   11    5        0.0000498379
    2    1    6    6       -0.0001061745
    2    1    7    6        0.0000000197
    2    1    8    6       -0.0000036508
    2    1    9    6        0.0000027495
    2    1   10    6       -0.0000018432
    2    1   11    6       -0.0000050028
    2    1    7    7       -0.0001148312
    2    1    8    7        0.0000002922
    2    1    9    7       -0.0000000236
    2    1   10    7        0.0000035777
    2    1   11    7        0.0000037506
    2    1    8    8       -0.0008040125
    2    1    9    8        0.0000025891
    2    1   10    8        0.0000016815
    2    1   11    8        0.0000017391
    2    1    9    9       -0.0018487847
    2    1   10    9        0.0000001456
    2    1   11    9        0.0000001181
    2    1   10   10       -0.0012522034
    2    1   11   10        0.0000001058
    2    1   11   11       -0.0012521104
    3    1    3    1        0.0033611908
    3    1    4    1        0.0000001750
    3    1    5    1       -0.0000005185
    3    1    6    1       -0.0000014859
    3    1    7    1        0.0000001085
    3    1    8    1       -0.0000008411
    3    1    9    1        0.0056385182
    3    1   10    1       -0.0000004499
    3    1   11    1       -0.0000007390
    3    1    2    2       -0.0000953564
    3    1    3    2        0.0035472646
    3    1    4    2        0.0000006263
    3    1    5    2        0.0000002483
    3    1    6    2        0.0001159327
    3    1    7    2       -0.0000001566
    3    1    8    2       -0.0000318079
    3    1    9    2        0.0014224775
    3    1   10    2        0.0000000178
    3    1   11    2       -0.0000000819
    3    1    3    3       -0.0000019621
    3    1    4    3       -0.0000095994
    3    1    5    3       -0.0000027223
    3    1    6    3       -0.0018030011
    3    1    7    3        0.0000004234
    3    1    8    3       -0.0022760966
    3    1    9    3       -0.0000024927
    3    1   10    3        0.0000000142
    3    1   11    3       -0.0000004931
    3    1    4    4       -0.0000797847
    3    1    5    4       -0.0000000840
    3    1    6    4       -0.0000003419
    3    1    7    4       -0.0000000482
    3    1    8    4       -0.0000001146
    3    1    9    4       -0.0000153603
    3    1   10    4        0.0000043889
    3    1   11    4       -0.0000660866
    3    1    5    5       -0.0000798156
    3    1    6    5       -0.0000001196
    3    1    7    5        0.0000002629
    3    1    8    5        0.0000002744
    3    1    9    5       -0.0000052912
    3    1   10    5       -0.0000652935
    3    1   11    5        0.0000004665
    3    1    6    6       -0.0001755677
    3    1    7    6       -0.0000001702
    3    1    8    6       -0.0000137695
    3    1    9    6       -0.0027026952
    3    1   10    6        0.0000001764
    3    1   11    6        0.0000002351
    3    1    7    7       -0.0000734039
    3    1    8    7       -0.0000000446
    3    1    9    7        0.0000007986
    3    1   10    7       -0.0000006477
    3    1   11    7        0.0000004129
    3    1    8    8       -0.0001007950
    3    1    9    8       -0.0034464080
    3    1   10    8        0.0000000056
    3    1   11    8        0.0000002679
    3    1    9    9       -0.0000025012
    3    1   10    9       -0.0000000995
    3    1   11    9       -0.0000011473
    3    1   10   10       -0.0000904294
    3    1   11   10       -0.0000016521
    3    1   11   11       -0.0000899738
    4    1    4    1        0.0016562643
    4    1    5    1        0.0000001558
    4    1    6    1       -0.0000084215
    4    1    7    1        0.0000041732
    4    1    8    1        0.0000015344
    4    1    9    1       -0.0000000458
    4    1   10    1        0.0001828798
    4    1   11    1       -0.0027876200
    4    1    2    2        0.0000743869
    4    1    3    2        0.0000001206
    4    1    4    2        0.0028011421
    4    1    5    2        0.0000008427
    4    1    6    2        0.0000340614
    4    1    7    2       -0.0000740046
    4    1    8    2        0.0000234272
    4    1    9    2       -0.0000000778
    4    1   10    2        0.0000856447
    4    1   11    2       -0.0013028316
    4    1    3    3        0.0000564709
    4    1    4    3       -0.0000004363
    4    1    5    3       -0.0000000310
    4    1    6    3        0.0000001091
    4    1    7    3       -0.0000000990
    4    1    8    3       -0.0000000890
    4    1    9    3       -0.0000578722
    4    1   10    3        0.0000000529
    4    1   11    3       -0.0000006370
    4    1    4    4        0.0000139038
    4    1    5    4        0.0000089697
    4    1    6    4        0.0006065429
    4    1    7    4       -0.0011083369
    4    1    8    4       -0.0017076416
    4    1    9    4       -0.0000001411
    4    1   10    4        0.0000010210
    4    1   11    4       -0.0000129359
    4    1    5    5        0.0000625670
    4    1    6    5        0.0000002843
    4    1    7    5       -0.0000056159
    4    1    8    5       -0.0000002001
    4    1    9    5       -0.0000000186
    4    1   10    5        0.0000580664
    4    1   11    5       -0.0000105452
    4    1    6    6        0.0000706249
    4    1    7    6       -0.0000285573
    4    1    8    6        0.0000009541
    4    1    9    6        0.0000000881
    4    1   10    6        0.0000627271
    4    1   11    6       -0.0009575985
    4    1    7    7        0.0001142577
    4    1    8    7        0.0000067448
    4    1    9    7        0.0000000182
    4    1   10    7       -0.0001135042
    4    1   11    7        0.0018671007
    4    1    8    8        0.0000814540
    4    1    9    8        0.0000001428
    4    1   10    8       -0.0001885285
    4    1   11    8        0.0028734378
    4    1    9    9        0.0000701812
    4    1   10    9        0.0000000075
    4    1   11    9        0.0000002965
    4    1   10   10        0.0000780861
    4    1   11   10        0.0000044300
    4    1   11   11        0.0000007732
    5    1    5    1        0.0016561169
    5    1    6    1       -0.0000029001
    5    1    7    1        0.0000108501
    5    1    8    1        0.0000002975
    5    1    9    1       -0.0000008628
    5    1   10    1       -0.0027875326
    5    1   11    1       -0.0001829031
    5    1    2    2        0.0000746980
    5    1    3    2       -0.0000003932
    5    1    4    2        0.0000001419
    5    1    5    2        0.0027999951
    5    1    6    2        0.0000423624
    5    1    7    2        0.0000957431
    5    1    8    2        0.0000237441
    5    1    9    2       -0.0000000357
    5    1   10    2       -0.0013028065
    5    1   11    2       -0.0000855211
    5    1    3    3        0.0000578989
    5    1    4    3       -0.0000000736
    5    1    5    3       -0.0000002431
    5    1    6    3        0.0000000767
    5    1    7    3        0.0000002851
    5    1    8    3        0.0000003459
    5    1    9    3       -0.0000561074
    5    1   10    3       -0.0000002275
    5    1   11    3        0.0000038538
    5    1    4    4        0.0000636424
    5    1    5    4        0.0000007710
    5    1    6    4        0.0000001028
    5    1    7    4       -0.0000051332
    5    1    8    4       -0.0000002133
    5    1    9    4       -0.0000000442
    5    1   10    4       -0.0000029390
    5    1   11    4        0.0000541604
    5    1    5    5       -0.0000128854
    5    1    6    5        0.0006056023
    5    1    7    5        0.0011084787
    5    1    8    5       -0.0017065985
    5    1    9    5       -0.0000004206
    5    1   10    5        0.0000130249
    5    1   11    5        0.0000004721
    5    1    6    6        0.0000759159
    5    1    7    6        0.0000366842
    5    1    8    6       -0.0000036506
    5    1    9    6        0.0000004472
    5    1   10    6       -0.0009572650
    5    1   11    6       -0.0000635303
    5    1    7    7        0.0001352838
    5    1    8    7       -0.0000196270
    5    1    9    7        0.0000001138
    5    1   10    7       -0.0018695482
    5    1   11    7       -0.0001133908
    5    1    8    8        0.0000817453
    5    1    9    8        0.0000004880
    5    1   10    8        0.0028721356
    5    1   11    8        0.0001885985
    5    1    9    9        0.0000725253
    5    1   10    9        0.0000009830
    5    1   11    9        0.0000010794
    5    1   10   10       -0.0000023422
    5    1   11   10       -0.0000042946
    5    1   11   11        0.0000816855
    6    1    6    1        0.0000990369
    6    1    7    1       -0.0000001107
    6    1    8    1        0.0001805033
    6    1    9    1       -0.0000026863
    6    1   10    1        0.0000042434
    6    1   11    1        0.0000155507
    6    1    2    2        0.0000119780
    6    1    3    2        0.0000027857
    6    1    4    2       -0.0000111001
    6    1    5    2       -0.0000029310
    6    1    6    2        0.0005027111
    6    1    7    2        0.0000002462
    6    1    8    2       -0.0000282166
    6    1    9    2        0.0000000035
    6    1   10    2        0.0000018097
    6    1   11    2        0.0000071273
    6    1    3    3       -0.0002345362
    6    1    4    3        0.0000000215
    6    1    5    3        0.0000000052
    6    1    6    3       -0.0000015959
    6    1    7    3       -0.0000000418
    6    1    8    3        0.0000000047
    6    1    9    3       -0.0005275815
    6    1   10    3        0.0000000414
    6    1   11    3       -0.0000000157
    6    1    4    4        0.0001246938
    6    1    5    4        0.0000000129
    6    1    6    4       -0.0000044779
    6    1    7    4        0.0000052902
    6    1    8    4        0.0000069217
    6    1    9    4        0.0000000276
    6    1   10    4        0.0000185351
    6    1   11    4       -0.0002825651
    6    1    5    5        0.0001245031
    6    1    6    5       -0.0000012260
    6    1    7    5       -0.0000018144
    6    1    8    5        0.0000022430
    6    1    9    5        0.0000000555
    6    1   10    5       -0.0002827522
    6    1   11    5       -0.0000185486
    6    1    6    6       -0.0001855025
    6    1    7    6        0.0000001219
    6    1    8    6       -0.0003892917
    6    1    9    6       -0.0000014852
    6    1   10    6        0.0000015127
    6    1   11    6        0.0000062744
    6    1    7    7        0.0001768737
    6    1    8    7        0.0000000288
    6    1    9    7       -0.0000000345
    6    1   10    7        0.0000013261
    6    1   11    7       -0.0000103687
    6    1    8    8        0.0000461888
    6    1    9    8       -0.0000015244
    6    1   10    8       -0.0000034410
    6    1   11    8       -0.0000150391
    6    1    9    9       -0.0005996556
    6    1   10    9        0.0000000285
    6    1   11    9        0.0000000301
    6    1   10   10        0.0003801702
    6    1   11   10       -0.0000000332
    6    1   11   11        0.0003805783
    7    1    7    1        0.0000758957
    7    1    8    1       -0.0000020954
    7    1    9    1        0.0000001663
    7    1   10    1       -0.0000185697
    7    1   11    1       -0.0000087794
    7    1    2    2        0.0000005341
    7    1    3    2        0.0000001263
    7    1    4    2        0.0000038108
    7    1    5    2        0.0000183901
    7    1    6    2        0.0000003958
    7    1    7    2        0.0004643127
    7    1    8    2        0.0000006381
    7    1    9    2       -0.0000000020
    7    1   10    2       -0.0000091221
    7    1   11    2       -0.0000038968
    7    1    3    3        0.0000001335
    7    1    4    3       -0.0000000079
    7    1    5    3        0.0000000887
    7    1    6    3       -0.0000000634
    7    1    7    3       -0.0000001073
    7    1    8    3       -0.0000000647
    7    1    9    3       -0.0000011654
    7    1   10    3       -0.0000000614
    7    1   11    3        0.0000001477
    7    1    4    4       -0.0001664327
    7    1    5    4       -0.0000007506
    7    1    6    4        0.0000015131
    7    1    7    4       -0.0000014428
    7    1    8    4       -0.0000031669
    7    1    9    4        0.0000000052
    7    1   10    4       -0.0000260521
    7    1   11    4        0.0004274054
    7    1    5    5        0.0001665418
    7    1    6    5        0.0000033666
    7    1    7    5        0.0000101624
    7    1    8    5       -0.0000096991
    7    1    9    5        0.0000000373
    7    1   10    5       -0.0004262058
    7    1   11    5       -0.0000259224
    7    1    6    6        0.0000005878
    7    1    7    6        0.0001553640
    7    1    8    6        0.0000000172
    7    1    9    6       -0.0000000996
    7    1   10    6       -0.0000062526
    7    1   11    6       -0.0000048845
    7    1    7    7        0.0000015934
    7    1    8    7       -0.0003554316
    7    1    9    7       -0.0000000027
    7    1   10    7       -0.0000173468
    7    1   11    7        0.0000038550
    7    1    8    8        0.0000001316
    7    1    9    8       -0.0000000519
    7    1   10    8        0.0000211292
    7    1   11    8        0.0000075965
    7    1    9    9       -0.0000003381
    7    1   10    9       -0.0000000671
    7    1   11    9       -0.0000000009
    7    1   10   10        0.0005088986
    7    1   11   10        0.0000646715
    7    1   11   11       -0.0005091553
    8    1    8    1        0.0053080169
    8    1    9    1       -0.0000007431
    8    1   10    1       -0.0000004986
    8    1   11    1        0.0000002347
    8    1    2    2        0.0004067796
    8    1    3    2        0.0000002956
    8    1    4    2       -0.0000007639
    8    1    5    2       -0.0000008088
    8    1    6    2        0.0000010965
    8    1    7    2        0.0000004056
    8    1    8    2       -0.0006286951
    8    1    9    2       -0.0000001637
    8    1   10    2        0.0000004394
    8    1   11    2        0.0000003413
    8    1    3    3        0.0008542581
    8    1    4    3        0.0000000452
    8    1    5    3       -0.0000001281
    8    1    6    3       -0.0000009345
    8    1    7    3        0.0000000361
    8    1    8    3       -0.0000001856
    8    1    9    3        0.0013673004
    8    1   10    3       -0.0000001085
    8    1   11    3       -0.0000001943
    8    1    4    4        0.0005396537
    8    1    5    4        0.0000000555
    8    1    6    4       -0.0000028973
    8    1    7    4        0.0000017442
    8    1    8    4        0.0000005145
    8    1    9    4       -0.0000000225
    8    1   10    4        0.0000565619
    8    1   11    4       -0.0008621474
    8    1    5    5        0.0005397364
    8    1    6    5       -0.0000012137
    8    1    7    5        0.0000026607
    8    1    8    5        0.0000004285
    8    1    9    5       -0.0000002058
    8    1   10    5       -0.0008624231
    8    1   11    5       -0.0000565848
    8    1    6    6        0.0000595723
    8    1    7    6        0.0000000272
    8    1    8    6        0.0000106637
    8    1    9    6       -0.0000012595
    8    1   10    6        0.0000017226
    8    1   11    6        0.0000052220
    8    1    7    7        0.0000704591
    8    1    8    7       -0.0000005111
    8    1    9    7        0.0000000385
    8    1   10    7       -0.0000049109
    8    1   11    7       -0.0000034166
    8    1    8    8        0.0010273298
    8    1    9    8       -0.0000004307
    8    1   10    8       -0.0000008150
    8    1   11    8       -0.0000006547
    8    1    9    9        0.0023261080
    8    1   10    9       -0.0000002061
    8    1   11    9       -0.0000001531
    8    1   10   10        0.0014800159
    8    1   11   10       -0.0000000883
    8    1   11   11        0.0014795967
    9    1    9    1        0.0095409023
    9    1   10    1       -0.0000008265
    9    1   11    1       -0.0000006582
    9    1    2    2       -0.0001354905
    9    1    3    2        0.0050461416
    9    1    4    2        0.0000004675
    9    1    5    2        0.0000004162
    9    1    6    2        0.0001659539
    9    1    7    2       -0.0000002858
    9    1    8    2       -0.0000428956
    9    1    9    2        0.0022336406
    9    1   10    2        0.0000000062
    9    1   11    2        0.0000001164
    9    1    3    3       -0.0000027533
    9    1    4    3       -0.0000160353
    9    1    5    3       -0.0000055384
    9    1    6    3       -0.0027764073
    9    1    7    3        0.0000006388
    9    1    8    3       -0.0034136429
    9    1    9    3       -0.0000031773
    9    1   10    3        0.0000002096
    9    1   11    3       -0.0000006008
    9    1    4    4       -0.0001133149
    9    1    5    4       -0.0000001266
    9    1    6    4       -0.0000006192
    9    1    7    4        0.0000000986
    9    1    8    4        0.0000001405
    9    1    9    4       -0.0000228595
    9    1   10    4        0.0000061800
    9    1   11    4       -0.0000930283
    9    1    5    5       -0.0001134409
    9    1    6    5       -0.0000001578
    9    1    7    5        0.0000003912
    9    1    8    5        0.0000004078
    9    1    9    5       -0.0000077294
    9    1   10    5       -0.0000917201
    9    1   11    5        0.0000007388
    9    1    6    6       -0.0002530046
    9    1    7    6       -0.0000002689
    9    1    8    6       -0.0000218265
    9    1    9    6       -0.0040727834
    9    1   10    6        0.0000002142
    9    1   11    6        0.0000004788
    9    1    7    7       -0.0001035089
    9    1    8    7       -0.0000000038
    9    1    9    7        0.0000011813
    9    1   10    7       -0.0000009358
    9    1   11    7        0.0000002567
    9    1    8    8       -0.0001414273
    9    1    9    8       -0.0051154077
    9    1   10    8        0.0000001289
    9    1   11    8       -0.0000000466
    9    1    9    9       -0.0000029807
    9    1   10    9        0.0000003170
    9    1   11    9       -0.0000012671
    9    1   10   10       -0.0001267505
    9    1   11   10       -0.0000025606
    9    1   11   11       -0.0001258357
   10    1   10    1        0.0047633579
   10    1   11    1       -0.0000003822
   10    1    2    2       -0.0001005945
   10    1    3    2       -0.0000004507
   10    1    4    2        0.0002643779
   10    1    5    2       -0.0040249179
   10    1    6    2       -0.0000572822
   10    1    7    2       -0.0001505779
   10    1    8    2       -0.0000297245
   10    1    9    2       -0.0000003877
   10    1   10    2        0.0020974706
   10    1   11    2       -0.0000000762
   10    1    3    3       -0.0000787853
   10    1    4    3        0.0000001669
   10    1    5    3       -0.0000008702
   10    1    6    3        0.0000004573
   10    1    7    3       -0.0000004610
   10    1    8    3        0.0000001687
   10    1    9    3        0.0000731710
   10    1   10    3        0.0000001545
   10    1   11    3       -0.0000056173
   10    1    4    4       -0.0000884269
   10    1    5    4        0.0000009350
   10    1    6    4        0.0000631267
   10    1    7    4       -0.0001069072
   10    1    8    4       -0.0001719410
   10    1    9    4        0.0000000655
   10    1   10    4        0.0000048608
   10    1   11    4       -0.0000829833
   10    1    5    5        0.0000248830
   10    1    6    5       -0.0009614684
   10    1    7    5       -0.0017521896
   10    1    8    5        0.0026205877
   10    1    9    5        0.0000006319
   10    1   10    5       -0.0000107293
   10    1   11    5       -0.0000016600
   10    1    6    6       -0.0001030623
   10    1    7    6       -0.0000593175
   10    1    8    6        0.0000054078
   10    1    9    6        0.0000002072
   10    1   10    6        0.0014846732
   10    1   11    6        0.0000008967
   10    1    7    7       -0.0001881763
   10    1    8    7        0.0000357570
   10    1    9    7       -0.0000001580
   10    1   10    7        0.0028438440
   10    1   11    7        0.0003605507
   10    1    8    8       -0.0001086750
   10    1    9    8        0.0000003893
   10    1   10    8       -0.0043721225
   10    1   11    8        0.0000003051
   10    1    9    9       -0.0000981018
   10    1   10    9       -0.0000010173
   10    1   11    9       -0.0000017175
   10    1   10   10        0.0000065682
   10    1   11   10        0.0000061339
   10    1   11   11       -0.0001102375
   11    1   11    1        0.0047631302
   11    1    2    2       -0.0001140655
   11    1    3    2       -0.0000006427
   11    1    4    2       -0.0040263586
   11    1    5    2       -0.0002649644
   11    1    6    2       -0.0000495939
   11    1    7    2        0.0000961817
   11    1    8    2       -0.0000337845
   11    1    9    2       -0.0000000836
   11    1   10    2       -0.0000003819
   11    1   11    2        0.0020973420
   11    1    3    3       -0.0000887517
   11    1    4    3       -0.0000007827
   11    1    5    3        0.0000011347
   11    1    6    3        0.0000000855
   11    1    7    3        0.0000002262
   11    1    8    3        0.0000004340
   11    1    9    3        0.0000835472
   11    1   10    3       -0.0000007590
   11    1   11    3        0.0000004592
   11    1    4    4       -0.0000258199
   11    1    5    4       -0.0000129135
   11    1    6    4       -0.0009628531
   11    1    7    4        0.0017516745
   11    1    8    4        0.0026220888
   11    1    9    4        0.0000000800
   11    1   10    4       -0.0000011068
   11    1   11    4        0.0000094582
   11    1    5    5       -0.0000886233
   11    1    6    5       -0.0000634177
   11    1    7    5       -0.0001059575
   11    1    8    5        0.0001720426
   11    1    9    5        0.0000006576
   11    1   10    5       -0.0000842382
   11    1   11    5        0.0000166929
   11    1    6    6       -0.0001097654
   11    1    7    6        0.0000374596
   11    1    8    6       -0.0000038371
   11    1    9    6        0.0000002282
   11    1   10    6        0.0000000186
   11    1   11    6        0.0014851893
   11    1    7    7       -0.0001778015
   11    1    8    7       -0.0000074663
   11    1    9    7       -0.0000000574
   11    1   10    7        0.0003604501
   11    1   11    7       -0.0028398885
   11    1    8    8       -0.0001229293
   11    1    9    8        0.0000002690
   11    1   10    8        0.0000004826
   11    1   11    8       -0.0043737150
   11    1    9    9       -0.0001110174
   11    1   10    9       -0.0000010222
   11    1   11    9        0.0000000419
   11    1   10   10       -0.0001100258
   11    1   11   10       -0.0000057328
   11    1   11   11       -0.0000017201
    2    2    2    2        0.1196612823
    2    2    3    2       -0.0008676392
    2    2    4    2        0.0008548746
    2    2    5    2        0.0008603292
    2    2    6    2       -0.0002799500
    2    2    7    2        0.0000114219
    2    2    8    2       -0.0099676298
    2    2    9    2        0.0000475135
    2    2   10    2       -0.0000082215
    2    2   11    2       -0.0000101208
    2    2    3    3        0.1252035358
    2    2    4    3       -0.0000068520
    2    2    5    3       -0.0000080446
    2    2    6    3        0.0003708942
    2    2    7    3        0.0000003815
    2    2    8    3        0.0000567244
    2    2    9    3        0.0093354735
    2    2   10    3       -0.0000014926
    2    2   11    3       -0.0000017052
    2    2    4    4        0.1243025438
    2    2    5    4        0.0000123609
    2    2    6    4        0.0001561952
    2    2    7    4       -0.0002994989
    2    2    8    4       -0.0000379128
    2    2    9    4        0.0000044794
    2    2   10    4        0.0005978474
    2    2   11    4       -0.0090648040
    2    2    5    5        0.1242950881
    2    2    6    5        0.0001707187
    2    2    7    5        0.0003360002
    2    2    8    5       -0.0000383703
    2    2    9    5        0.0000027691
    2    2   10    5       -0.0090598734
    2    2   11    5       -0.0005969511
    2    2    6    6        0.1204426714
    2    2    7    6        0.0000025936
    2    2    8    6       -0.0000155085
    2    2    9    6        0.0004664481
    2    2   10    6       -0.0001846509
    2    2   11    6       -0.0001728666
    2    2    7    7        0.1202952062
    2    2    8    7        0.0000009897
    2    2    9    7       -0.0000009524
    2    2   10    7       -0.0005311185
    2    2   11    7        0.0003801600
    2    2    8    8        0.1154884545
    2    2    9    8        0.0006729699
    2    2   10    8        0.0006496315
    2    2   11    8        0.0007378849
    2    2    9    9        0.1232943368
    2    2   10    9        0.0000036587
    2    2   11    9        0.0000048898
    2    2   10   10        0.1225900479
    2    2   11   10        0.0000035239
    2    2   11   11        0.1225902870
    3    2    3    2        0.0245300681
    3    2    4    2       -0.0000027699
    3    2    5    2       -0.0000041103
    3    2    6    2        0.0009650132
    3    2    7    2       -0.0000009178
    3    2    8    2       -0.0004521807
    3    2    9    2       -0.0014259969
    3    2   10    2       -0.0000065660
    3    2   11    2       -0.0000072872
    3    2    3    3       -0.0000071142
    3    2    4    3        0.0002294180
    3    2    5    3        0.0002561452
    3    2    6    3       -0.0064171191
    3    2    7    3        0.0000016807
    3    2    8    3       -0.0046682427
    3    2    9    3       -0.0000143911
    3    2   10    3        0.0000084338
    3    2   11    3        0.0000083561
    3    2    4    4       -0.0007211849
    3    2    5    4       -0.0000004350
    3    2    6    4        0.0000045947
    3    2    7    4        0.0000029547
    3    2    8    4       -0.0000069867
    3    2    9    4       -0.0001686472
    3    2   10    4        0.0000435457
    3    2   11    4       -0.0006631169
    3    2    5    5       -0.0007214378
    3    2    6    5        0.0000057034
    3    2    7    5       -0.0000004156
    3    2    8    5       -0.0000057600
    3    2    9    5       -0.0001186694
    3    2   10    5       -0.0006596043
    3    2   11    5       -0.0000121718
    3    2    6    6       -0.0013693046
    3    2    7    6       -0.0000014201
    3    2    8    6        0.0000177627
    3    2    9    6       -0.0135638819
    3    2   10    6        0.0000053516
    3    2   11    6        0.0000077106
    3    2    7    7       -0.0007127678
    3    2    8    7       -0.0000008816
    3    2    9    7        0.0000031295
    3    2   10    7       -0.0000046416
    3    2   11    7        0.0000020015
    3    2    8    8       -0.0010755479
    3    2    9    8       -0.0178587292
    3    2   10    8       -0.0000090777
    3    2   11    8       -0.0000097439
    3    2    9    9       -0.0000120889
    3    2   10    9       -0.0001188596
    3    2   11    9       -0.0001382647
    3    2   10   10       -0.0009495274
    3    2   11   10        0.0000017288
    3    2   11   11       -0.0009484949
    4    2    4    2        0.0248675521
    4    2    5    2        0.0000150327
    4    2    6    2        0.0004283713
    4    2    7    2       -0.0008126208
    4    2    8    2        0.0004399110
    4    2    9    2        0.0000087939
    4    2   10    2        0.0000025484
    4    2   11    2        0.0001121899
    4    2    3    3        0.0006488291
    4    2    4    3       -0.0002819330
    4    2    5    3       -0.0000002835
    4    2    6    3       -0.0000019301
    4    2    7    3        0.0000075409
    4    2    8    3       -0.0000074687
    4    2    9    3       -0.0007266628
    4    2   10    3        0.0000046129
    4    2   11    3       -0.0000732702
    4    2    4    4        0.0000579491
    4    2    5    4        0.0003173821
    4    2    6    4        0.0028168397
    4    2    7    4       -0.0051030822
    4    2    8    4       -0.0038620587
    4    2    9    4        0.0000368783
    4    2   10    4        0.0000251158
    4    2   11    4       -0.0001064723
    4    2    5    5        0.0007116298
    4    2    6    5        0.0000083093
    4    2    7    5       -0.0000329366
    4    2    8    5        0.0000063802
    4    2    9    5        0.0000001608
    4    2   10    5        0.0007241759
    4    2   11    5        0.0000353393
    4    2    6    6        0.0008376203
    4    2    7    6       -0.0002610658
    4    2    8    6        0.0000055264
    4    2    9    6        0.0000015767
    4    2   10    6        0.0003991864
    4    2   11    6       -0.0060563747
    4    2    7    7        0.0011868231
    4    2    8    7       -0.0000168331
    4    2    9    7       -0.0000053702
    4    2   10    7       -0.0007711689
    4    2   11    7        0.0126498176
    4    2    8    8        0.0010820203
    4    2    9    8        0.0000081281
    4    2   10    8       -0.0012301104
    4    2   11    8        0.0188972720
    4    2    9    9        0.0009511850
    4    2   10    9       -0.0000092756
    4    2   11    9        0.0001441675
    4    2   10   10        0.0010010392
    4    2   11   10        0.0001878732
    4    2   11   11        0.0000118463
    5    2    5    2        0.0248479537
    5    2    6    2        0.0004717536
    5    2    7    2        0.0009189094
    5    2    8    2        0.0004424760
    5    2    9    2        0.0000099170
    5    2   10    2        0.0001119918
    5    2   11    2        0.0000148777
    5    2    3    3        0.0006608955
    5    2    4    3       -0.0000005577
    5    2    5    3       -0.0002807228
    5    2    6    3       -0.0000039767
    5    2    7    3       -0.0000064729
    5    2    8    3       -0.0000067039
    5    2    9    3       -0.0007005182
    5    2   10    3       -0.0000704526
    5    2   11    3        0.0000265510
    5    2    4    4        0.0007147372
    5    2    5    4        0.0002835729
    5    2    6    4        0.0000083442
    5    2    7    4       -0.0000186393
    5    2    8    4        0.0000042609
    5    2    9    4        0.0000000265
    5    2   10    4        0.0000472936
    5    2   11    4        0.0006747497
    5    2    5    5       -0.0000563409
    5    2    6    5        0.0028067708
    5    2    7    5        0.0050922628
    5    2    8    5       -0.0038567690
    5    2    9    5        0.0000356003
    5    2   10    5        0.0001112239
    5    2   11    5        0.0000269904
    5    2    6    6        0.0008663309
    5    2    7    6        0.0002963983
    5    2    8    6        0.0000091224
    5    2    9    6        0.0000026611
    5    2   10    6       -0.0060532535
    5    2   11    6       -0.0004042628
    5    2    7    7        0.0012873905
    5    2    8    7        0.0000208695
    5    2    9    7        0.0000055509
    5    2   10    7       -0.0126591042
    5    2   11    7       -0.0007570730
    5    2    8    8        0.0010893695
    5    2    9    8        0.0000087709
    5    2   10    8        0.0188798264
    5    2   11    8        0.0012558214
    5    2    9    9        0.0009605519
    5    2   10    9        0.0001468983
    5    2   11    9        0.0000053106
    5    2   10   10       -0.0000165167
    5    2   11   10        0.0000630982
    5    2   11   11        0.0010426748
    6    2    6    2        0.0132417956
    6    2    7    2        0.0000069002
    6    2    8    2        0.0000378542
    6    2    9    2        0.0000392215
    6    2   10    2       -0.0000423106
    6    2   11    2       -0.0000482333
    6    2    3    3       -0.0014193937
    6    2    4    3        0.0000037078
    6    2    5    3        0.0000038516
    6    2    6    3       -0.0004773248
    6    2    7    3       -0.0000013106
    6    2    8    3       -0.0001519102
    6    2    9    3       -0.0076917648
    6    2   10    3        0.0000006894
    6    2   11    3        0.0000008185
    6    2    4    4       -0.0000244367
    6    2    5    4        0.0000108550
    6    2    6    4        0.0002054617
    6    2    7    4       -0.0001124081
    6    2    8    4       -0.0000694986
    6    2    9    4       -0.0000035021
    6    2   10    4        0.0002122528
    6    2   11    4       -0.0032120627
    6    2    5    5       -0.0000306484
    6    2    6    5        0.0002206458
    6    2    7    5        0.0001231477
    6    2    8    5       -0.0000665637
    6    2    9    5       -0.0000016356
    6    2   10    5       -0.0032110821
    6    2   11    5       -0.0002121984
    6    2    6    6       -0.0013137499
    6    2    7    6        0.0000039128
    6    2    8    6       -0.0046339837
    6    2    9    6       -0.0005702580
    6    2   10    6       -0.0001065294
    6    2   11    6       -0.0000902145
    6    2    7    7        0.0007126210
    6    2    8    7       -0.0000004307
    6    2    9    7        0.0000007098
    6    2   10    7       -0.0002919003
    6    2   11    7        0.0001762198
    6    2    8    8       -0.0000749577
    6    2    9    8       -0.0007278420
    6    2   10    8        0.0003371457
    6    2   11    8        0.0003082336
    6    2    9    9       -0.0012677029
    6    2   10    9       -0.0000020067
    6    2   11    9       -0.0000030454
    6    2   10   10        0.0004360697
    6    2   11   10        0.0000030582
    6    2   11   11        0.0004405849
    7    2    7    2        0.0131873760
    7    2    8    2        0.0000049932
    7    2    9    2       -0.0000004224
    7    2   10    2       -0.0000975616
    7    2   11    2        0.0000863764
    7    2    3    3        0.0000100896
    7    2    4    3        0.0000087377
    7    2    5    3       -0.0000082114
    7    2    6    3       -0.0000005427
    7    2    7    3       -0.0001479266
    7    2    8    3        0.0000001412
    7    2    9    3       -0.0000036207
    7    2   10    3       -0.0000016279
    7    2   11    3        0.0000047571
    7    2    4    4       -0.0005571874
    7    2    5    4       -0.0000026633
    7    2    6    4       -0.0001267036
    7    2    7    4        0.0003742456
    7    2    8    4        0.0001134785
    7    2    9    4       -0.0000017540
    7    2   10    4       -0.0004151366
    7    2   11    4        0.0068321030
    7    2    5    5        0.0005646037
    7    2    6    5        0.0001459098
    7    2    7    5        0.0004264090
    7    2    8    5       -0.0001078360
    7    2    9    5        0.0000016244
    7    2   10    5       -0.0068278360
    7    2   11    5       -0.0004108360
    7    2    6    6        0.0000126051
    7    2    7    6        0.0009123295
    7    2    8    6        0.0000000057
    7    2    9    6        0.0000011311
    7    2   10    6       -0.0002796883
    7    2   11    6        0.0001594053
    7    2    7    7        0.0000276135
    7    2    8    7       -0.0044260873
    7    2    9    7        0.0000262375
    7    2   10    7       -0.0005784486
    7    2   11    7       -0.0004532307
    7    2    8    8        0.0000100034
    7    2    9    8        0.0000023213
    7    2   10    8        0.0008344542
    7    2   11    8       -0.0005589998
    7    2    9    9        0.0000137998
    7    2   10    9        0.0000046650
    7    2   11    9       -0.0000042195
    7    2   10   10        0.0009867703
    7    2   11   10        0.0001260088
    7    2   11   11       -0.0009659895
    8    2    8    2        0.0117323201
    8    2    9    2        0.0001867820
    8    2   10    2        0.0001477624
    8    2   11    2        0.0001680175
    8    2    3    3       -0.0148673742
    8    2    4    3       -0.0000136393
    8    2    5    3       -0.0000130761
    8    2    6    3        0.0000914144
    8    2    7    3       -0.0000003589
    8    2    8    3       -0.0001150540
    8    2    9    3       -0.0113373171
    8    2   10    3       -0.0000035900
    8    2   11    3       -0.0000025513
    8    2    4    4       -0.0137425009
    8    2    5    4        0.0000135419
    8    2    6    4        0.0000443911
    8    2    7    4       -0.0000739556
    8    2    8    4        0.0001317670
    8    2    9    4        0.0000070888
    8    2   10    4       -0.0007254024
    8    2   11    4        0.0111134671
    8    2    5    5       -0.0137430837
    8    2    6    5        0.0000417013
    8    2    7    5        0.0000632862
    8    2    8    5        0.0001327943
    8    2    9    5        0.0000062541
    8    2   10    5        0.0111096078
    8    2   11    5        0.0007321023
    8    2    6    6       -0.0128435184
    8    2    7    6        0.0000009687
    8    2    8    6        0.0000941386
    8    2    9    6        0.0001658643
    8    2   10    6       -0.0000751335
    8    2   11    6       -0.0001302385
    8    2    7    7       -0.0126459998
    8    2    8    7       -0.0000017805
    8    2    9    7        0.0000011138
    8    2   10    7       -0.0000822080
    8    2   11    7        0.0001785407
    8    2    8    8       -0.0069049150
    8    2    9    8        0.0003919037
    8    2   10    8        0.0003626774
    8    2   11    8        0.0004105511
    8    2    9    9       -0.0141008324
    8    2   10    9        0.0000089823
    8    2   11    9        0.0000094030
    8    2   10   10       -0.0132486631
    8    2   11   10        0.0000090103
    8    2   11   11       -0.0132463769
    9    2    9    2        0.0073329499
    9    2   10    2        0.0000081216
    9    2   11    2        0.0000092419
    9    2    3    3       -0.0000091946
    9    2    4    3       -0.0003017908
    9    2    5    3       -0.0002855539
    9    2    6    3       -0.0046259872
    9    2    7    3       -0.0000012032
    9    2    8    3       -0.0059260503
    9    2    9    3       -0.0000057986
    9    2   10    3       -0.0000450166
    9    2   11    3       -0.0000518162
    9    2    4    4        0.0000296870
    9    2    5    4        0.0000001265
    9    2    6    4       -0.0000079974
    9    2    7    4       -0.0000022556
    9    2    8    4        0.0000079743
    9    2    9    4        0.0001289550
    9    2   10    4       -0.0000062217
    9    2   11    4        0.0000980409
    9    2    5    5        0.0000295258
    9    2    6    5       -0.0000074646
    9    2    7    5        0.0000023149
    9    2    8    5        0.0000078213
    9    2    9    5        0.0001318321
    9    2   10    5        0.0000996621
    9    2   11    5        0.0000053457
    9    2    6    6       -0.0001321298
    9    2    7    6        0.0000002256
    9    2    8    6       -0.0001251365
    9    2    9    6       -0.0006595148
    9    2   10    6       -0.0000054711
    9    2   11    6       -0.0000062225
    9    2    7    7        0.0000544190
    9    2    8    7        0.0000011981
    9    2    9    7        0.0000009364
    9    2   10    7       -0.0000018973
    9    2   11    7        0.0000009915
    9    2    8    8        0.0002468261
    9    2    9    8        0.0008196742
    9    2   10    8        0.0000129413
    9    2   11    8        0.0000132983
    9    2    9    9       -0.0000052938
    9    2   10    9        0.0001478650
    9    2   11    9        0.0001662822
    9    2   10   10        0.0001723679
    9    2   11   10       -0.0000051283
    9    2   11   11        0.0001736902
   10    2   10    2        0.0076244494
   10    2   11    2        0.0000092292
   10    2    3    3       -0.0000158117
   10    2    4    3        0.0000168916
   10    2    5    3       -0.0002577928
   10    2    6    3       -0.0000015307
   10    2    7    3       -0.0000093913
   10    2    8    3       -0.0000067495
   10    2    9    3       -0.0000364200
   10    2   10    3       -0.0001112018
   10    2   11    3       -0.0000012112
   10    2    4    4       -0.0000135977
   10    2    5    4        0.0002688395
   10    2    6    4        0.0001456107
   10    2    7    4       -0.0002661475
   10    2    8    4       -0.0004130971
   10    2    9    4       -0.0000048448
   10    2   10    4        0.0001208089
   10    2   11    4        0.0000498297
   10    2    5    5        0.0000538859
   10    2    6    5       -0.0021329540
   10    2    7    5       -0.0044886021
   10    2    8    5        0.0064013712
   10    2    9    5        0.0000791570
   10    2   10    5       -0.0000140140
   10    2   11    5        0.0000510849
   10    2    6    6       -0.0000374967
   10    2    7    6       -0.0001074867
   10    2    8    6        0.0000570316
   10    2    9    6        0.0000033343
   10    2   10    6        0.0008418427
   10    2   11    6        0.0000016498
   10    2    7    7       -0.0002245120
   10    2    8    7        0.0001629732
   10    2    9    7        0.0000052331
   10    2   10    7        0.0013179846
   10    2   11    7        0.0001748735
   10    2    8    8        0.0001664892
   10    2    9    8        0.0000109308
   10    2   10    8       -0.0002003716
   10    2   11    8        0.0000143698
   10    2    9    9        0.0000970548
   10    2   10    9        0.0001595469
   10    2   11    9       -0.0000049401
   10    2   10   10       -0.0000254291
   10    2   11   10        0.0001316264
   10    2   11   11        0.0001247300
   11    2   11    2        0.0076270821
   11    2    3    3       -0.0000192640
   11    2    4    3       -0.0002596237
   11    2    5    3       -0.0000008623
   11    2    6    3       -0.0000010895
   11    2    7    3        0.0000079262
   11    2    8    3       -0.0000069740
   11    2    9    3       -0.0000423377
   11    2   10    3       -0.0000000894
   11    2   11    3       -0.0001105299
   11    2    4    4       -0.0000514029
   11    2    5    4        0.0002671713
   11    2    6    4       -0.0021327613
   11    2    7    4        0.0044892434
   11    2    8    4        0.0064068701
   11    2    9    4        0.0000782729
   11    2   10    4        0.0000665658
   11    2   11    4        0.0000127717
   11    2    5    5       -0.0000121409
   11    2    6    5       -0.0001373367
   11    2    7    5       -0.0002762761
   11    2    8    5        0.0004288671
   11    2    9    5        0.0000037846
   11    2   10    5        0.0000345273
   11    2   11    5        0.0001440455
   11    2    6    6       -0.0000296266
   11    2    7    6        0.0000553721
   11    2    8    6        0.0000388174
   11    2    9    6        0.0000034232
   11    2   10    6        0.0000020360
   11    2   11    6        0.0008429517
   11    2    7    7       -0.0001620265
   11    2    8    7       -0.0000824661
   11    2    9    7       -0.0000049120
   11    2   10    7        0.0001620217
   11    2   11    7       -0.0013150678
   11    2    8    8        0.0001876688
   11    2    9    8        0.0000118241
   11    2   10    8        0.0000130371
   11    2   11    8       -0.0001970611
   11    2    9    9        0.0001073271
   11    2   10    9       -0.0000078184
   11    2   11    9        0.0001612149
   11    2   10   10        0.0000823760
   11    2   11   10        0.0001680876
   11    2   11   11        0.0000437016
    3    3    3    3        0.1362818161
    3    3    4    3        0.0000021597
    3    3    5    3       -0.0000005181
    3    3    6    3        0.0000002497
    3    3    7    3        0.0000024142
    3    3    8    3        0.0000010783
    3    3    9    3        0.0172447918
    3    3   10    3       -0.0000002925
    3    3   11    3       -0.0000008423
    3    3    4    4        0.1320612748
    3    3    5    4        0.0000092273
    3    3    6    4        0.0000971733
    3    3    7    4       -0.0002296508
    3    3    8    4       -0.0000285185
    3    3    9    4       -0.0000014889
    3    3   10    4        0.0009602168
    3    3   11    4       -0.0145926040
    3    3    5    5        0.1320547739
    3    3    6    5        0.0001221723
    3    3    7    5        0.0002891341
    3    3    8    5       -0.0000353991
    3    3    9    5       -0.0000013275
    3    3   10    5       -0.0145874663
    3    3   11    5       -0.0009584176
    3    3    6    6        0.1251819493
    3    3    7    6        0.0000014290
    3    3    8    6        0.0015270199
    3    3    9    6       -0.0000039684
    3    3   10    6       -0.0001248059
    3    3   11    6       -0.0000815767
    3    3    7    7        0.1257314861
    3    3    8    7        0.0000011873
    3    3    9    7       -0.0000011784
    3    3   10    7       -0.0004640335
    3    3   11    7        0.0002681974
    3    3    8    8        0.1208655033
    3    3    9    8        0.0000022614
    3    3   10    8        0.0004934458
    3    3   11    8        0.0005585878
    3    3    9    9        0.1363884876
    3    3   10    9       -0.0000013736
    3    3   11    9       -0.0000019459
    3    3   10   10        0.1307621252
    3    3   11   10        0.0000014143
    3    3   11   11        0.1307617740
    4    3    4    3        0.0133040721
    4    3    5    3        0.0000042865
    4    3    6    3        0.0000638852
    4    3    7    3       -0.0002611547
    4    3    8    3        0.0001870268
    4    3    9    3       -0.0000001677
    4    3   10    3        0.0000502170
    4    3   11    3       -0.0007038379
    4    3    4    4        0.0000029706
    4    3    5    4       -0.0000023250
    4    3    6    4        0.0002951164
    4    3    7    4        0.0000566821
    4    3    8    4       -0.0001809286
    4    3    9    4       -0.0005047434
    4    3   10    4       -0.0000029239
    4    3   11    4        0.0000024924
    4    3    5    5       -0.0000048346
    4    3    6    5       -0.0000000743
    4    3    7    5        0.0000001653
    4    3    8    5       -0.0000000398
    4    3    9    5       -0.0000050581
    4    3   10    5       -0.0000129818
    4    3   11    5       -0.0000028557
    4    3    6    6       -0.0000029013
    4    3    7    6       -0.0000068645
    4    3    8    6        0.0000060186
    4    3    9    6       -0.0001306346
    4    3   10    6       -0.0000126266
    4    3   11    6        0.0001955787
    4    3    7    7       -0.0000099594
    4    3    8    7        0.0000089429
    4    3    9    7        0.0001815464
    4    3   10    7        0.0000044908
    4    3   11    7       -0.0000682382
    4    3    8    8       -0.0000244620
    4    3    9    8       -0.0002532257
    4    3   10    8        0.0000188978
    4    3   11    8       -0.0002971517
    4    3    9    9       -0.0000000831
    4    3   10    9        0.0004329402
    4    3   11    9       -0.0066595154
    4    3   10   10       -0.0000254916
    4    3   11   10       -0.0000057923
    4    3   11   11        0.0000046590
    5    3    5    3        0.0132976388
    5    3    6    3        0.0000857394
    5    3    7    3        0.0003071553
    5    3    8    3        0.0001726861
    5    3    9    3       -0.0000002519
    5    3   10    3       -0.0007029283
    5    3   11    3       -0.0000427393
    5    3    4    4       -0.0000070114
    5    3    5    4       -0.0000008647
    5    3    6    4        0.0000000367
    5    3    7    4        0.0000001443
    5    3    8    4       -0.0000000154
    5    3    9    4       -0.0000040697
    5    3   10    4       -0.0000024291
    5    3   11    4       -0.0000119398
    5    3    5    5        0.0000020551
    5    3    6    5        0.0002946812
    5    3    7    5       -0.0000578109
    5    3    8    5       -0.0001813158
    5    3    9    5       -0.0005024237
    5    3   10    5        0.0000013218
    5    3   11    5       -0.0000025231
    5    3    6    6       -0.0000041029
    5    3    7    6        0.0000077599
    5    3    8    6        0.0000051044
    5    3    9    6       -0.0001508528
    5    3   10    6        0.0001947874
    5    3   11    6        0.0000112962
    5    3    7    7       -0.0000124121
    5    3    8    7       -0.0000101357
    5    3    9    7       -0.0001742996
    5    3   10    7        0.0000675569
    5    3   11    7        0.0000069902
    5    3    8    8       -0.0000268311
    5    3    9    8       -0.0002766247
    5    3   10    8       -0.0002973125
    5    3   11    8       -0.0000217913
    5    3    9    9       -0.0000021053
    5    3   10    9       -0.0066570577
    5    3   11    9       -0.0004412447
    5    3   10   10       -0.0000008369
    5    3   11   10       -0.0000029449
    5    3   11   11       -0.0000280034
    6    3    6    3        0.0069788720
    6    3    7    3        0.0000003679
    6    3    8    3        0.0041644593
    6    3    9    3        0.0000002332
    6    3   10    3        0.0000124808
    6    3   11    3        0.0000179105
    6    3    4    4        0.0003123018
    6    3    5    4       -0.0000000357
    6    3    6    4        0.0000019858
    6    3    7    4       -0.0000004762
    6    3    8    4       -0.0000008051
    6    3    9    4       -0.0000290381
    6    3   10    4       -0.0000164964
    6    3   11    4        0.0002500833
    6    3    5    5        0.0003123242
    6    3    6    5        0.0000014472
    6    3    7    5       -0.0000006488
    6    3    8    5       -0.0000015166
    6    3    9    5       -0.0000484384
    6    3   10    5        0.0002489908
    6    3   11    5        0.0000082843
    6    3    6    6        0.0007311446
    6    3    7    6        0.0000004736
    6    3    8    6        0.0000774411
    6    3    9    6        0.0046848939
    6    3   10    6        0.0000008314
    6    3   11    6       -0.0000010705
    6    3    7    7        0.0002898725
    6    3    8    7       -0.0000001859
    6    3    9    7       -0.0000021627
    6    3   10    7        0.0000032291
    6    3   11    7        0.0000002640
    6    3    8    8        0.0003383880
    6    3    9    8        0.0056178980
    6    3   10    8       -0.0000036056
    6    3   11    8       -0.0000011227
    6    3    9    9       -0.0000023834
    6    3   10    9       -0.0000408136
    6    3   11    9       -0.0000179867
    6    3   10   10        0.0003223769
    6    3   11   10        0.0000009353
    6    3   11   11        0.0003211131
    7    3    7    3        0.0083037007
    7    3    8    3        0.0000028348
    7    3    9    3        0.0000002364
    7    3   10    3       -0.0000418512
    7    3   11    3        0.0000308026
    7    3    4    4        0.0000059076
    7    3    5    4       -0.0000000093
    7    3    6    4       -0.0000080381
    7    3    7    4       -0.0000024322
    7    3    8    4        0.0000059407
    7    3    9    4        0.0000587832
    7    3   10    4        0.0000037710
    7    3   11    4       -0.0000604842
    7    3    5    5       -0.0000052567
    7    3    6    5        0.0000093910
    7    3    7    5       -0.0000026153
    7    3    8    5       -0.0000070370
    7    3    9    5       -0.0000523003
    7    3   10    5        0.0000603643
    7    3   11    5        0.0000043530
    7    3    6    6        0.0000005060
    7    3    7    6        0.0001553059
    7    3    8    6        0.0000001599
    7    3    9    6       -0.0000016598
    7    3   10    6        0.0000059830
    7    3   11    6       -0.0000033280
    7    3    7    7       -0.0000015833
    7    3    8    7       -0.0000842745
    7    3    9    7       -0.0011400157
    7    3   10    7        0.0000000360
    7    3   11    7        0.0000002905
    7    3    8    8       -0.0000003742
    7    3    9    8       -0.0000025959
    7    3   10    8       -0.0000091486
    7    3   11    8        0.0000061034
    7    3    9    9        0.0000003532
    7    3   10    9       -0.0001531782
    7    3   11    9        0.0000749774
    7    3   10   10        0.0001250668
    7    3   11   10        0.0000104747
    7    3   11   11       -0.0001268237
    8    3    8    3        0.0072400565
    8    3    9    3        0.0000012125
    8    3   10    3        0.0000598173
    8    3   11    3        0.0000680029
    8    3    4    4        0.0000519124
    8    3    5    4        0.0000000409
    8    3    6    4        0.0000063268
    8    3    7    4        0.0000017065
    8    3    8    4       -0.0000058763
    8    3    9    4       -0.0000752196
    8    3   10    4        0.0000002345
    8    3   11    4       -0.0000073133
    8    3    5    5        0.0000518039
    8    3    6    5        0.0000059490
    8    3    7    5       -0.0000018173
    8    3    8    5       -0.0000069351
    8    3    9    5       -0.0000903511
    8    3   10    5       -0.0000090295
    8    3   11    5       -0.0000072125
    8    3    6    6        0.0002850867
    8    3    7    6        0.0000000105
    8    3    8    6        0.0001126565
    8    3    9    6        0.0038138242
    8    3   10    6        0.0000037062
    8    3   11    6        0.0000047011
    8    3    7    7        0.0000364836
    8    3    8    7       -0.0000005789
    8    3    9    7       -0.0000017356
    8    3   10    7        0.0000016639
    8    3   11    7       -0.0000022088
    8    3    8    8       -0.0001105083
    8    3    9    8        0.0027050769
    8    3   10    8       -0.0000096452
    8    3   11    8       -0.0000112026
    8    3    9    9        0.0000005107
    8    3   10    9       -0.0001086017
    8    3   11    9       -0.0001207207
    8    3   10   10       -0.0000554001
    8    3   11   10        0.0000053709
    8    3   11   11       -0.0000561033
    9    3    9    3        0.0207885691
    9    3   10    3       -0.0000002386
    9    3   11    3       -0.0000022994
    9    3    4    4        0.0138124833
    9    3    5    4       -0.0000140149
    9    3    6    4       -0.0001802282
    9    3    7    4        0.0002121698
    9    3    8    4        0.0000070571
    9    3    9    4       -0.0000013271
    9    3   10    4        0.0007183764
    9    3   11    4       -0.0109892575
    9    3    5    5        0.0138163857
    9    3    6    5       -0.0001748659
    9    3    7    5       -0.0001671025
    9    3    8    5       -0.0000062479
    9    3    9    5       -0.0000019182
    9    3   10    5       -0.0109919268
    9    3   11    5       -0.0007208965
    9    3    6    6        0.0121131490
    9    3    7    6       -0.0000028054
    9    3    8    6        0.0032282456
    9    3    9    6       -0.0000018807
    9    3   10    6        0.0001536668
    9    3   11    6        0.0002218854
    9    3    7    7        0.0091903958
    9    3    8    7       -0.0000001065
    9    3    9    7       -0.0000008296
    9    3   10    7        0.0002800005
    9    3   11    7       -0.0003472155
    9    3    8    8        0.0096857040
    9    3    9    8        0.0000066219
    9    3   10    8       -0.0005188076
    9    3   11    8       -0.0005876821
    9    3    9    9        0.0214738542
    9    3   10    9       -0.0000019272
    9    3   11    9       -0.0000005413
    9    3   10   10        0.0156406758
    9    3   11   10       -0.0000075433
    9    3   11   11        0.0156386803
   10    3   10    3        0.0048240243
   10    3   11    3        0.0000032796
   10    3    4    4       -0.0000012563
   10    3    5    4       -0.0000036621
   10    3    6    4       -0.0000030859
   10    3    7    4        0.0000018782
   10    3    8    4        0.0000055690
   10    3    9    4        0.0002321030
   10    3   10    4       -0.0000044980
   10    3   11    4       -0.0000030566
   10    3    5    5        0.0000003247
   10    3    6    5        0.0000481054
   10    3    7    5        0.0000310082
   10    3    8    5       -0.0000897222
   10    3    9    5       -0.0036032318
   10    3   10    5        0.0000001886
   10    3   11    5       -0.0000042793
   10    3    6    6       -0.0000003027
   10    3    7    6        0.0000007924
   10    3    8    6        0.0000003935
   10    3    9    6       -0.0000271275
   10    3   10    6        0.0000699769
   10    3   11    6        0.0000010414
   10    3    7    7       -0.0000003519
   10    3    8    7       -0.0000015604
   10    3    9    7       -0.0000187332
   10    3   10    7        0.0000581162
   10    3   11    7        0.0000031899
   10    3    8    8       -0.0000081970
   10    3    9    8       -0.0000934083
   10    3   10    8       -0.0001526470
   10    3   11    8        0.0000042502
   10    3    9    9       -0.0000008663
   10    3   10    9        0.0000478677
   10    3   11    9       -0.0000058592
   10    3   10   10        0.0000010126
   10    3   11   10       -0.0000049386
   10    3   11   11       -0.0000058497
   11    3   11    3        0.0048253560
   11    3    4    4        0.0000000938
   11    3    5    4       -0.0000030234
   11    3    6    4        0.0000479146
   11    3    7    4       -0.0000304821
   11    3    8    4       -0.0000884979
   11    3    9    4       -0.0036041542
   11    3   10    4       -0.0000048096
   11    3   11    4        0.0000045079
   11    3    5    5       -0.0000026034
   11    3    6    5        0.0000062513
   11    3    7    5        0.0000089304
   11    3    8    5       -0.0000120341
   11    3    9    5       -0.0002404424
   11    3   10    5       -0.0000025454
   11    3   11    5       -0.0000051213
   11    3    6    6       -0.0000007774
   11    3    7    6        0.0000007230
   11    3    8    6        0.0000012099
   11    3    9    6       -0.0000149292
   11    3   10    6       -0.0000064311
   11    3   11    6        0.0000697414
   11    3    7    7       -0.0000001548
   11    3    8    7       -0.0000002326
   11    3    9    7       -0.0000160539
   11    3   10    7       -0.0000084834
   11    3   11    7       -0.0000621460
   11    3    8    8       -0.0000090916
   11    3    9    8       -0.0001040173
   11    3   10    8        0.0000230800
   11    3   11    8       -0.0001534967
   11    3    9    9       -0.0000009474
   11    3   10    9       -0.0000057602
   11    3   11    9        0.0000466353
[...]
    8    5    8    8       -0.0000882869
    8    5    9    8        0.0000037122
    8    5   10    8       -0.0006873261
    8    5   11    8       -0.0022725195
    8    5    9    9       -0.0000411820
    8    5   10    9       -0.0000184693
    8    5   11    9       -0.0000619789
    8    5   10   10        0.0000446588
    8    5   11   10        0.0000256532
    8    5   11   11       -0.0001029806
    9    5    9    5        0.0045097286
    9    5   10    5       -0.0000009490
    9    5   11    5        0.0000017769
    9    5    6    6       -0.0000000370
    9    5    7    6        0.0000000615
    9    5    8    6        0.0000004074
    9    5    9    6        0.0000668278
    9    5   10    6       -0.0000060623
    9    5   11    6       -0.0000195119
    9    5    7    7        0.0000004591
    9    5    8    7        0.0000004244
    9    5    9    7       -0.0000159127
    9    5   10    7        0.0000156320
    9    5   11    7        0.0000100684
    9    5    8    8        0.0000035976
    9    5    9    8       -0.0001131463
    9    5   10    8       -0.0000184341
    9    5   11    8       -0.0000618166
    9    5    9    9       -0.0000005814
    9    5   10    9        0.0001131016
    9    5   11    9        0.0003794566
    9    5   10   10       -0.0000006178
    9    5   11   10       -0.0000011723
    9    5   11   11        0.0000025747
   10    5   10    5        0.0060994353
   10    5   11    5        0.0040319934
   10    5    6    6       -0.0029567108
   10    5    7    6        0.0007548945
   10    5    8    6       -0.0003920573
   10    5    9    6        0.0000457495
   10    5   10    6        0.0000552151
   10    5   11    6       -0.0000114369
   10    5    7    7       -0.0031961881
   10    5    8    7        0.0022387106
   10    5    9    7        0.0000082134
   10    5   10    7        0.0000204254
   10    5   11    7       -0.0000727773
   10    5    8    8       -0.0026191315
   10    5    9    8       -0.0000747166
   10    5   10    8        0.0001616426
   10    5   11    8        0.0000094488
   10    5    9    9       -0.0046004144
   10    5   10    9       -0.0000009729
   10    5   11    9       -0.0000009746
   10    5   10   10       -0.0042819321
   10    5   11   10       -0.0013934663
   10    5   11   11       -0.0051399238
   11    5   11    5        0.0169707181
   11    5    6    6       -0.0098037978
   11    5    7    6        0.0004590517
   11    5    8    6       -0.0013020416
   11    5    9    6        0.0001546368
   11    5   10    6        0.0000368639
   11    5   11    6       -0.0000670351
   11    5    7    7       -0.0106004049
   11    5    8    7        0.0013608555
   11    5    9    7        0.0000052870
   11    5   10    7        0.0001749893
   11    5   11    7       -0.0000397709
   11    5    8    8       -0.0086798423
   11    5    9    8       -0.0002517398
   11    5   10    8        0.0001506102
   11    5   11    8       -0.0002795556
   11    5    9    9       -0.0152533331
   11    5   10    9       -0.0000013289
   11    5   11    9        0.0000035047
   11    5   10   10       -0.0155081375
   11    5   11   10       -0.0008836051
   11    5   11   11       -0.0157410992
    6    6    6    6        0.1283793246
    6    6    7    6       -0.0000000369
    6    6    8    6       -0.0030246471
    6    6    9    6        0.0004556618
    6    6   10    6        0.0000217230
    6    6   11    6       -0.0001530922
    6    6    7    7        0.1186475439
    6    6    8    7        0.0000003057
    6    6    9    7        0.0000000519
    6    6   10    7        0.0003308271
    6    6   11    7        0.0000372418
    6    6    8    8        0.1141029057
    6    6    9    8       -0.0005430922
    6    6   10    8        0.0000614029
    6    6   11    8       -0.0004882295
    6    6    9    9        0.1259438116
    6    6   10    9       -0.0000000850
    6    6   11    9        0.0000000879
    6    6   10   10        0.1202097900
    6    6   11   10       -0.0000011304
    6    6   11   11        0.1202119080
    7    6    7    6        0.0045791391
    7    6    8    6       -0.0000002213
    7    6    9    6        0.0000002188
    7    6   10    6        0.0000810131
    7    6   11    6        0.0000094073
    7    6    7    7        0.0000001674
    7    6    8    7        0.0030689307
    7    6    9    7       -0.0000110285
    7    6   10    7        0.0000208163
    7    6   11    7       -0.0001580011
    7    6    8    8        0.0000000717
    7    6    9    8       -0.0000002145
    7    6   10    8        0.0001845569
    7    6   11    8        0.0000213361
    7    6    9    9        0.0000000010
    7    6   10    9        0.0000010357
    7    6   11    9        0.0000000053
    7    6   10   10        0.0007146628
    7    6   11   10       -0.0027593985
    7    6   11   11       -0.0007143533
    8    6    8    6        0.0047350533
    8    6    9    6       -0.0000461601
    8    6   10    6        0.0000025289
    8    6   11    6       -0.0000276801
    8    6    7    7        0.0031219840
    8    6    8    7        0.0000000470
    8    6    9    7       -0.0000000573
    8    6   10    7        0.0000244822
    8    6   11    7        0.0000004148
    8    6    8    8        0.0000107693
    8    6    9    8        0.0000009871
    8    6   10    8        0.0000003443
    8    6   11    8        0.0000031397
    8    6    9    9       -0.0047417969
    8    6   10    9       -0.0000000510
    8    6   11    9        0.0000008881
    8    6   10   10        0.0024304408
    8    6   11   10        0.0000002966
    8    6   11   11        0.0024279906
    9    6    9    6        0.0109916868
    9    6   10    6        0.0000001653
    9    6   11    6       -0.0000006084
    9    6    7    7        0.0001795473
    9    6    8    7        0.0000002186
    9    6    9    7       -0.0000000879
    9    6   10    7       -0.0000007786
    9    6   11    7       -0.0000012729
    9    6    8    8        0.0002771872
    9    6    9    8       -0.0119930185
    9    6   10    8        0.0000004829
    9    6   11    8       -0.0000024880
    9    6    9    9        0.0000005496
    9    6   10    9       -0.0000076956
    9    6   11    9        0.0000718457
    9    6   10   10        0.0002287557
    9    6   11   10       -0.0000001710
    9    6   11   11        0.0002284128
   10    6   10    6        0.0031663789
   10    6   11    6       -0.0000007251
   10    6    7    7        0.0000343590
   10    6    8    7        0.0000256769
   10    6    9    7        0.0000012111
   10    6   10    7        0.0010894642
   10    6   11    7       -0.0042070809
   10    6    8    8        0.0000235470
   10    6    9    8       -0.0000002966
   10    6   10    8        0.0058284179
   10    6   11    8        0.0000001979
   10    6    9    9        0.0000191397
   10    6   10    9       -0.0000546377
   10    6   11    9       -0.0000002253
   10    6   10   10       -0.0000069107
   10    6   11   10        0.0000834026
   10    6   11   11        0.0000352081
   11    6   11    6        0.0031683213
   11    6    7    7       -0.0002553889
   11    6    8    7        0.0000004103
   11    6    9    7        0.0000000782
   11    6   10    7       -0.0042082389
   11    6   11    7       -0.0010884571
   11    6    8    8       -0.0001697550
   11    6    9    8        0.0000021044
   11    6   10    8       -0.0000021649
   11    6   11    8        0.0058292542
   11    6    9    9       -0.0001280637
   11    6   10    9       -0.0000002463
   11    6   11    9       -0.0000537606
   11    6   10   10       -0.0000945743
   11    6   11   10        0.0000097347
   11    6   11   11       -0.0000612193
    7    7    7    7        0.1279078665
    7    7    8    7        0.0000007901
    7    7    9    7        0.0000000312
    7    7   10    7        0.0005132244
    7    7   11    7        0.0000593046
    7    7    8    8        0.1140756880
    7    7    9    8       -0.0002623354
    7    7   10    8        0.0000891222
    7    7   11    8       -0.0006968591
    7    7    9    9        0.1192842838
    7    7   10    9       -0.0000003204
    7    7   11    9        0.0000012915
    7    7   10   10        0.1235523827
    7    7   11   10       -0.0000008377
    7    7   11   11        0.1235508835
    8    7    8    7        0.0047505354
    8    7    9    7       -0.0000115748
    8    7   10    7        0.0000079172
    8    7   11    7       -0.0000508509
    8    7    8    8        0.0000003423
    8    7    9    8       -0.0000003440
    8    7   10    8        0.0000001634
    8    7   11    8       -0.0000030498
    8    7    9    9        0.0000006358
    8    7   10    9        0.0000017693
    8    7   11    9        0.0000002448
    8    7   10   10        0.0011004671
    8    7   11   10       -0.0042466040
    8    7   11   11       -0.0010992056
    9    7    9    7        0.0010267784
    9    7   10    7       -0.0000000957
    9    7   11    7       -0.0000002160
    9    7    8    8       -0.0000000745
    9    7    9    8        0.0000000600
    9    7   10    8        0.0000023688
    9    7   11    8        0.0000004285
    9    7    9    9       -0.0000001277
    9    7   10    9       -0.0000559861
    9    7   11    9       -0.0000070433
    9    7   10   10       -0.0000050731
    9    7   11   10        0.0000170095
    9    7   11   11        0.0000050593
   10    7   10    7        0.0094417643
   10    7   11    7        0.0000008691
   10    7    8    8        0.0003650867
   10    7    9    8        0.0000008711
   10    7   10    8        0.0029137093
   10    7   11    8       -0.0112529791
   10    7    9    9        0.0003169659
   10    7   10    9       -0.0000075078
   10    7   11    9        0.0000258315
   10    7   10   10        0.0000711555
   10    7   11   10       -0.0000039992
   10    7   11   11        0.0002416744
   11    7   11    7        0.0094383078
   11    7    8    8        0.0000410378
   11    7    9    8        0.0000016218
   11    7   10    8       -0.0112473382
   11    7   11    8       -0.0029145177
   11    7    9    9        0.0000343542
   11    7   10    9        0.0000279383
   11    7   11    9        0.0000073025
   11    7   10   10        0.0000428081
   11    7   11   10       -0.0001634602
   11    7   11   11       -0.0000249643
    8    8    8    8        0.1183860864
    8    8    9    8       -0.0004952731
    8    8   10    8        0.0000910455
    8    8   11    8       -0.0007169566
    8    8    9    9        0.1230269902
    8    8   10    9       -0.0000009318
    8    8   11    9        0.0000059664
    8    8   10   10        0.1222792213
    8    8   11   10       -0.0000019235
    8    8   11   11        0.1222861477
    9    8    9    8        0.0170908322
    9    8   10    8       -0.0000008937
    9    8   11    8        0.0000067417
    9    8    9    9       -0.0000013394
    9    8   10    9        0.0000171507
    9    8   11    9       -0.0001477694
    9    8   10   10       -0.0003933230
    9    8   11   10       -0.0000003270
    9    8   11   11       -0.0003903211
   10    8   10    8        0.0187232757
   10    8   11    8       -0.0000011543
   10    8    9    9        0.0000715402
   10    8   10    9       -0.0001120560
   10    8   11    9       -0.0000019055
   10    8   10   10       -0.0000552883
   10    8   11   10        0.0002916704
   10    8   11   11        0.0001399496
   11    8   11    8        0.0187334472
   11    8    9    9       -0.0005719395
   11    8   10    9        0.0000011064
   11    8   11    9       -0.0001091277
   11    8   10   10       -0.0001701646
   11    8   11   10        0.0000795202
   11    8   11   11       -0.0004283701
    9    9    9    9        0.1463655143
    9    9   10    9       -0.0000000550
    9    9   11    9       -0.0000014650
    9    9   10   10        0.1308837545
    9    9   11   10       -0.0000024726
    9    9   11   11        0.1308871454
   10    9   10    9        0.0050918650
   10    9   11    9       -0.0000001107
   10    9   10   10        0.0000008111
   10    9   11   10       -0.0000030940
   10    9   11   11       -0.0000024467
   11    9   11    9        0.0050948471
   11    9   10   10       -0.0000012747
   11    9   11   10       -0.0000018876
   11    9   11   11        0.0000039572
   10   10   10   10        0.1398941725
   10   10   11   10       -0.0005895091
   10   10   11   11        0.1308824140
   11   10   11   10        0.0066202276
   11   10   11   11        0.0005864428
   11   11   11   11        0.1398909471
 end_two_electron_integrals


 output epsi filename:./pspw_hf_H2.emovecs

 Total PSPW energy     :  -0.1123735753E+01


=== Spin Contamination ===

 <Sexact^2> =    0.0000000000000000     
 <S^2>      =    0.0000000000000000     



== Center of Charge ==

spin up     (    0.0000,    0.0000,    0.0000 )
spin down   (    0.0000,    0.0000,    0.0000 )
     total  (    0.0000,    0.0000,    0.0000 )
ionic       (    0.0000,    0.0000,    0.0000 )


== Molecular Dipole wrt Center of Mass ==

mu   =  (   -0.0000,   -0.0000,   -0.0000 ) au
|mu| =     0.0000 au,       0.0000 Debye

 output psi filename:./pspw_hf_H2.movecs

 Writing Crystallographic Information File:./H2.cif
   - cell not shifted (nwpw:cif_shift_cell .false.)


== Timing ==

cputime in seconds
  prologue    :   0.884746E+01
  main loop   :   0.517564E+02
  epilogue    :   0.564067E-02
  total       :   0.606095E+02
  cputime/step:   0.191690E+01       (      27 evalulations,      11 linesearches)


Time spent doing                        total          step       percent
  total time                 :   0.606097E+02  0.224480E+01       100.0 %
  i/o time                   :   0.275695E+01  0.102109E+00         4.5 %
  FFTs                       :   0.446635E+02  0.165420E+01        73.7 %
  dot products               :   0.256297E-01  0.949249E-03         0.0 %
  geodesic                   :   0.119700E-01  0.443334E-03         0.0 %
  ffm_dgemm                  :   0.137037E-02  0.507546E-04         0.0 %
  fmf_dgemm                  :   0.640829E-02  0.237344E-03         0.0 %
  mmm_dgemm                  :   0.255149E-03  0.944996E-05         0.0 %
  m_diagonalize              :   0.190285E-03  0.704759E-05         0.0 %
  local pseudopotentials     :   0.949422E-02  0.351638E-03         0.0 %
  non-local pseudopotentials :   0.530139E-01  0.196348E-02         0.1 %
  structure factors          :   0.245918E-01  0.910809E-03         0.0 %
  phase factors              :   0.721400E-05  0.267185E-06         0.0 %
  masking and packing        :   0.227406E+01  0.842245E-01         3.8 %
  queue fft                  :   0.254415E+00  0.942279E-02         0.4 %
  queue fft (serial)         :   0.149397E+00  0.553324E-02         0.2 %
  queue fft (message passing):   0.959950E-01  0.355537E-02         0.2 %
  HFX potential              :   0.124430E+02  0.460851E+00        20.5 %
  non-local psp FFM          :   0.279487E-01  0.103514E-02         0.0 %
  non-local psp FMF          :   0.648911E-02  0.240338E-03         0.0 %
  non-local psp FFM A        :   0.728085E-02  0.269661E-03         0.0 %
  non-local psp FFM B        :   0.523801E-02  0.194000E-03         0.0 %

== HFX Counters ==
  HFX Evalulations         =    27
  Lin ACE HFX Evalulations =     0


     >>>  JOB COMPLETED     AT Wed Apr 30 00:22:36 2025  <<<

 Task  times  cpu:      168.0s     wall:      168.4s
 Summary of allocated global arrays
-----------------------------------
  No active global arrays


MA_summarize_allocated_blocks: starting scan ...
MA_summarize_allocated_blocks: scan completed: 0 heap blocks, 0 stack blocks
MA usage statistics:

	allocation statistics:
					      heap	     stack
					      ----	     -----
	current number of blocks	         0	         0
	maximum number of blocks	       313	        17
	current total bytes		         0	         0
	maximum total bytes		 367819864	  89294088
	maximum total K-bytes		    367820	     89295
	maximum total M-bytes		       368	        90


                                NWChem Input Module
                                -------------------




                                     CITATION
                                     --------
                Please cite the following reference when publishing
                           results obtained with NWChem:

          E. Apra, E. J. Bylaska, W. A. de Jong, N. Govind, K. Kowalski,
       T. P. Straatsma, M. Valiev, H. J. J. van Dam, Y. Alexeev, J. Anchell,
       V. Anisimov, F. W. Aquino, R. Atta-Fynn, J. Autschbach, N. P. Bauman,
     J. C. Becca, D. E. Bernholdt, K. Bhaskaran-Nair, S. Bogatko, P. Borowski,
         J. Boschen, J. Brabec, A. Bruner, E. Cauet, Y. Chen, G. N. Chuev,
      C. J. Cramer, J. Daily, M. J. O. Deegan, T. H. Dunning Jr., M. Dupuis,
   K. G. Dyall, G. I. Fann, S. A. Fischer, A. Fonari, H. Fruchtl, L. Gagliardi,
      J. Garza, N. Gawande, S. Ghosh, K. Glaesemann, A. W. Gotz, J. Hammond,
       V. Helms, E. D. Hermes, K. Hirao, S. Hirata, M. Jacquelin, L. Jensen,
   B. G. Johnson, H. Jonsson, R. A. Kendall, M. Klemm, R. Kobayashi, V. Konkov,
      S. Krishnamoorthy, M. Krishnan, Z. Lin, R. D. Lins, R. J. Littlefield,
      A. J. Logsdail, K. Lopata, W. Ma, A. V. Marenich, J. Martin del Campo,
   D. Mejia-Rodriguez, J. E. Moore, J. M. Mullin, T. Nakajima, D. R. Nascimento,
    J. A. Nichols, P. J. Nichols, J. Nieplocha, A. Otero-de-la-Roza, B. Palmer,
    A. Panyala, T. Pirojsirikul, B. Peng, R. Peverati, J. Pittner, L. Pollack,
   R. M. Richard, P. Sadayappan, G. C. Schatz, W. A. Shelton, D. W. Silverstein,
   D. M. A. Smith, T. A. Soares, D. Song, M. Swart, H. L. Taylor, G. S. Thomas,
            V. Tipparaju, D. G. Truhlar, K. Tsemekhman, T. Van Voorhis,
      A. Vazquez-Mayagoitia, P. Verma, O. Villa, A. Vishnu, K. D. Vogiatzis,
        D. Wang, J. H. Weare, M. J. Williamson, T. L. Windus, K. Wolinski,
        A. T. Wong, Q. Wu, C. Yang, Q. Yu, M. Zacharias, Z. Zhang, Y. Zhao,
                                and R. J. Harrison
                        "NWChem: Past, present, and future
                         J. Chem. Phys. 152, 184102 (2020)
                               doi:10.1063/5.0004997

                                      AUTHORS
                                      -------
  E. Apra, E. J. Bylaska, N. Govind, K. Kowalski, M. Valiev, D. Mejia-Rodriguez,
       A. Kunitsa, N. P. Bauman, A. Panyala, W. A. de Jong, T. P. Straatsma,
   H. J. J. van Dam, D. Wang, T. L. Windus, J. Hammond, J. Autschbach, A. Woods,
    K. Bhaskaran-Nair, J. Brabec, K. Lopata, S. A. Fischer, S. Krishnamoorthy,
     M. Jacquelin, W. Ma, M. Klemm, O. Villa, Y. Chen, V. Anisimov, F. Aquino,
     S. Hirata, M. T. Hackler, E. Hermes, L. Jensen, J. E. Moore, J. C. Becca,
      V. Konjkov, T. Risthaus, M. Malagoli, A. Marenich, A. Otero-de-la-Roza,
        J. Mullin, P. Nichols, R. Peverati, J. Pittner, Y. Zhao, P.-D. Fan,
        A. Fonari, M. J. Williamson, R. J. Harrison, J. R. Rehr, M. Dupuis,
     D. Silverstein, D. M. A. Smith, J. Nieplocha, V. Tipparaju, M. Krishnan,
     B. E. Van Kuiken, A. Vazquez-Mayagoitia, M. Swart, Q. Wu, T. Van Voorhis,
     A. A. Auer, M. Nooijen, L. D. Crosby, E. Brown, G. Cisneros, G. I. Fann,
   H. Fruchtl, J. Garza, K. Hirao, R. A. Kendall, J. A. Nichols, K. Tsemekhman,
    K. Wolinski, J. Anchell, D. E. Bernholdt, P. Borowski, T. Clark, D. Clerc,
   H. Dachsel, M. J. O. Deegan, K. Dyall, D. Elwood, E. Glendening, M. Gutowski,
   A. C. Hess, J. Jaffe, B. G. Johnson, J. Ju, R. Kobayashi, R. Kutteh, Z. Lin,
   R. Littlefield, X. Long, B. Meng, T. Nakajima, S. Niu, L. Pollack, M. Rosing,
   K. Glaesemann, G. Sandrone, M. Stave, H. Taylor, G. Thomas, J. H. van Lenthe,
                               A. T. Wong, Z. Zhang.

 Total times  cpu:      168.0s     wall:      168.5s
