 argument  1 = H2-0.9.nw



============================== echo of input deck ==============================
title "swnc: e theory=pspw4 xc=hf formula=H2 charge=0 mult=1"
#machinejob:expert

echo

start pspw_hf_H2

memory heap 1200 mb stack 1200 mb global 10 mb

charge 0

geometry
H    0.00000    0.00000   -0.45000
H    0.00000    0.00000    0.45000
end

nwpw
  ### pseudopotential block begin ###
  ### pseudopotential block end   ###
  simulation_cell
     SC 15.0000
     boundary_conditions aperiodic
  end

  cutoff 50.0
  mult 1
  xc hf
  lmbfgs
  tolerances 1.0e-9 1.0e-9

  virtual 10
end
set nwpw:cif_filename H2

#set nwpw:CI_maxit_orb 15
#set nwpw:CI_maxit_linesearch 15
set pspw:HFX_screening_radius 14.0


set nwpw:2qintegrals .true.
#set nwpw:3x3_virtual .true.

task pspw energy

================================================================================


                                         
                                         


             Northwest Computational Chemistry Package (NWChem) 7.2.2
             --------------------------------------------------------


                    Environmental Molecular Sciences Laboratory
                       Pacific Northwest National Laboratory
                                Richland, WA 99352

                              Copyright (c) 1994-2022
                       Pacific Northwest National Laboratory
                            Battelle Memorial Institute

             NWChem is an open-source computational chemistry package
                        distributed under the terms of the
                      Educational Community License (ECL) 2.0
             A copy of the license is included with this distribution
                              in the LICENSE.TXT file

                                  ACKNOWLEDGMENT
                                  --------------

            This software and its documentation were developed at the
            EMSL at Pacific Northwest National Laboratory, a multiprogram
            national laboratory, operated for the U.S. Department of Energy
            by Battelle under Contract Number DE-AC05-76RL01830. Support
            for this work was provided by the Department of Energy Office
            of Biological and Environmental Research, Office of Basic
            Energy Sciences, and the Office of Advanced Scientific Computing.


           Job information
           ---------------

    hostname        = LAPTOP-JJQSTSEL
    program         = nwchem
    date            = Wed Apr 30 10:09:22 2025

    compiled        = Fri_Jun_07_07:50:04_2024
    source          = /home/conda/feedstock_root/build_artifacts/nwchem_1717738148552/work
    nwchem branch   = 7.2.2
    nwchem revision = 64ba0f0
    ga revision     = 5.8.0
    use scalapack   = T
    input           = H2-0.9.nw
    prefix          = pspw_hf_H2.
    data base       = ./pspw_hf_H2.db
    status          = startup
    nproc           =        1
    time left       =     -1s



           Memory information
           ------------------

    heap     =  157286400 doubles =   1200.0 Mbytes
    stack    =  157286397 doubles =   1200.0 Mbytes
    global   =    1310720 doubles =     10.0 Mbytes (distinct from heap & stack)
    total    =  315883517 doubles =   2410.0 Mbytes
    verify   = yes
    hardfail = no 


           Directory information
           ---------------------

  0 permanent = .
  0 scratch   = .




                                NWChem Input Module
                                -------------------


               swnc: e theory=pspw4 xc=hf formula=H2 charge=0 mult=1
               -----------------------------------------------------

 Scaling coordinates for geometry "geometry" by  1.889725989
 (inverse scale =  0.529177249)

 ORDER OF PRIMARY AXIS IS BEING SET TO 4
 D4H symmetry detected

          ------
          auto-z
          ------
  no constraints, skipping    0.0000000000000000     
  no constraints, skipping    0.0000000000000000     


                             Geometry "geometry" -> ""
                             -------------------------

 Output coordinates in angstroms (scale by  1.889725989 to convert to a.u.)

  No.       Tag          Charge          X              Y              Z
 ---- ---------------- ---------- -------------- -------------- --------------
    1 H                    1.0000     0.00000000     0.00000000    -0.45000000
    2 H                    1.0000     0.00000000     0.00000000     0.45000000

      Atomic Mass 
      ----------- 

      H                  1.007825


 Effective nuclear repulsion energy (a.u.)       0.5879747211

            Nuclear Dipole moment (a.u.) 
            ----------------------------
        X                 Y               Z
 ---------------- ---------------- ----------------
     0.0000000000     0.0000000000     0.0000000000

      Symmetry information
      --------------------

 Group name             D4h       
 Group number             28
 Group order              16
 No. of unique centers     1

      Symmetry unique atoms

     1



                                Z-matrix (autoz)
                                -------- 

 Units are Angstrom for bonds and degrees for angles

      Type          Name      I     J     K     L     M      Value
      ----------- --------  ----- ----- ----- ----- ----- ----------
    1 Stretch                  1     2                       0.90000


            XYZ format geometry
            -------------------
     2
 geometry
 H                     0.00000000     0.00000000    -0.45000000
 H                     0.00000000     0.00000000     0.45000000

          ****************************************************
          *                                                  *
          *               NWPW PSPW Calculation              *
          *                                                  *
          * [ (Grassmann/Stiefel manifold implementation)  ] *
          *                                                  *
          *      [ NorthWest Chemistry implementation ]      *
          *                                                  *
          *            version #5.10   06/12/02              *
          *                                                  *
          *    This code was developed by Eric J. Bylaska,   *
          *    and was based upon algorithms and code        *
          *    developed by the group of Prof. John H. Weare *
          *                                                  *
          ****************************************************
     >>>  JOB STARTED       AT Wed Apr 30 10:09:22 2025  <<<
          ================ input data ========================

 input psi filename:./pspw_hf_H2.movecs

 number of processors used:         1
 processor grid           :   1 x   1
 parallel mapping         :2d-hilbert
 parallel mapping         :  balanced
 number of threads        :         1
 parallel io              :       off

 options:
      boundary conditions  = aperiodic   (version4)
      electron spin        = restricted
      exchange-correlation = Hartree-Fock
      - HFX relaxed
      - HFX restricted orbitals :    1
      - HFX free-space coulomb solver


 elements involved in the cluster:
      1: H   valence charge:  1.0000  lmax=  1
             comment    : Parameterized (Chem.Phys.Lett., vol 322, page 447) Hamman psp
             pseudpotential type            :   0
             highest angular component      :   1
             local potential used           :   1
             number of non-local projections:   1
             aperiodic cutoff radius        :  1.000
             cutoff =   0.800   0.800


 total charge:   0.000

 atomic composition:
     H   :    2

 number of electrons: spin up=     1 (   1 per task)  down=     1 (   1 per task) (Fourier space)
 number of orbitals : spin up=     1 (   1 per task)  down=     1 (   1 per task) (Fourier space)

 supercell:
      cell_name:  cell_default                                      
      lattice:    a1=<  15.000   0.000   0.000 >
                  a2=<   0.000  15.000   0.000 >
                  a3=<   0.000   0.000  15.000 >
      reciprocal: b1=<   0.419   0.000   0.000 >
                  b2=<   0.000   0.419   0.000 >
                  b3=<   0.000   0.000   0.419 >
      lattice:    a=      15.000 b=     15.000 c=      15.000
                  alpha=  90.000 beta=  90.000 gamma=  90.000
                  omega=      3375.0

      density cutoff=100.000  fft= 70x 70x 70(    80618 waves    80618 per task)
      wavefnc cutoff= 50.000  fft= 70x 70x 70(    28526 waves    28526 per task)

 technical parameters:
      time step=      5.80     fictitious mass=  400000.0
      tolerance=0.100E-08 (energy)   0.100E-08 (density)
      maximum iterations =      1000 (   10 inner    100 outer )





== Energy Calculation ==


          ============ Grassmann lmbfgs iteration ============
     >>>  ITERATION STARTED AT Wed Apr 30 10:09:29 2025  <<<
    iter.           Energy         DeltaE       DeltaRho 
    ------------------------------------------------------
      10   -0.1119265884E+01   -0.69851E-04    0.19046E-02
      20   -0.1119416714E+01   -0.19044E-05    0.30205E-05
      30   -0.1119421476E+01   -0.73912E-07    0.58017E-08
      40   -0.1119421638E+01   -0.16403E-08    0.15739E-10
      50   -0.1119421640E+01   -0.81329E-09    0.36217E-12
  *** tolerance ok. iteration terminated
     >>>  ITERATION ENDED   AT Wed Apr 30 10:09:56 2025  <<<


==  Summary Of Results  ==

 number of electrons: spin up=    1.00000  down=    1.00000 (real space)

 total     energy    :  -0.1119421640E+01 (   -0.55971E+00/ion)
 total orbital energy:  -0.1101846665E+01 (   -0.11018E+01/electron)
 hartree   energy    :   0.1211099392E+01 (    0.12111E+01/electron)
 exc-corr  energy    :   0.0000000000E+00 (    0.00000E+00/electron)
 HF exchange energy  :  -0.6055496958E+00 (   -0.60555E+00/electron)
 ion-ion   energy    :   0.5879747211E+00 (    0.29399E+00/ion)

 kinetic (planewave) :   0.9357409318E+00 (    0.93574E+00/electron)
 V_local (planewave) :  -0.2987518388E+01 (   -0.29875E+01/electron)
 V_nl    (planewave) :  -0.2611686006E+00 (   -0.26117E+00/electron)
 V_Coul  (planewave) :   0.2422198783E+01 (    0.24222E+01/electron)
 V_xc.   (planewave) :   0.0000000000E+00 (    0.00000E+00/electron)
 K.S. HFX energy     :  -0.1211099392E+01 (   -0.12111E+01/electron)
 Virial Coefficient  :  -0.8832446858E+00

 orbital energies:
    -0.5509233E+00 ( -14.992eV)


== Virtual Orbital Calculation ==


 input epsi filename:./pspw_hf_H2.emovecs
     orbital   1 current e= 0.695E-02 (error=0.811E-09) iterations  43(  17 preconditioned, Ep,Sp= 20.0  200.0)
     orbital   2 current e= 0.774E-01 (error=0.862E-09) iterations  69(  31 preconditioned, Ep,Sp= 20.0  200.0)
     orbital   3 current e= 0.854E-01 (error=0.949E-09) iterations  41(   6 preconditioned, Ep,Sp= 20.0  200.0)
     orbital   4 current e= 0.854E-01 (error=0.949E-09) iterations  41(   6 preconditioned, Ep,Sp= 20.0  200.0)
     orbital   5 current e= 0.871E-01 (error=0.851E-09) iterations  39(   3 preconditioned, Ep,Sp= 20.0  200.0)
     orbital   6 current e= 0.879E-01 (error=0.855E-09) iterations  24(   1 preconditioned, Ep,Sp= 20.0  200.0)
     orbital   7 current e= 0.113E+00 (error=0.757E-09) iterations  58(  28 preconditioned, Ep,Sp= 20.0  200.0)
     orbital   8 current e= 0.147E+00 (error=0.852E-09) iterations  68(  42 preconditioned, Ep,Sp= 20.0  200.0)
     orbital   9 current e= 0.169E+00 (error=0.931E-09) iterations  89(  13 preconditioned, Ep,Sp= 20.0  200.0)
     orbital  10 current e= 0.169E+00 (error=0.931E-09) iterations  89(  13 preconditioned, Ep,Sp= 20.0  200.0)

 virtual orbital energies:
     0.1692031E+00 (   4.604eV)
     0.1692031E+00 (   4.604eV)
     0.1474896E+00 (   4.013eV)
     0.1129288E+00 (   3.073eV)
     0.8791132E-01 (   2.392eV)
     0.8705723E-01 (   2.369eV)
     0.8539970E-01 (   2.324eV)
     0.8539970E-01 (   2.324eV)
     0.7739610E-01 (   2.106eV)
     0.6946662E-02 (   0.189eV)


 == Generating One-Electron and Two-Electron Integrals ==

 begin_one_electron_integrals
    1    1        -1.1564730284
    2    1        -0.0327685425
    3    1         0.0000002800
    4    1        -0.0000002757
    5    1         0.0000006273
    6    1        -0.0028598757
    7    1         0.0000001101
    8    1        -0.0448891954
    9    1        -0.0000013832
   10    1        -0.0000010651
   11    1         0.0000003028
    2    2        -0.2697732374
    3    2         0.0000024330
    4    2         0.0000001044
    5    2        -0.0000002374
    6    2        -0.0024316949
    7    2         0.0000000675
    8    2        -0.0669960273
    9    2         0.0000006061
   10    2        -0.0000004071
   11    2        -0.0000001562
    3    3        -0.3024831786
    4    3         0.0000000022
    5    3         0.0000000001
    6    3        -0.0000103651
    7    3        -0.0000003685
    8    3        -0.0000001313
    9    3        -0.1435439687
   10    3        -0.0000000504
   11    3         0.0000000327
    4    4        -0.2340126379
    5    4         0.0000000003
    6    4         0.0000038298
    7    4        -0.0000105346
    8    4        -0.0000002717
    9    4         0.0000000086
   10    4         0.0311788825
   11    4         0.0884127896
    5    5        -0.2340126379
    6    5        -0.0000087202
    7    5        -0.0000046233
    8    5         0.0000006383
    9    5        -0.0000000190
   10    5         0.0884127894
   11    5        -0.0311788833
    6    6        -0.1923462812
    7    6         0.0000000515
    8    6        -0.0009526615
    9    6        -0.0000145090
   10    6         0.0000142301
   11    6        -0.0000133344
    7    7        -0.1888044789
    8    7         0.0000001079
    9    7        -0.0000005598
   10    7         0.0000147571
   11    7         0.0000157595
    8    8        -0.1712711280
    9    8        -0.0000008824
   10    8        -0.0000014301
   11    8         0.0000001967
    9    9        -0.2624574972
   10    9        -0.0000000666
   11    9         0.0000000380
   10   10        -0.1842086788
   11   10         0.0000000005
   11   11        -0.1842086765
 end_one_electron_integrals

 begin_two_electron_integrals
    1    1    1    1        0.6055496958
    1    1    2    1        0.0327770385
    1    1    3    1       -0.0000002783
    1    1    4    1        0.0000002755
    1    1    5    1       -0.0000006270
    1    1    6    1        0.0028562709
    1    1    7    1       -0.0000001101
    1    1    8    1        0.0448785722
    1    1    9    1        0.0000013840
    1    1   10    1        0.0000010652
    1    1   11    1       -0.0000003029
    1    1    2    2        0.1397532029
    1    1    3    2       -0.0000017743
    1    1    4    2       -0.0000001541
    1    1    5    2        0.0000003510
    1    1    6    2        0.0013464107
    1    1    7    2       -0.0000000396
    1    1    8    2        0.0354697729
    1    1    9    2       -0.0000009108
    1    1   10    2       -0.0000000395
    1    1   11    2        0.0000003379
    1    1    3    3        0.1960605490
    1    1    4    3       -0.0000000012
    1    1    5    3        0.0000000000
    1    1    6    3        0.0000049979
    1    1    7    3        0.0000002105
    1    1    8    3       -0.0000002550
    1    1    9    3        0.0802225020
    1    1   10    3        0.0000000293
    1    1   11    3       -0.0000000187
    1    1    4    4        0.1609562187
    1    1    5    4       -0.0000000001
    1    1    6    4       -0.0000019301
    1    1    7    4        0.0000051815
    1    1    8    4        0.0000000909
    1    1    9    4       -0.0000000047
    1    1   10    4       -0.0162521352
    1    1   11    4       -0.0460855709
    1    1    5    5        0.1609562186
    1    1    6    5        0.0000043946
    1    1    7    5        0.0000022740
    1    1    8    5       -0.0000002171
    1    1    9    5        0.0000000101
    1    1   10    5       -0.0460855707
    1    1   11    5        0.0162521355
    1    1    6    6        0.1398129688
    1    1    7    6       -0.0000000265
    1    1    8    6        0.0006605683
    1    1    9    6        0.0000071722
    1    1   10    6       -0.0000072134
    1    1   11    6        0.0000067625
    1    1    7    7        0.1384254358
    1    1    8    7       -0.0000000642
    1    1    9    7        0.0000003215
    1    1   10    7       -0.0000073469
    1    1   11    7       -0.0000078459
    1    1    8    8        0.1449384987
    1    1    9    8        0.0000001555
    1    1   10    8        0.0000006216
    1    1   11    8        0.0000000386
    1    1    9    9        0.2167525267
    1    1   10    9        0.0000000368
    1    1   11    9       -0.0000000209
    1    1   10   10        0.1799332576
    1    1   11   10       -0.0000000002
    1    1   11   11        0.1799332563
    2    1    2    1        0.0027865067
    2    1    3    1       -0.0000011220
    2    1    4    1       -0.0000002040
    2    1    5    1        0.0000004648
    2    1    6    1        0.0002618153
    2    1    7    1       -0.0000000103
    2    1    8    1        0.0039624821
    2    1    9    1       -0.0000012184
    2    1   10    1       -0.0000004864
    2    1   11    1        0.0000005190
    2    1    2    2        0.0005072968
    2    1    3    2        0.0000030930
    2    1    4    2        0.0000014433
    2    1    5    2       -0.0000032883
    2    1    6    2       -0.0000142031
    2    1    7    2       -0.0000000018
    2    1    8    2        0.0007283499
    2    1    9    2       -0.0000004133
    2    1   10    2        0.0000003891
    2    1   11    2       -0.0000003530
    2    1    3    3        0.0024148154
    2    1    4    3       -0.0000000012
    2    1    5    3        0.0000000025
    2    1    6    3        0.0000021455
    2    1    7    3        0.0000000121
    2    1    8    3        0.0000010091
    2    1    9    3        0.0031426088
    2    1   10    3        0.0000000018
    2    1   11    3       -0.0000000012
    2    1    4    4        0.0008468865
    2    1    5    4        0.0000000014
    2    1    6    4       -0.0000004424
    2    1    7    4        0.0000016958
    2    1    8    4        0.0000003346
    2    1    9    4        0.0000000006
    2    1   10    4       -0.0004075552
    2    1   11    4       -0.0011556906
    2    1    5    5        0.0008468838
    2    1    6    5        0.0000010077
    2    1    7    5        0.0000007443
    2    1    8    5       -0.0000007625
    2    1    9    5       -0.0000000014
    2    1   10    5       -0.0011556911
    2    1   11    5        0.0004075565
    2    1    6    6        0.0002029329
    2    1    7    6       -0.0000000004
    2    1    8    6        0.0000063783
    2    1    9    6        0.0000019155
    2    1   10    6       -0.0000009672
    2    1   11    6        0.0000009064
    2    1    7    7        0.0002156643
    2    1    8    7       -0.0000000027
    2    1    9    7        0.0000000176
    2    1   10    7       -0.0000017601
    2    1   11    7       -0.0000018794
    2    1    8    8        0.0010748547
    2    1    9    8        0.0000020980
    2    1   10    8        0.0000021549
    2    1   11    8       -0.0000020004
    2    1    9    9        0.0043883408
    2    1   10    9        0.0000000008
    2    1   11    9       -0.0000000000
    2    1   10   10        0.0019423670
    2    1   11   10        0.0000000009
    2    1   11   11        0.0019423671
    3    1    3    1        0.0122418228
    3    1    4    1       -0.0000000006
    3    1    5    1        0.0000000005
    3    1    6    1       -0.0000003611
    3    1    7    1        0.0000000688
    3    1    8    1       -0.0000006446
    3    1    9    1        0.0169032252
    3    1   10    1        0.0000000081
    3    1   11    1       -0.0000000047
    3    1    2    2        0.0000941131
    3    1    3    2       -0.0059681698
    3    1    4    2        0.0000000075
    3    1    5    2       -0.0000000170
    3    1    6    2        0.0001131874
    3    1    7    2        0.0000000027
    3    1    8    2       -0.0000279572
    3    1    9    2       -0.0004085296
    3    1   10    2        0.0000000083
    3    1   11    2       -0.0000000079
    3    1    3    3        0.0000010608
    3    1    4    3       -0.0000000815
    3    1    5    3        0.0000001847
    3    1    6    3       -0.0039175371
    3    1    7    3        0.0000000103
    3    1    8    3       -0.0040113658
    3    1    9    3        0.0000005898
    3    1   10    3       -0.0000000963
    3    1   11    3        0.0000000442
    3    1    4    4        0.0000756694
    3    1    5    4       -0.0000000004
    3    1    6    4        0.0000000055
    3    1    7    4       -0.0000000013
    3    1    8    4        0.0000000052
    3    1    9    4       -0.0000005116
    3    1   10    4        0.0000203190
    3    1   11    4        0.0000575924
    3    1    5    5        0.0000756689
    3    1    6    5       -0.0000000122
    3    1    7    5       -0.0000000007
    3    1    8    5       -0.0000000120
    3    1    9    5        0.0000012681
    3    1   10    5        0.0000575927
    3    1   11    5       -0.0000203099
    3    1    6    6        0.0001703596
    3    1    7    6        0.0000000087
    3    1    8    6        0.0000212028
    3    1    9    6       -0.0043023426
    3    1   10    6        0.0000000197
    3    1   11    6       -0.0000000197
    3    1    7    7        0.0000709212
    3    1    8    7        0.0000000062
    3    1    9    7        0.0000000087
    3    1   10    7        0.0000000037
    3    1   11    7        0.0000000091
    3    1    8    8        0.0001014921
    3    1    9    8       -0.0041592643
    3    1   10    8       -0.0000000043
    3    1   11    8        0.0000000037
    3    1    9    9        0.0000000260
    3    1   10    9       -0.0000001246
    3    1   11    9        0.0000000511
    3    1   10   10        0.0000840907
    3    1   11   10       -0.0000000029
    3    1   11   11        0.0000840938
    4    1    4    1        0.0025000989
    4    1    5    1        0.0000000000
    4    1    6    1       -0.0000000305
    4    1    7    1       -0.0000001712
    4    1    8    1       -0.0000000900
    4    1    9    1       -0.0000000010
    4    1   10    1       -0.0013256286
    4    1   11    1       -0.0037590350
    4    1    2    2        0.0000306722
    4    1    3    2       -0.0000000017
    4    1    4    2       -0.0036933574
    4    1    5    2        0.0000000014
    4    1    6    2       -0.0000187083
    4    1    7    2        0.0000734925
    4    1    8    2       -0.0000090338
    4    1    9    2        0.0000000060
    4    1   10    2        0.0004626571
    4    1   11    2        0.0013119196
    4    1    3    3        0.0000179058
    4    1    4    3        0.0000006786
    4    1    5    3       -0.0000000017
    4    1    6    3        0.0000000002
    4    1    7    3       -0.0000000086
    4    1    8    3        0.0000000039
    4    1    9    3       -0.0000214489
    4    1   10    3        0.0000000768
    4    1   11    3        0.0000001958
    4    1    4    4       -0.0000077152
    4    1    5    4        0.0000182180
    4    1    6    4        0.0008051579
    4    1    7    4       -0.0011187035
    4    1    8    4       -0.0021680834
    4    1    9    4       -0.0000001785
    4    1   10    4        0.0000151293
    4    1   11    4       -0.0000149007
    4    1    5    5        0.0000327363
    4    1    6    5       -0.0000000031
    4    1    7    5        0.0010288710
    4    1    8    5       -0.0000000047
    4    1    9    5        0.0000000002
    4    1   10    5        0.0000368750
    4    1   11    5        0.0000067558
    4    1    6    6        0.0000312839
    4    1    7    6       -0.0000322857
    4    1    8    6       -0.0000032858
    4    1    9    6       -0.0000000029
    4    1   10    6       -0.0004046187
    4    1   11    6       -0.0011473594
    4    1    7    7        0.0000479683
    4    1    8    7        0.0000123669
    4    1    9    7        0.0000000137
    4    1   10    7       -0.0009944172
    4    1   11    7        0.0023224737
    4    1    8    8        0.0000341269
    4    1    9    8       -0.0000000051
    4    1   10    8        0.0011710983
    4    1   11    8        0.0033208567
    4    1    9    9        0.0000305896
    4    1   10    9       -0.0000000774
    4    1   11    9       -0.0000002198
    4    1   10   10        0.0000529600
    4    1   11   10        0.0000023613
    4    1   11   11       -0.0000200834
    5    1    5    1        0.0025000987
    5    1    6    1        0.0000000690
    5    1    7    1       -0.0000000751
    5    1    8    1        0.0000002043
    5    1    9    1        0.0000000014
    5    1   10    1       -0.0037590350
    5    1   11    1        0.0013256284
    5    1    2    2       -0.0000698808
    5    1    3    2        0.0000000036
    5    1    4    2        0.0000000015
    5    1    5    2       -0.0036933601
    5    1    6    2        0.0000426236
    5    1    7    2        0.0000322575
    5    1    8    2        0.0000205821
    5    1    9    2       -0.0000000137
    5    1   10    2        0.0013119128
    5    1   11    2       -0.0004626405
    5    1    3    3       -0.0000407956
    5    1    4    3       -0.0000000016
    5    1    5    3        0.0000006751
    5    1    6    3        0.0000000001
    5    1    7    3       -0.0000000025
    5    1    8    3       -0.0000000090
    5    1    9    3        0.0000489295
    5    1   10    3        0.0000002022
    5    1   11    3       -0.0000000688
    5    1    4    4       -0.0000368612
    5    1    5    4        0.0000085609
    5    1    6    4       -0.0000000031
    5    1    7    4        0.0010288671
    5    1    8    4       -0.0000000047
    5    1    9    4        0.0000000001
    5    1   10    4       -0.0000036782
    5    1   11    4       -0.0000365455
    5    1    5    5       -0.0000201448
    5    1    6    5        0.0008051619
    5    1    7    5        0.0011187075
    5    1    8    5       -0.0021680737
    5    1    9    5       -0.0000001778
    5    1   10    5       -0.0000140994
    5    1   11    5        0.0000138871
    5    1    6    6       -0.0000712748
    5    1    7    6       -0.0000141709
    5    1    8    6        0.0000074865
    5    1    9    6        0.0000000082
    5    1   10    6       -0.0011473557
    5    1   11    6        0.0004046153
    5    1    7    7       -0.0001092870
    5    1    8    7        0.0000054276
    5    1    9    7        0.0000000068
    5    1   10    7       -0.0023224927
    5    1   11    7       -0.0009944381
    5    1    8    8       -0.0000777504
    5    1    9    8        0.0000000115
    5    1   10    8        0.0033208615
    5    1   11    8       -0.0011711119
    5    1    9    9       -0.0000696800
    5    1   10    9       -0.0000002211
    5    1   11    9        0.0000000775
    5    1   10   10       -0.0000213381
    5    1   11   10        0.0000011991
    5    1   11   11       -0.0000534344
    6    1    6    1        0.0002224269
    6    1    7    1       -0.0000000013
    6    1    8    1        0.0003709347
    6    1    9    1       -0.0000001599
    6    1   10    1       -0.0000001967
    6    1   11    1        0.0000001904
    6    1    2    2        0.0000353234
    6    1    3    2        0.0000046213
    6    1    4    2       -0.0000009075
    6    1    5    2        0.0000020681
    6    1    6    2       -0.0008074268
    6    1    7    2        0.0000000000
    6    1    8    2        0.0000694676
    6    1    9    2       -0.0000004425
    6    1   10    2       -0.0000001732
    6    1   11    2        0.0000001633
    6    1    3    3       -0.0004696006
    6    1    4    3       -0.0000000007
    6    1    5    3        0.0000000016
    6    1    6    3        0.0000029384
    6    1    7    3        0.0000000010
    6    1    8    3        0.0000014952
    6    1    9    3       -0.0007510671
    6    1   10    3       -0.0000000001
    6    1   11    3       -0.0000000000
    6    1    4    4        0.0002296344
    6    1    5    4       -0.0000000023
    6    1    6    4        0.0000003071
    6    1    7    4       -0.0000008855
    6    1    8    4       -0.0000001746
    6    1    9    4        0.0000000007
    6    1   10    4       -0.0001578629
    6    1   11    4       -0.0004476449
    6    1    5    5        0.0002296383
    6    1    6    5       -0.0000006999
    6    1    7    5       -0.0000003887
    6    1    8    5        0.0000003981
    6    1    9    5       -0.0000000013
    6    1   10    5       -0.0004476439
    6    1   11    5        0.0001578619
    6    1    6    6       -0.0003023117
    6    1    7    6       -0.0000000004
    6    1    8    6       -0.0006306511
    6    1    9    6        0.0000022785
    6    1   10    6        0.0000003311
    6    1   11    6       -0.0000003120
    6    1    7    7        0.0002909168
    6    1    8    7        0.0000000004
    6    1    9    7        0.0000000005
    6    1   10    7        0.0000008884
    6    1   11    7        0.0000009483
    6    1    8    8        0.0001130234
    6    1    9    8        0.0000030153
    6    1   10    8       -0.0000011891
    6    1   11    8        0.0000011154
    6    1    9    9       -0.0005713896
    6    1   10    9       -0.0000000010
    6    1   11    9        0.0000000007
    6    1   10   10        0.0006452362
    6    1   11   10       -0.0000000012
    6    1   11   11        0.0006452366
    7    1    7    1        0.0001350692
    7    1    8    1       -0.0000000149
    7    1    9    1        0.0000000973
    7    1   10    1        0.0000000630
    7    1   11    1        0.0000000674
    7    1    2    2       -0.0000000007
    7    1    3    2       -0.0000000195
    7    1    4    2        0.0000040087
    7    1    5    2        0.0000017594
    7    1    6    2        0.0000000012
    7    1    7    2       -0.0006954810
    7    1    8    2       -0.0000000020
    7    1    9    2       -0.0000000003
    7    1   10    2       -0.0000004409
    7    1   11    2       -0.0000004708
    7    1    3    3       -0.0000000043
    7    1    4    3       -0.0000000048
    7    1    5    3       -0.0000000011
    7    1    6    3       -0.0000000148
    7    1    7    3        0.0000002333
    7    1    8    3       -0.0000000132
    7    1    9    3       -0.0000000065
    7    1   10    3       -0.0000000002
    7    1   11    3        0.0000000009
    7    1    4    4       -0.0001814837
    7    1    5    4        0.0001669089
    7    1    6    4       -0.0000009929
    7    1    7    4        0.0000008964
    7    1    8    4        0.0000008639
    7    1    9    4        0.0000000012
    7    1   10    4       -0.0002478173
    7    1   11    4        0.0005787809
    7    1    5    5        0.0001814817
    7    1    6    5       -0.0000004358
    7    1    7    5       -0.0000020423
    7    1    8    5        0.0000003791
    7    1    9    5        0.0000000009
    7    1   10    5       -0.0005787760
    7    1   11    5       -0.0002478187
    7    1    6    6        0.0000000005
    7    1    7    6        0.0002244012
    7    1    8    6        0.0000000008
    7    1    9    6       -0.0000000164
    7    1   10    6        0.0000008229
    7    1   11    6        0.0000008786
    7    1    7    7        0.0000000009
    7    1    8    7       -0.0005282945
    7    1    9    7       -0.0000001302
    7    1   10    7        0.0000019209
    7    1   11    7       -0.0000018012
    7    1    8    8       -0.0000000025
    7    1    9    8       -0.0000000134
    7    1   10    8       -0.0000023001
    7    1   11    8       -0.0000024561
    7    1    9    9       -0.0000000098
    7    1   10    9        0.0000000010
    7    1   11    9        0.0000000023
    7    1   10   10        0.0006918623
    7    1   11   10        0.0000453970
    7    1   11   11       -0.0006918697
    8    1    8    1        0.0056770351
    8    1    9    1       -0.0000005788
    8    1   10    1       -0.0000001891
    8    1   11    1        0.0000002692
    8    1    2    2        0.0005553254
    8    1    3    2        0.0000013613
    8    1    4    2        0.0000006290
    8    1    5    2       -0.0000014321
    8    1    6    2       -0.0000015993
    8    1    7    2       -0.0000000024
    8    1    8    2        0.0007971013
    8    1    9    2        0.0000000677
    8    1   10    2        0.0000004639
    8    1   11    2       -0.0000004211
    8    1    3    3        0.0027898415
    8    1    4    3        0.0000000015
    8    1    5    3       -0.0000000037
    8    1    6    3        0.0000013617
    8    1    7    3        0.0000000157
    8    1    8    3        0.0000007247
    8    1    9    3        0.0037994010
    8    1   10    3        0.0000000016
    8    1   11    3       -0.0000000009
    8    1    4    4        0.0008305693
    8    1    5    4       -0.0000000018
    8    1    6    4       -0.0000002957
    8    1    7    4        0.0000010542
    8    1    8    4        0.0000002964
    8    1    9    4       -0.0000000008
    8    1   10    4       -0.0004232618
    8    1   11    4       -0.0012002261
    8    1    5    5        0.0008305728
    8    1    6    5        0.0000006734
    8    1    7    5        0.0000004625
    8    1    8    5       -0.0000006749
    8    1    9    5        0.0000000017
    8    1   10    5       -0.0012002260
    8    1   11    5        0.0004232607
    8    1    6    6        0.0000961872
    8    1    7    6       -0.0000000003
    8    1    8    6        0.0000213461
    8    1    9    6        0.0000012861
    8    1   10    6       -0.0000006898
    8    1   11    6        0.0000006471
    8    1    7    7        0.0001160723
    8    1    8    7       -0.0000000036
    8    1    9    7        0.0000000228
    8    1   10    7       -0.0000011108
    8    1   11    7       -0.0000011865
    8    1    8    8        0.0012446337
    8    1    9    8        0.0000009474
    8    1   10    8        0.0000010369
    8    1   11    8       -0.0000009507
    8    1    9    9        0.0054190134
    8    1   10    9        0.0000000039
    8    1   11    9       -0.0000000028
    8    1   10   10        0.0021121947
    8    1   11   10       -0.0000000013
    8    1   11   11        0.0021121941
    9    1    9    1        0.0235579837
    9    1   10    1        0.0000000104
    9    1   11    1       -0.0000000059
    9    1    2    2        0.0001066044
    9    1    3    2       -0.0067053794
    9    1    4    2        0.0000000180
    9    1    5    2       -0.0000000413
    9    1    6    2        0.0001293907
    9    1    7    2        0.0000000032
    9    1    8    2       -0.0000295093
    9    1    9    2       -0.0005992720
    9    1   10    2       -0.0000000046
    9    1   11    2        0.0000000042
    9    1    3    3        0.0000013312
    9    1    4    3       -0.0000007893
    9    1    5    3        0.0000018194
    9    1    6    3       -0.0048613148
    9    1    7    3        0.0000000124
    9    1    8    3       -0.0047191235
    9    1    9    3        0.0000007212
    9    1   10    3       -0.0000003556
    9    1   11    3        0.0000002697
    9    1    4    4        0.0000857688
    9    1    5    4       -0.0000000002
    9    1    6    4        0.0000000155
    9    1    7    4        0.0000000072
    9    1    8    4       -0.0000000002
    9    1    9    4       -0.0000003219
    9    1   10    4        0.0000227107
    9    1   11    4        0.0000643735
    9    1    5    5        0.0000857690
    9    1    6    5       -0.0000000348
    9    1    7    5        0.0000000031
    9    1    8    5        0.0000000001
    9    1    9    5        0.0000008580
    9    1   10    5        0.0000643715
    9    1   11    5       -0.0000227013
    9    1    6    6        0.0001961276
    9    1    7    6        0.0000000102
    9    1    8    6        0.0000262068
    9    1    9    6       -0.0052548585
    9    1   10    6        0.0000000126
    9    1   11    6       -0.0000000133
    9    1    7    7        0.0000795983
    9    1    8    7        0.0000000075
    9    1    9    7        0.0000000109
    9    1   10    7        0.0000000022
    9    1   11    7        0.0000000086
    9    1    8    8        0.0001137248
    9    1    9    8       -0.0047649573
    9    1   10    8        0.0000000142
    9    1   11    8       -0.0000000134
    9    1    9    9        0.0000001154
    9    1   10    9       -0.0000005891
    9    1   11    9        0.0000004643
    9    1   10   10        0.0000938494
    9    1   11   10       -0.0000000036
    9    1   11   11        0.0000938502
   10    1   10    1        0.0064547802
   10    1   11    1        0.0000000000
   10    1    2    2        0.0000743889
   10    1    3    2        0.0000000090
   10    1    4    2        0.0016293289
   10    1    5    2        0.0046201838
   10    1    6    2       -0.0000458630
   10    1    7    2       -0.0000742165
   10    1    8    2       -0.0000196300
   10    1    9    2       -0.0000000063
   10    1   10    2       -0.0021692973
   10    1   11    2        0.0000000055
   10    1    3    3        0.0000436681
   10    1    4    3        0.0000001944
   10    1    5    3        0.0000005451
   10    1    6    3       -0.0000000058
   10    1    7    3       -0.0000000099
   10    1    8    3       -0.0000000037
   10    1    9    3       -0.0000515082
   10    1   10    3       -0.0000001754
   10    1   11    3       -0.0000000016
   10    1    4    4        0.0000508831
   10    1    5    4       -0.0000178016
   10    1    6    4       -0.0004087210
   10    1    7    4       -0.0008994284
   10    1    8    4        0.0010424373
   10    1    9    4       -0.0000000035
   10    1   10    4       -0.0000017574
   10    1   11    4        0.0000519017
   10    1    5    5        0.0000099374
   10    1    6    5       -0.0011589658
   10    1    7    5       -0.0021005906
   10    1    8    5        0.0029560088
   10    1    9    5       -0.0000000123
   10    1   10    5        0.0000013193
   10    1   11    5       -0.0000203054
   10    1    6    6        0.0000761648
   10    1    7    6        0.0000337589
   10    1    8    6       -0.0000091032
   10    1    9    6       -0.0000000050
   10    1   10    6        0.0017926648
   10    1   11    6       -0.0000000042
   10    1    7    7        0.0001185725
   10    1    8    7       -0.0000142479
   10    1    9    7        0.0000000009
   10    1   10    7        0.0036168273
   10    1   11    7        0.0002373248
   10    1    8    8        0.0000814415
   10    1    9    8        0.0000000057
   10    1   10    8       -0.0049811001
   10    1   11    8       -0.0000000102
   10    1    9    9        0.0000732200
   10    1   10    9       -0.0000003603
   10    1   11    9       -0.0000000012
   10    1   10   10        0.0000031336
   10    1   11   10       -0.0000019985
   10    1   11   11        0.0000747225
   11    1   11    1        0.0064547801
   11    1    2    2       -0.0000696605
   11    1    3    2       -0.0000000091
   11    1    4    2        0.0046201950
   11    1    5    2       -0.0016293024
   11    1    6    2        0.0000429526
   11    1    7    2       -0.0000792457
   11    1    8    2        0.0000183948
   11    1    9    2        0.0000000059
   11    1   10    2        0.0000000059
   11    1   11    2       -0.0021692960
   11    1    3    3       -0.0000408595
   11    1    4    3        0.0000005389
   11    1    5    3       -0.0000001897
   11    1    6    3        0.0000000044
   11    1    7    3       -0.0000000077
   11    1    8    3        0.0000000030
   11    1    9    3        0.0000482456
   11    1   10    3       -0.0000000071
   11    1   11    3       -0.0000001629
   11    1    4    4       -0.0000076371
   11    1    5    4       -0.0000201234
   11    1    6    4       -0.0011589752
   11    1    7    4        0.0021005904
   11    1    8    4        0.0029560075
   11    1    9    4       -0.0000000110
   11    1   10    4       -0.0000202891
   11    1   11    4        0.0000023214
   11    1    5    5       -0.0000493058
   11    1    6    5        0.0004087039
   11    1    7    5       -0.0008994089
   11    1    8    5       -0.0010424428
   11    1    9    5        0.0000000041
   11    1   10    5       -0.0000520327
   11    1   11    5       -0.0000025645
   11    1    6    6       -0.0000713302
   11    1    7    6        0.0000360465
   11    1    8    6        0.0000085260
   11    1    9    6        0.0000000029
   11    1   10    6       -0.0000000045
   11    1   11    6        0.0017926671
   11    1    7    7       -0.0001110467
   11    1    8    7       -0.0000152142
   11    1    9    7        0.0000000027
   11    1   10    7        0.0002373130
   11    1   11    7       -0.0036168117
   11    1    8    8       -0.0000762572
   11    1    9    8       -0.0000000057
   11    1   10    8       -0.0000000099
   11    1   11    8       -0.0049811028
   11    1    9    9       -0.0000685109
   11    1   10    9       -0.0000000009
   11    1   11    9       -0.0000003618
   11    1   10   10       -0.0000745994
   11    1   11   10       -0.0000028832
   11    1   11   11        0.0000016275
    2    2    2    2        0.1187686365
    2    2    3    2       -0.0004375963
    2    2    4    2       -0.0002549923
    2    2    5    2        0.0005809526
    2    2    6    2        0.0004135205
    2    2    7    2       -0.0000000028
    2    2    8    2        0.0094228283
    2    2    9    2        0.0001280137
    2    2   10    2        0.0000147324
    2    2   11    2       -0.0000137709
    2    2    3    3        0.1269298883
    2    2    4    3        0.0000013188
    2    2    5    3       -0.0000030041
    2    2    6    3       -0.0002114967
    2    2    7    3        0.0000000098
    2    2    8    3       -0.0000644613
    2    2    9    3        0.0089845466
    2    2   10    3       -0.0000003819
    2    2   11    3        0.0000003568
    2    2    4    4        0.1238490130
    2    2    5    4       -0.0000018134
    2    2    6    4        0.0000530578
    2    2    7    4       -0.0002127941
    2    2    8    4       -0.0000157381
    2    2    9    4       -0.0000006791
    2    2   10    4       -0.0028664422
    2    2   11    4       -0.0081267155
    2    2    5    5        0.1238523486
    2    2    6    5       -0.0001208824
    2    2    7    5       -0.0000934001
    2    2    8    5        0.0000358542
    2    2    9    5        0.0000015540
    2    2   10    5       -0.0081261649
    2    2   11    5        0.0028651567
    2    2    6    6        0.1199624116
    2    2    7    6       -0.0000000063
    2    2    8    6       -0.0000256510
    2    2    9    6       -0.0001821273
    2    2   10    6        0.0001007840
    2    2   11    6       -0.0000943892
    2    2    7    7        0.1196761923
    2    2    8    7       -0.0000000082
    2    2    9    7        0.0000000209
    2    2   10    7        0.0002238694
    2    2   11    7        0.0002390392
    2    2    8    8        0.1145167847
    2    2    9    8       -0.0003070161
    2    2   10    8       -0.0003701666
    2    2   11    8        0.0003468138
    2    2    9    9        0.1230539723
    2    2   10    9        0.0000013997
    2    2   11    9       -0.0000013096
    2    2   10   10        0.1218918645
    2    2   11   10       -0.0000012566
    2    2   11   11        0.1218917005
    3    2    3    2        0.0219181872
    3    2    4    2        0.0000010413
    3    2    5    2       -0.0000023699
    3    2    6    2       -0.0004796029
    3    2    7    2       -0.0000000061
    3    2    8    2        0.0002098837
    3    2    9    2       -0.0058511687
    3    2   10    2       -0.0000018584
    3    2   11    2        0.0000017411
    3    2    3    3       -0.0000025448
    3    2    4    3       -0.0000634038
    3    2    5    3        0.0001444564
    3    2    6    3        0.0073362840
    3    2    7    3       -0.0000000167
    3    2    8    3        0.0061995452
    3    2    9    3       -0.0000026352
    3    2   10    3       -0.0000007943
    3    2   11    3        0.0000008027
    3    2    4    4       -0.0003485400
    3    2    5    4        0.0000000076
    3    2    6    4        0.0000009888
    3    2    7    4        0.0000008550
    3    2    8    4       -0.0000008786
    3    2    9    4        0.0000352377
    3    2   10    4       -0.0001039129
    3    2   11    4       -0.0002945899
    3    2    5    5       -0.0003485502
    3    2    6    5       -0.0000022538
    3    2    7    5        0.0000003808
    3    2    8    5        0.0000020029
    3    2    9    5       -0.0000806237
    3    2   10    5       -0.0002946142
    3    2   11    5        0.0001038997
    3    2    6    6       -0.0006783433
    3    2    7    6       -0.0000000319
    3    2    8    6       -0.0000241595
    3    2    9    6        0.0104141230
    3    2   10    6       -0.0000012117
    3    2   11    6        0.0000011389
    3    2    7    7       -0.0003501463
    3    2    8    7       -0.0000000206
    3    2    9    7       -0.0000000056
    3    2   10    7       -0.0000002149
    3    2   11    7       -0.0000002445
    3    2    8    8       -0.0005390189
    3    2    9    8        0.0137588592
    3    2   10    8        0.0000024338
    3    2   11    8       -0.0000022785
    3    2    9    9       -0.0000002706
    3    2   10    9       -0.0000545042
    3    2   11    9        0.0000511136
    3    2   10   10       -0.0004494489
    3    2   11   10        0.0000000146
    3    2   11   11       -0.0004494488
    4    2    4    2        0.0243305129
    4    2    5    2       -0.0000015733
    4    2    6    2        0.0001434791
    4    2    7    2       -0.0005586301
    4    2    8    2        0.0001241776
    4    2    9    2       -0.0000014347
    4    2   10    2        0.0004078364
    4    2   11    2        0.0011618142
    4    2    3    3       -0.0001456153
    4    2    4    3       -0.0001394880
    4    2    5    3        0.0000000125
    4    2    6    3       -0.0000002194
    4    2    7    3        0.0000025237
    4    2    8    3       -0.0000008505
    4    2    9    3        0.0001852540
    4    2   10    3       -0.0000095664
    4    2   11    3       -0.0000270406
    4    2    4    4        0.0001203126
    4    2    5    4       -0.0000940953
    4    2    6    4       -0.0027421236
    4    2    7    4        0.0038140658
    4    2    8    4        0.0040706151
    4    2    9    4        0.0000467811
    4    2   10    4       -0.0001387352
    4    2   11    4        0.0001433728
    4    2    5    5       -0.0003231088
    4    2    6    5        0.0000012564
    4    2    7    5       -0.0035092049
    4    2    8    5        0.0000012714
    4    2    9    5       -0.0000000118
    4    2   10    5       -0.0003274477
    4    2   11    5       -0.0000241379
    4    2    6    6       -0.0002521379
    4    2    7    6        0.0001933165
    4    2    8    6        0.0000036342
    4    2    9    6        0.0000004734
    4    2   10    6        0.0017657726
    4    2   11    6        0.0050051839
    4    2    7    7       -0.0003512762
    4    2    8    7       -0.0000114185
    4    2    9    7       -0.0000024679
    4    2   10    7        0.0049551364
    4    2   11    7       -0.0115756046
    4    2    8    8       -0.0003241230
    4    2    9    8        0.0000015071
    4    2   10    8       -0.0059980761
    4    2   11    8       -0.0170148136
    4    2    9    9       -0.0002784676
    4    2   10    9        0.0000255138
    4    2   11    9        0.0000723654
    4    2   10   10       -0.0005001285
    4    2   11   10        0.0000128008
    4    2   11   11        0.0001950285
    5    2    5    2        0.0243334073
    5    2    6    2       -0.0003268904
    5    2    7    2       -0.0002451953
    5    2    8    2       -0.0002829159
    5    2    9    2        0.0000032707
    5    2   10    2        0.0011637074
    5    2   11    2       -0.0004122638
    5    2    3    3        0.0003317602
    5    2    4    3        0.0000000122
    5    2    5    3       -0.0001394883
    5    2    6    3        0.0000004982
    5    2    7    3        0.0000011071
    5    2    8    3        0.0000019386
    5    2    9    3       -0.0004224060
    5    2   10    3       -0.0000270823
    5    2   11    3        0.0000095489
    5    2    4    4        0.0001796598
    5    2    5    4       -0.0002029519
    5    2    6    4        0.0000012562
    5    2    7    4       -0.0035063468
    5    2    8    4        0.0000012715
    5    2    9    4       -0.0000000116
    5    2   10    4       -0.0000096512
    5    2   11    4        0.0003151940
    5    2    5    5        0.0002823731
    5    2    6    5       -0.0027444288
    5    2    7    5       -0.0038140542
    5    2    8    5        0.0040682735
    5    2    9    5        0.0000467991
    5    2   10    5        0.0001466108
    5    2   11    5       -0.0001506659
    5    2    6    6        0.0005744495
    5    2    7    6        0.0000848506
    5    2    8    6       -0.0000082819
    5    2    9    6       -0.0000010876
    5    2   10    6        0.0050044764
    5    2   11    6       -0.0017641448
    5    2    7    7        0.0008003190
    5    2    8    7       -0.0000050087
    5    2    9    7       -0.0000010840
    5    2   10    7        0.0115766929
    5    2   11    7        0.0049580841
    5    2    8    8        0.0007384464
    5    2    9    8       -0.0000034329
    5    2   10    8       -0.0170170474
    5    2   11    8        0.0060032996
    5    2    9    9        0.0006346559
    5    2   10    9        0.0000723865
    5    2   11    9       -0.0000255426
    5    2   10   10        0.0002011353
    5    2   11   10       -0.0000908586
    5    2   11   11        0.0004937108
    6    2    6    2        0.0131066684
    6    2    7    2        0.0000000007
    6    2    8    2        0.0000737437
    6    2    9    2        0.0000947531
    6    2   10    2        0.0000109101
    6    2   11    2       -0.0000102178
    6    2    3    3        0.0030053615
    6    2    4    3        0.0000006732
    6    2    5    3       -0.0000015344
    6    2    6    3       -0.0002667327
    6    2    7    3       -0.0000000127
    6    2    8    3       -0.0001155838
    6    2    9    3        0.0069164834
    6    2   10    3       -0.0000000483
    6    2   11    3        0.0000000450
    6    2    4    4        0.0001596102
    6    2    5    4        0.0000020250
    6    2    6    4       -0.0000666642
    6    2    7    4        0.0000937932
    6    2    8    4        0.0000220437
    6    2    9    4       -0.0000002897
    6    2   10    4        0.0009291354
    6    2   11    4        0.0026336056
    6    2    5    5        0.0001558862
    6    2    6    5        0.0001518823
    6    2    7    5        0.0000411677
    6    2    8    5       -0.0000502234
    6    2    9    5        0.0000006619
    6    2   10    5        0.0026332032
    6    2   11    5       -0.0009282123
    6    2    6    6        0.0014640036
    6    2    7    6        0.0000000096
    6    2    8    6        0.0051382489
    6    2    9    6       -0.0002181505
    6    2   10    6       -0.0000579902
    6    2   11    6        0.0000542486
    6    2    7    7       -0.0005390608
    6    2    8    7       -0.0000000090
    6    2    9    7       -0.0000000009
    6    2   10    7       -0.0001389695
    6    2   11    7       -0.0001483849
    6    2    8    8        0.0000696042
    6    2    9    8       -0.0003179518
    6    2   10    8        0.0002044075
    6    2   11    8       -0.0001914331
    6    2    9    9        0.0000855898
    6    2   10    9        0.0000005662
    6    2   11    9       -0.0000005304
    6    2   10   10       -0.0003296102
    6    2   11   10        0.0000011525
    6    2   11   11       -0.0003294607
    7    2    7    2        0.0130064161
    7    2    8    2       -0.0000000012
    7    2    9    2       -0.0000000105
    7    2   10    2        0.0000295169
    7    2   11    2        0.0000315174
    7    2    3    3       -0.0000000115
    7    2    4    3        0.0000029222
    7    2    5    3        0.0000012856
    7    2    6    3       -0.0000000056
    7    2    7    3       -0.0000723021
    7    2    8    3       -0.0000000106
    7    2    9    3       -0.0000000028
    7    2   10    3        0.0000001147
    7    2   11    3        0.0000001189
    7    2    4    4        0.0005353967
    7    2    5    4       -0.0004924053
    7    2    6    4        0.0000905319
    7    2    7    4       -0.0001145512
    7    2    8    4       -0.0000846383
    7    2    9    4       -0.0000011940
    7    2   10    4        0.0027019309
    7    2   11    4       -0.0063102958
    7    2    5    5       -0.0005354038
    7    2    6    5        0.0000397365
    7    2    7    5        0.0002609840
    7    2    8    5       -0.0000371484
    7    2    9    5       -0.0000005245
    7    2   10    5        0.0063102992
    7    2   11    5        0.0027018820
    7    2    6    6        0.0000000007
    7    2    7    6       -0.0008320437
    7    2    8    6       -0.0000000024
    7    2    9    6        0.0000000014
    7    2   10    6       -0.0001072011
    7    2   11    6       -0.0001144642
    7    2    7    7       -0.0000000148
    7    2    8    7        0.0047520471
    7    2    9    7        0.0000337580
    7    2   10    7       -0.0002506658
    7    2   11    7        0.0002347025
    7    2    8    8       -0.0000000017
    7    2    9    8        0.0000000084
    7    2   10    8        0.0003255724
    7    2   11    8        0.0003476336
    7    2    9    9       -0.0000000186
    7    2   10    9       -0.0000010142
    7    2   11    9       -0.0000010805
    7    2   10   10       -0.0007703282
    7    2   11   10       -0.0000505439
    7    2   11   11        0.0007703167
    8    2    8    2        0.0113799679
    8    2    9    2       -0.0001385102
    8    2   10    2       -0.0000951820
    8    2   11    2        0.0000891643
    8    2    3    3        0.0176141894
    8    2    4    3       -0.0000020080
    8    2    5    3        0.0000045750
    8    2    6    3        0.0000441801
    8    2    7    3        0.0000000087
    8    2    8    3       -0.0000450195
    8    2    9    3        0.0112729199
    8    2   10    3        0.0000008573
    8    2   11    3       -0.0000008024
    8    2    4    4        0.0137066295
    8    2    5    4        0.0000027085
    8    2    6    4       -0.0000100876
    8    2    7    4        0.0000434015
    8    2    8    4       -0.0000382177
    8    2    9    4        0.0000011381
    8    2   10    4       -0.0035821187
    8    2   11    4       -0.0101605417
    8    2    5    5        0.0137016470
    8    2    6    5        0.0000229817
    8    2    7    5        0.0000190504
    8    2    8    5        0.0000870684
    8    2    9    5       -0.0000025957
    8    2   10    5       -0.0101615561
    8    2   11    5        0.0035844950
    8    2    6    6        0.0129880485
    8    2    7    6       -0.0000000092
    8    2    8    6       -0.0001619647
    8    2    9    6        0.0000591707
    8    2   10    6       -0.0000238095
    8    2   11    6        0.0000222994
    8    2    7    7        0.0126063902
    8    2    8    7       -0.0000000048
    8    2    9    7        0.0000000256
    8    2   10    7       -0.0000695071
    8    2   11    7       -0.0000742176
    8    2    8    8        0.0061745393
    8    2    9    8        0.0001818678
    8    2   10    8        0.0001986268
    8    2   11    8       -0.0001858642
    8    2    9    9        0.0141255987
    8    2   10    9       -0.0000024269
    8    2   11    9        0.0000022735
    8    2   10   10        0.0127645055
    8    2   11   10        0.0000021424
    8    2   11   11        0.0127647878
    9    2    9    2        0.0074559945
    9    2   10    2        0.0000025933
    9    2   11    2       -0.0000024277
    9    2    3    3       -0.0000009920
    9    2    4    3        0.0000820467
    9    2    5    3       -0.0001871073
    9    2    6    3        0.0024784973
    9    2    7    3        0.0000000020
    9    2    8    3        0.0035752741
    9    2    9    3        0.0000002268
    9    2   10    3       -0.0000142493
    9    2   11    3        0.0000133670
    9    2    4    4        0.0000968959
    9    2    5    4       -0.0000000149
    9    2    6    4       -0.0000012676
    9    2    7    4       -0.0000009472
    9    2    8    4        0.0000012376
    9    2    9    4       -0.0000512813
    9    2   10    4        0.0000392300
    9    2   11    4        0.0001112794
    9    2    5    5        0.0000969226
    9    2    6    5        0.0000028867
    9    2    7    5       -0.0000004172
    9    2    8    5       -0.0000028210
    9    2    9    5        0.0001169791
    9    2   10    5        0.0001113026
    9    2   11    5       -0.0000392718
    9    2    6    6        0.0000967787
    9    2    7    6        0.0000000015
    9    2    8    6       -0.0000553162
    9    2    9    6       -0.0021625600
    9    2   10    6        0.0000015622
    9    2   11    6       -0.0000014629
    9    2    7    7        0.0001110137
    9    2    8    7        0.0000000058
    9    2    9    7       -0.0000000103
    9    2   10    7        0.0000003827
    9    2   11    7        0.0000004128
    9    2    8    8        0.0002405723
    9    2    9    8       -0.0042479211
    9    2   10    8       -0.0000035983
    9    2   11    8        0.0000033675
    9    2    9    9       -0.0000008014
    9    2   10    9        0.0000840100
    9    2   11    9       -0.0000785721
    9    2   10   10        0.0001864804
    9    2   11   10       -0.0000000307
    9    2   11   11        0.0001864748
   10    2   10    2        0.0072566028
   10    2   11    2       -0.0000027796
   10    2    3    3        0.0000011188
   10    2    4    3       -0.0000414901
   10    2    5    3       -0.0001176661
   10    2    6    3        0.0000004521
   10    2    7    3        0.0000015547
   10    2    8    3        0.0000016308
   10    2    9    3       -0.0000224984
   10    2   10    3       -0.0000484718
   10    2   11    3        0.0000000284
   10    2    4    4       -0.0001021567
   10    2    5    4       -0.0001189190
   10    2    6    4        0.0005826457
   10    2    7    4        0.0016834992
   10    2    8    4       -0.0019559577
   10    2    9    4        0.0000207932
   10    2   10    4       -0.0000663562
   10    2   11    4        0.0000165001
   10    2    5    5        0.0001056640
   10    2    6    5        0.0016472802
   10    2    7    5        0.0039278986
   10    2    8    5       -0.0055527241
   10    2    9    5        0.0000590457
   10    2   10    5        0.0000286720
   10    2   11    5       -0.0000444438
   10    2    6    6       -0.0000042982
   10    2    7    6       -0.0000394263
   10    2    8    6        0.0000401423
   10    2    9    6       -0.0000009991
   10    2   10    6       -0.0006286009
   10    2   11    6        0.0000008384
   10    2    7    7       -0.0000667362
   10    2    8    7        0.0000572028
   10    2    9    7       -0.0000015530
   10    2   10    7       -0.0006714490
   10    2   11    7       -0.0000422980
   10    2    8    8        0.0001153474
   10    2    9    8       -0.0000030828
   10    2   10    8       -0.0008484352
   10    2   11    8        0.0000035766
   10    2    9    9        0.0000601212
   10    2   10    9        0.0000886334
   10    2   11    9       -0.0000000376
   10    2   10   10        0.0000061487
   10    2   11   10       -0.0000849046
   10    2   11   11        0.0000658704
   11    2   11    2        0.0072562367
   11    2    3    3       -0.0000009579
   11    2    4    3       -0.0001176411
   11    2    5    3        0.0000415065
   11    2    6    3       -0.0000004223
   11    2    7    3        0.0000016557
   11    2    8    3       -0.0000015273
   11    2    9    3        0.0000211518
   11    2   10    3        0.0000000282
   11    2   11    3       -0.0000484703
   11    2    4    4        0.0001016593
   11    2    5    4        0.0001059203
   11    2    6    4        0.0016485708
   11    2    7    4       -0.0039289087
   11    2    8    4       -0.0055510755
   11    2    9    4        0.0000590194
   11    2   10    4        0.0000155834
   11    2   11    4        0.0000262323
   11    2    5    5       -0.0001048276
   11    2    6    5       -0.0005796399
   11    2    7    5        0.0016805842
   11    2    8    5        0.0019598107
   11    2    9    5       -0.0000208471
   11    2   10    5       -0.0000448707
   11    2   11    5        0.0000625924
   11    2    6    6        0.0000040293
   11    2    7    6       -0.0000420974
   11    2    8    6       -0.0000375945
   11    2    9    6        0.0000009363
   11    2   10    6        0.0000008379
   11    2   11    6       -0.0006284909
   11    2    7    7        0.0000625076
   11    2    8    7        0.0000610785
   11    2    9    7       -0.0000016572
   11    2   10    7       -0.0000458177
   11    2   11    7        0.0006714492
   11    2    8    8       -0.0001079326
   11    2    9    8        0.0000028873
   11    2   10    8        0.0000035789
   11    2   11    8       -0.0008479650
   11    2    9    9       -0.0000561364
   11    2   10    9       -0.0000000401
   11    2   11    9        0.0000886262
   11    2   10   10       -0.0000763803
   11    2   11   10        0.0000749316
   11    2   11   11        0.0000092434
    3    3    3    3        0.1494117573
    3    3    4    3       -0.0000000130
    3    3    5    3        0.0000000323
    3    3    6    3       -0.0000000011
    3    3    7    3        0.0000000171
    3    3    8    3       -0.0000015028
    3    3    9    3        0.0268379050
    3    3   10    3        0.0000000009
    3    3   11    3        0.0000000003
    3    3    4    4        0.1366501402
    3    3    5    4       -0.0000008242
    3    3    6    4        0.0000292335
    3    3    7    4       -0.0001278384
    3    3    8    4       -0.0000120460
    3    3    9    4        0.0000000025
    3    3   10    4       -0.0062413514
    3    3   11    4       -0.0176976500
    3    3    5    5        0.1366516561
    3    3    6    5       -0.0000666039
    3    3    7    5       -0.0000561115
    3    3    8    5        0.0000274411
    3    3    9    5       -0.0000000075
    3    3   10    5       -0.0176973949
    3    3   11    5        0.0062407566
    3    3    6    6        0.1286756398
    3    3    7    6       -0.0000000136
    3    3    8    6        0.0023475985
    3    3    9    6        0.0000015237
    3    3   10    6        0.0000550940
    3    3   11    6       -0.0000515904
    3    3    7    7        0.1277479763
    3    3    8    7       -0.0000000215
    3    3    9    7        0.0000000770
    3    3   10    7        0.0001291404
    3    3   11    7        0.0001378897
    3    3    8    8        0.1230385552
    3    3    9    8       -0.0000010088
    3    3   10    8       -0.0002080575
    3    3   11    8        0.0001951194
    3    3    9    9        0.1466975098
    3    3   10    9       -0.0000000019
    3    3   11    9        0.0000000054
    3    3   10   10        0.1364213132
    3    3   11   10       -0.0000005646
    3    3   11   11        0.1364212390
    4    3    4    3        0.0125537645
    4    3    5    3       -0.0000003389
    4    3    6    3        0.0000224438
    4    3    7    3       -0.0001520880
    4    3    8    3        0.0000357543
    4    3    9    3        0.0000000131
    4    3   10    3       -0.0006260322
    4    3   11    3       -0.0017738640
    4    3    4    4       -0.0000005879
    4    3    5    4        0.0000005046
    4    3    6    4       -0.0001449609
    4    3    7    4       -0.0000219169
    4    3    8    4        0.0000813496
    4    3    9    4       -0.0021302600
    4    3   10    4        0.0000008677
    4    3   11    4       -0.0000013337
    4    3    5    5        0.0000014668
    4    3    6    5        0.0000000034
    4    3    7    5        0.0000201611
    4    3    8    5       -0.0000000098
    4    3    9    5        0.0000005819
    4    3   10    5        0.0000030438
    4    3   11    5        0.0000000832
    4    3    6    6        0.0000005093
    4    3    7    6        0.0000021726
    4    3    8    6       -0.0000006496
    4    3    9    6       -0.0000403396
    4    3   10    6       -0.0000300817
    4    3   11    6       -0.0000853175
    4    3    7    7        0.0000017366
    4    3    8    7       -0.0000029136
    4    3    9    7        0.0001440713
    4    3   10    7       -0.0000129318
    4    3   11    7        0.0000302182
    4    3    8    8        0.0000038016
    4    3    9    8       -0.0000698032
    4    3   10    8        0.0000468792
    4    3   11    8        0.0001330410
    4    3    9    9       -0.0000000191
    4    3   10    9       -0.0020929310
    4    3   11    9       -0.0059370379
    4    3   10   10        0.0000063783
    4    3   11   10       -0.0000002241
    4    3   11   11       -0.0000025499
    5    3    5    3        0.0125543877
    5    3    6    3       -0.0000511337
    5    3    7    3       -0.0000667551
    5    3    8    3       -0.0000814594
    5    3    9    3       -0.0000000332
    5    3   10    3       -0.0017733835
    5    3   11    3        0.0006249087
    5    3    4    4       -0.0000008560
    5    3    5    4        0.0000008698
    5    3    6    4        0.0000000033
    5    3    7    4        0.0000201498
    5    3    8    4       -0.0000000097
    5    3    9    4        0.0000005814
    5    3   10    4        0.0000005945
    5    3   11    4       -0.0000025314
    5    3    5    5       -0.0000011482
    5    3    6    5       -0.0001449635
    5    3    7    5        0.0000219140
    5    3    8    5        0.0000813823
    5    3    9    5       -0.0021313298
    5    3   10    5       -0.0000015177
    5    3   11    5        0.0000019430
    5    3    6    6       -0.0000011601
    5    3    7    6        0.0000009605
    5    3    8    6        0.0000014794
    5    3    9    6        0.0000918849
    5    3   10    6       -0.0000853169
    5    3   11    6        0.0000300948
    5    3    7    7       -0.0000039609
    5    3    8    7       -0.0000012830
    5    3    9    7        0.0000632522
    5    3   10    7       -0.0000302267
    5    3   11    7       -0.0000129531
    5    3    8    8       -0.0000086604
    5    3    9    8        0.0001590036
    5    3   10    8        0.0001330569
    5    3   11    8       -0.0000469584
    5    3    9    9        0.0000000417
    5    3   10    9       -0.0059378156
    5    3   11    9        0.0020947500
    5    3   10   10       -0.0000024949
    5    3   11   10        0.0000012997
    5    3   11   11       -0.0000062289
    6    3    6    3        0.0076304588
    6    3    7    3       -0.0000000095
    6    3    8    3        0.0049363706
    6    3    9    3        0.0000007159
    6    3   10    3       -0.0000038445
    6    3   11    3        0.0000036387
    6    3    4    4       -0.0001715617
    6    3    5    4       -0.0000000039
    6    3    6    4       -0.0000001835
    6    3    7    4       -0.0000000018
    6    3    8    4        0.0000002087
    6    3    9    4       -0.0000167164
    6    3   10    4       -0.0000440319
    6    3   11    4       -0.0001248180
    6    3    5    5       -0.0001715522
    6    3    6    5        0.0000004183
    6    3    7    5        0.0000000040
    6    3    8    5       -0.0000004760
    6    3    9    5        0.0000379778
    6    3   10    5       -0.0001248065
    6    3   11    5        0.0000440077
    6    3    6    6       -0.0004067006
    6    3    7    6       -0.0000000252
    6    3    8    6       -0.0000599132
    6    3    9    6        0.0039233411
    6    3   10    6        0.0000002111
    6    3   11    6       -0.0000001958
    6    3    7    7       -0.0001609547
    6    3    8    7       -0.0000000055
    6    3    9    7       -0.0000000080
    6    3   10    7        0.0000001058
    6    3   11    7        0.0000001093
    6    3    8    8       -0.0002003076
    6    3    9    8        0.0051269903
    6    3   10    8       -0.0000006632
    6    3   11    8        0.0000006226
    6    3    9    9        0.0000017743
    6    3   10    9        0.0000234038
    6    3   11    9       -0.0000218606
    6    3   10   10       -0.0001750098
    6    3   11   10       -0.0000000105
    6    3   11   11       -0.0001750033
    7    3    7    3        0.0071938618
    7    3    8    3       -0.0000000084
    7    3    9    3        0.0000000412
    7    3   10    3        0.0000181415
    7    3   11    3        0.0000193707
    7    3    4    4       -0.0000025628
    7    3    5    4        0.0000023756
    7    3    6    4        0.0000024881
    7    3    7    4        0.0000004813
    7    3    8    4       -0.0000017307
    7    3    9    4        0.0000628480
    7    3   10    4       -0.0000111593
    7    3   11    4        0.0000260192
    7    3    5    5        0.0000026036
    7    3    6    5        0.0000010963
    7    3    7    5       -0.0000010962
    7    3    8    5       -0.0000007626
    7    3    9    5        0.0000275896
    7    3   10    5       -0.0000260647
    7    3   11    5       -0.0000111427
    7    3    6    6        0.0000000024
    7    3    7    6       -0.0000741761
    7    3    8    6       -0.0000000050
    7    3    9    6       -0.0000000092
    7    3   10    6        0.0000010217
    7    3   11    6        0.0000010918
    7    3    7    7        0.0000000489
    7    3    8    7        0.0000365911
    7    3    9    7       -0.0028042664
    7    3   10    7        0.0000000919
    7    3   11    7       -0.0000000873
    7    3    8    8        0.0000000176
    7    3    9    8       -0.0000000129
    7    3   10    8       -0.0000019107
    7    3   11    8       -0.0000020418
    7    3    9    9        0.0000000575
    7    3   10    9        0.0000377317
    7    3   11    9        0.0000403234
    7    3   10   10       -0.0000583383
    7    3   11   10       -0.0000038254
    7    3   11   11        0.0000584072
    8    3    8    3        0.0072587201
    8    3    9    3       -0.0000008563
    8    3   10    3       -0.0000248229
    8    3   11    3        0.0000232963
    8    3    4    4       -0.0000551425
    8    3    5    4       -0.0000000116
    8    3    6    4       -0.0000006967
    8    3    7    4       -0.0000004353
    8    3    8    4        0.0000008074
    8    3    9    4       -0.0000274875
    8    3   10    4       -0.0000064749
    8    3   11    4       -0.0000182755
    8    3    5    5       -0.0000551159
    8    3    6    5        0.0000015864
    8    3    7    5       -0.0000001915
    8    3    8    5       -0.0000018389
    8    3    9    5        0.0000625273
    8    3   10    5       -0.0000182648
    8    3   11    5        0.0000064193
    8    3    6    6       -0.0001993961
    8    3    7    6       -0.0000000101
    8    3    8    6       -0.0000639246
    8    3    9    6        0.0037503185
    8    3   10    6        0.0000009037
    8    3   11    6       -0.0000008450
    8    3    7    7       -0.0000470503
    8    3    8    7       -0.0000000070
    8    3    9    7       -0.0000000116
    8    3   10    7        0.0000002649
    8    3   11    7        0.0000002796
    8    3    8    8        0.0000054950
    8    3    9    8        0.0024401997
    8    3   10    8       -0.0000023985
    8    3   11    8        0.0000022453
    8    3    9    9       -0.0000005094
    8    3   10    9        0.0000521845
    8    3   11    9       -0.0000487687
    8    3   10   10       -0.0000108447
    8    3   11   10       -0.0000000259
    8    3   11   11       -0.0000108637
    9    3    9    3        0.0271697582
    9    3   10    3        0.0000000107
    9    3   11    3       -0.0000000073
    9    3    4    4        0.0149475013
    9    3    5    4        0.0000018388
    9    3    6    4       -0.0000438891
    9    3    7    4        0.0001400263
    9    3    8    4        0.0000058218
    9    3    9    4       -0.0000000085
    9    3   10    4       -0.0043529681
    9    3   11    4       -0.0123450919
    9    3    5    5        0.0149441222
    9    3    6    5        0.0001000225
    9    3    7    5        0.0000614965
    9    3    8    5       -0.0000133442
    9    3    9    5        0.0000000169
    9    3   10    5       -0.0123456365
    9    3   11    5        0.0043542482
    9    3    6    6        0.0126275425
    9    3    7    6       -0.0000000073
    9    3    8    6        0.0036157301
    9    3    9    6        0.0000015135
    9    3   10    6       -0.0000665934
    9    3   11    6        0.0000623312
    9    3    7    7        0.0084486699
    9    3    8    7       -0.0000000186
    9    3    9    7        0.0000000650
    9    3   10    7       -0.0001599571
    9    3   11    7       -0.0001706908
    9    3    8    8        0.0103745522
    9    3    9    8       -0.0000010897
    9    3   10    8        0.0002679893
    9    3   11    8       -0.0002506737
    9    3    9    9        0.0286172489
    9    3   10    9        0.0000000249
    9    3   11    9       -0.0000000190
    9    3   10   10        0.0180814596
    9    3   11   10        0.0000012504
    9    3   11   11        0.0180816189
   10    3   10    3        0.0050084990
   10    3   11    3       -0.0000007712
   10    3    4    4        0.0000003839
   10    3    5    4        0.0000007549
   10    3    6    4       -0.0000053643
   10    3    7    4       -0.0000062712
   10    3    8    4        0.0000129885
   10    3    9    4       -0.0011105256
   10    3   10    4        0.0000011397
   10    3   11    4       -0.0000000864
   10    3    5    5       -0.0000006429
   10    3    6    5       -0.0000152323
   10    3    7    5       -0.0000146076
   10    3    8    5        0.0000369304
   10    3    9    5       -0.0031520640
   10    3   10    5       -0.0000004868
   10    3   11    5        0.0000011192
   10    3    6    6       -0.0000000373
   10    3    7    6        0.0000000107
   10    3    8    6        0.0000000987
   10    3    9    6        0.0000125495
   10    3   10    6       -0.0000289902
   10    3   11    6        0.0000000034
   10    3    7    7       -0.0000000726
   10    3    8    7       -0.0000002159
   10    3    9    7       -0.0000112668
   10    3   10    7       -0.0000267812
   10    3   11    7       -0.0000017600
   10    3    8    8       -0.0000020238
   10    3    9    8        0.0000431350
   10    3   10    8        0.0000664722
   10    3   11    8       -0.0000000329
   10    3    9    9        0.0000000057
   10    3   10    9        0.0001298939
   10    3   11    9        0.0000012525
   10    3   10   10       -0.0000001073
   10    3   11   10        0.0000013804
   10    3   11   11       -0.0000009590
   11    3   11    3        0.0050083968
   11    3    4    4       -0.0000005554
   11    3    5    4       -0.0000005267
   11    3    6    4       -0.0000152347
   11    3    7    4        0.0000146220
   11    3    8    4        0.0000369182
   11    3    9    4       -0.0031512811
   11    3   10    4       -0.0000006642
   11    3   11    4       -0.0000004699
   11    3    5    5        0.0000007978
   11    3    6    5        0.0000053774
   11    3    7    5       -0.0000062515
   11    3    8    5       -0.0000130479
   11    3    9    5        0.0011123565
   11    3   10    5        0.0000008641
   11    3   11    5       -0.0000010406
   11    3    6    6        0.0000000339
   11    3    7    6        0.0000000125
   11    3    8    6       -0.0000000921
   11    3    9    6       -0.0000117028
   11    3   10    6        0.0000000095
   11    3   11    6       -0.0000289760
   11    3    7    7        0.0000000670
   11    3    8    7       -0.0000002303
   11    3    9    7       -0.0000120025
   11    3   10    7       -0.0000017358
   11    3   11    7        0.0000267714
   11    3    8    8        0.0000018945
   11    3    9    8       -0.0000403076
   11    3   10    8       -0.0000000486
   11    3   11    8        0.0000664264
   11    3    9    9       -0.0000000027
   11    3   10    9        0.0000012527
   11    3   11    9        0.0001300585
   11    3   10   10        0.0000011306
   11    3   11   10       -0.0000012254
   11    3   11   11       -0.0000001321
    4    4    4    4        0.1392037375
    4    4    5    4        0.0060241146
    4    4    6    4       -0.0000527585
    4    4    7    4       -0.0001592254
    4    4    8    4       -0.0000291487
    4    4    9    4        0.0000004984
    4    4   10    4       -0.0044333081
    4    4   11    4       -0.0139708305
    4    4    5    5        0.1257502866
    4    4    6    5        0.0000211539
    4    4    7    5       -0.0001438325
    4    4    8    5        0.0000972995
    4    4    9    5       -0.0000000443
    4    4   10    5       -0.0130142380
    4    4   11    5        0.0050830332
    4    4    6    6        0.1251574202
    4    4    7    6        0.0003425066
    4    4    8    6       -0.0006916608
    4    4    9    6       -0.0001436340
    4    4   10    6        0.0001010764
    4    4   11    6       -0.0000369537
    4    4    7    7        0.1242699202
    4    4    8    7        0.0008424012
    4    4    9    7       -0.0000015046
    4    4   10    7        0.0000758682
    4    4   11    7       -0.0000559696
    4    4    8    8        0.1192053922
    4    4    9    8       -0.0002397696
    4    4   10    8       -0.0001358708
    4    4   11    8       -0.0000693154
    4    4    9    9        0.1316291598
    4    4   10    9       -0.0000000683
    4    4   11    9        0.0000007595
    4    4   10   10        0.1295020402
    4    4   11   10        0.0038251583
    4    4   11   11        0.1328599745
    5    4    5    4        0.0077364617
    5    4    6    4       -0.0000084492
    5    4    7    4       -0.0001350610
    5    4    8    4       -0.0000457035
    5    4    9    4        0.0000000045
    5    4   10    4       -0.0000951095
    5    4   11    4        0.0005271050
    5    4    5    5       -0.0060240714
    5    4    6    5        0.0001103424
    5    4    7    5        0.0000087255
    5    4    8    5        0.0000757153
    5    4    9    5       -0.0000010056
    5    4   10    5       -0.0005270607
    5    4   11    5       -0.0000951458
    5    4    6    6       -0.0000031470
    5    4    7    6       -0.0003150103
    5    4    8    6       -0.0000019704
    5    4    9    6        0.0000000116
    5    4   10    6        0.0000078221
[...]
    8    5    8    8       -0.0000723775
    8    5    9    8        0.0000034914
    8    5   10    8       -0.0020613096
    8    5   11    8        0.0007246960
    8    5    9    9       -0.0000099700
    8    5   10    9       -0.0000635887
    8    5   11    9        0.0000224587
    8    5   10   10       -0.0000117668
    8    5   11   10        0.0000741055
    8    5   11   11       -0.0000172059
    9    5    9    5        0.0045773180
    9    5   10    5        0.0000011671
    9    5   11    5       -0.0000018160
    9    5    6    6        0.0000005474
    9    5    7    6       -0.0000003548
    9    5    8    6       -0.0000006227
    9    5    9    6       -0.0000738039
    9    5   10    6        0.0000339093
    9    5   11    6       -0.0000119663
    9    5    7    7        0.0000015505
    9    5    8    7        0.0000005760
    9    5    9    7       -0.0000287803
    9    5   10    7        0.0000211160
    9    5   11    7        0.0000090626
    9    5    8    8        0.0000053827
    9    5    9    8       -0.0001252443
    9    5   10    8       -0.0000830170
    9    5   11    8        0.0000293252
    9    5    9    9       -0.0000000090
    9    5   10    9        0.0013946867
    9    5   11    9       -0.0004931063
    9    5   10   10        0.0000013635
    9    5   11   10       -0.0000018080
    9    5   11   11        0.0000030578
   10    5   10    5        0.0172815331
   10    5   11    5       -0.0038990890
   10    5    6    6       -0.0097371096
   10    5    7    6       -0.0008762419
   10    5    8    6        0.0013136864
   10    5    9    6       -0.0001123138
   10    5   10    6        0.0000048240
   10    5   11    6       -0.0000782708
   10    5    7    7       -0.0104010202
   10    5    8    7        0.0026386453
   10    5    9    7        0.0000149148
   10    5   10    7        0.0000177205
   10    5   11    7        0.0001763616
   10    5    8    8       -0.0080586865
   10    5    9    8       -0.0002155099
   10    5   10    8       -0.0000441799
   10    5   11    8        0.0003049570
   10    5    9    9       -0.0166029005
   10    5   10    9        0.0000007402
   10    5   11    9       -0.0000023359
   10    5   10   10       -0.0172661230
   10    5   11   10       -0.0001909324
   10    5   11   11       -0.0140976090
   11    5   11    5        0.0059980521
   11    5    6    6        0.0034332963
   11    5    7    6       -0.0003751834
   11    5    8    6       -0.0004637615
   11    5    9    6        0.0000396240
   11    5   10    6       -0.0000351851
   11    5   11    6       -0.0000029491
   11    5    7    7        0.0036678809
   11    5    8    7        0.0011297899
   11    5    9    7        0.0000064155
   11    5   10    7       -0.0000801893
   11    5   11    7       -0.0000508513
   11    5    8    8        0.0028396859
   11    5    9    8        0.0000760426
   11    5   10    8        0.0001676831
   11    5   11    8       -0.0000659552
   11    5    9    9        0.0058538510
   11    5   10    9       -0.0000020706
   11    5   11    9        0.0000014503
   11    5   10   10        0.0048361675
   11    5   11   10        0.0001576330
   11    5   11   11        0.0062242886
    6    6    6    6        0.1286891336
    6    6    7    6       -0.0000000056
    6    6    8    6        0.0030367262
    6    6    9    6       -0.0003336523
    6    6   10    6        0.0000978752
    6    6   11    6       -0.0000916190
    6    6    7    7        0.1186760390
    6    6    8    7       -0.0000000025
    6    6    9    7        0.0000000201
    6    6   10    7        0.0002265730
    6    6   11    7        0.0002419262
    6    6    8    8        0.1137314854
    6    6    9    8       -0.0004478902
    6    6   10    8       -0.0003468266
    6    6   11    8        0.0003249973
    6    6    9    9        0.1255156931
    6    6   10    9        0.0000004220
    6    6   11    9       -0.0000003951
    6    6   10   10        0.1203764564
    6    6   11   10       -0.0000016851
    6    6   11   11        0.1203762415
    7    6    7    6        0.0045451803
    7    6    8    6        0.0000000092
    7    6    9    6       -0.0000000192
    7    6   10    6        0.0000509334
    7    6   11    6        0.0000543851
    7    6    7    7       -0.0000000210
    7    6    8    7       -0.0030815049
    7    6    9    7        0.0000311245
    7    6   10    7        0.0001149683
    7    6   11    7       -0.0001077165
    7    6    8    8       -0.0000000064
    7    6    9    8       -0.0000000224
    7    6   10    8       -0.0001244194
    7    6   11    8       -0.0001328509
    7    6    9    9       -0.0000000098
    7    6   10    9       -0.0000006971
    7    6   11    9       -0.0000007407
    7    6   10   10        0.0027399357
    7    6   11   10        0.0001797816
    7    6   11   11       -0.0027399583
    8    6    8    6        0.0050722287
    8    6    9    6       -0.0000477403
    8    6   10    6       -0.0000229137
    8    6   11    6        0.0000214748
    8    6    7    7       -0.0031806530
    8    6    8    7       -0.0000000034
    8    6    9    7       -0.0000000029
    8    6   10    7       -0.0000238963
    8    6   11    7       -0.0000255148
    8    6    8    8       -0.0000359309
    8    6    9    8       -0.0000095542
    8    6   10    8        0.0000072775
    8    6   11    8       -0.0000068202
    8    6    9    9        0.0033780759
    8    6   10    9       -0.0000005864
    8    6   11    9        0.0000005489
    8    6   10   10       -0.0023587517
    8    6   11   10       -0.0000012662
    8    6   11   11       -0.0023589234
    9    6    9    6        0.0077341375
    9    6   10    6       -0.0000006048
    9    6   11    6        0.0000005672
    9    6    7    7       -0.0001287964
    9    6    8    7       -0.0000000105
    9    6    9    7       -0.0000000041
    9    6   10    7       -0.0000002527
    9    6   11    7       -0.0000002727
    9    6    8    8       -0.0002176026
    9    6    9    8        0.0079662262
    9    6   10    8        0.0000014408
    9    6   11    8       -0.0000013454
    9    6    9    9        0.0000029902
    9    6   10    9       -0.0000468341
    9    6   11    9        0.0000439198
    9    6   10   10       -0.0001628146
    9    6   11   10        0.0000000258
    9    6   11   11       -0.0001628126
   10    6   10    6        0.0029094379
   10    6   11    6       -0.0000004553
   10    6    7    7        0.0001713410
   10    6    8    7       -0.0000236017
   10    6    9    7       -0.0000010128
   10    6   10    7        0.0039988073
   10    6   11    7        0.0002618730
   10    6    8    8        0.0001147393
   10    6    9    8       -0.0000017432
   10    6   10    8       -0.0051474620
   10    6   11    8       -0.0000008855
   10    6    9    9        0.0000856110
   10    6   10    9        0.0000556716
   10    6   11    9       -0.0000000136
   10    6   10   10        0.0000005298
   10    6   11   10        0.0000093518
   10    6   11   11        0.0001077546
   11    6   11    6        0.0029093846
   11    6    7    7       -0.0001605122
   11    6    8    7       -0.0000252014
   11    6    9    7       -0.0000010802
   11    6   10    7        0.0002628940
   11    6   11    7       -0.0039988012
   11    6    8    8       -0.0001074624
   11    6    9    8        0.0000016350
   11    6   10    8       -0.0000008863
   11    6   11    8       -0.0051475883
   11    6    9    9       -0.0000801172
   11    6   10    9       -0.0000000128
   11    6   11    9        0.0000556675
   11    6   10   10       -0.0001062878
   11    6   11   10       -0.0000157304
   11    6   11   11        0.0000047565
    7    7    7    7        0.1278165444
    7    7    8    7       -0.0000000089
    7    7    9    7        0.0000000026
    7    7   10    7        0.0003519128
    7    7   11    7        0.0003757585
    7    7    8    8        0.1135876048
    7    7    9    8       -0.0002260706
    7    7   10    8       -0.0004998610
    7    7   11    8        0.0004683214
    7    7    9    9        0.1204981735
    7    7   10    9        0.0000013867
    7    7   11    9       -0.0000012973
    7    7   10   10        0.1234971765
    7    7   11   10       -0.0000000161
    7    7   11   11        0.1234971708
    8    7    8    7        0.0050047330
    8    7    9    7       -0.0000206786
    8    7   10    7       -0.0000491571
    8    7   11    7        0.0000460613
    8    7    8    8       -0.0000000064
    8    7    9    8       -0.0000000131
    8    7   10    8        0.0000145450
    8    7   11    8        0.0000155343
    8    7    9    9       -0.0000000194
    8    7   10    9        0.0000011338
    8    7   11    9        0.0000012065
    8    7   10   10       -0.0042319904
    8    7   11   10       -0.0002776814
    8    7   11   11        0.0042319537
    9    7    9    7        0.0019149864
    9    7   10    7       -0.0000001521
    9    7   11    7        0.0000001405
    9    7    8    8        0.0000000267
    9    7    9    8       -0.0000000030
    9    7   10    8        0.0000020022
    9    7   11    8        0.0000021346
    9    7    9    9        0.0000000876
    9    7   10    9       -0.0000411685
    9    7   11    9       -0.0000439719
    9    7   10   10        0.0000323885
    9    7   11   10        0.0000021197
    9    7   11   11       -0.0000322738
   10    7   10    7        0.0094246416
   10    7   11    7        0.0000012098
   10    7    8    8        0.0002624628
   10    7    9    8       -0.0000005382
   10    7   10    8       -0.0111687915
   10    7   11    8       -0.0007306151
   10    7    9    9        0.0002247547
   10    7   10    9        0.0000322513
   10    7   11    9        0.0000020883
   10    7   10   10       -0.0000059601
   10    7   11   10       -0.0000642548
   10    7   11   11        0.0002338053
   11    7   11    7        0.0094247487
   11    7    8    8        0.0002802506
   11    7    9    8       -0.0000005847
   11    7   10    8       -0.0007350730
   11    7   11    8        0.0111687546
   11    7    9    9        0.0002399258
   11    7   10    9        0.0000021396
   11    7   11    9       -0.0000322413
   11    7   10   10        0.0002412546
   11    7   11   10       -0.0000522938
   11    7   11   11        0.0000021723
    8    8    8    8        0.1175467748
    8    8    9    8       -0.0004524503
    8    8   10    8       -0.0005354897
    8    8   11    8        0.0005015823
    8    8    9    9        0.1225311417
    8    8   10    9        0.0000050318
    8    8   11    9       -0.0000047100
    8    8   10   10        0.1213176023
    8    8   11   10       -0.0000044323
    8    8   11   11        0.1213170235
    9    8    9    8        0.0123000467
    9    8   10    8        0.0000045141
    9    8   11    8       -0.0000042253
    9    8    9    9        0.0000005203
    9    8   10    9       -0.0000994243
    9    8   11    9        0.0000931370
    9    8   10   10       -0.0003370461
    9    8   11   10        0.0000000667
    9    8   11   11       -0.0003370345
   10    8   10    8        0.0175232575
   10    8   11    8       -0.0000048729
   10    8    9    9       -0.0004080674
   10    8   10    9       -0.0001155759
   10    8   11    9        0.0000000861
   10    8   10   10       -0.0000220946
   10    8   11   10        0.0001173836
   10    8   11   11       -0.0004263402
   11    8   11    8        0.0175226214
   11    8    9    9        0.0003823191
   11    8   10    9        0.0000000804
   11    8   11    9       -0.0001155586
   11    8   10   10        0.0004396419
   11    8   11   10       -0.0000824032
   11    8   11   11       -0.0000191359
    9    9    9    9        0.1523406637
    9    9   10    9       -0.0000000044
    9    9   11    9        0.0000000092
    9    9   10   10        0.1337291943
    9    9   11   10       -0.0000027591
    9    9   11   11        0.1337288365
   10    9   10    9        0.0051987974
   10    9   11    9       -0.0000020527
   10    9   10   10        0.0000002448
   10    9   11   10       -0.0000021343
   10    9   11   11        0.0000037538
   11    9   11    9        0.0051985290
   11    9   10   10       -0.0000040071
   11    9   11   10        0.0000017512
   11    9   11   11        0.0000002695
   10   10   10   10        0.1423056953
   10   10   11   10        0.0001693525
   10   10   11   11        0.1288820050
   11   10   11   10        0.0041421980
   11   10   11   11       -0.0001693211
   11   11   11   11        0.1423056985
 end_two_electron_integrals


 output epsi filename:./pspw_hf_H2.emovecs

 Total PSPW energy     :  -0.1119421640E+01


=== Spin Contamination ===

 <Sexact^2> =    0.0000000000000000     
 <S^2>      =    0.0000000000000000     



== Center of Charge ==

spin up     (    0.0000,    0.0000,    0.0000 )
spin down   (    0.0000,    0.0000,    0.0000 )
     total  (    0.0000,    0.0000,    0.0000 )
ionic       (    0.0000,    0.0000,    0.0000 )


== Molecular Dipole wrt Center of Mass ==

mu   =  (   -0.0000,   -0.0000,   -0.0000 ) au
|mu| =     0.0000 au,       0.0000 Debye

 output psi filename:./pspw_hf_H2.movecs

 Writing Crystallographic Information File:./H2.cif
   - cell not shifted (nwpw:cif_shift_cell .false.)


== Timing ==

cputime in seconds
  prologue    :   0.711461E+01
  main loop   :   0.208359E+03
  epilogue    :   0.712830E-02
  total       :   0.215481E+03
  cputime/step:   0.221659E+01       (      94 evalulations,      42 linesearches)


Time spent doing                        total          step       percent
  total time                 :   0.215481E+03  0.229235E+01       100.0 %
  i/o time                   :   0.817391E-01  0.869565E-03         0.0 %
  FFTs                       :   0.186380E+03  0.198277E+01        86.5 %
  dot products               :   0.259887E+00  0.276476E-02         0.1 %
  geodesic                   :   0.412867E-01  0.439220E-03         0.0 %
  ffm_dgemm                  :   0.416286E-02  0.442858E-04         0.0 %
  fmf_dgemm                  :   0.203982E-01  0.217003E-03         0.0 %
  mmm_dgemm                  :   0.845235E-03  0.899186E-05         0.0 %
  m_diagonalize              :   0.502253E-03  0.534312E-05         0.0 %
  local pseudopotentials     :   0.100254E-01  0.106654E-03         0.0 %
  non-local pseudopotentials :   0.551502E+00  0.586705E-02         0.3 %
  structure factors          :   0.261835E+00  0.278548E-02         0.1 %
  phase factors              :   0.577100E-05  0.613936E-07         0.0 %
  masking and packing        :   0.293158E+01  0.311870E-01         1.4 %
  queue fft                  :   0.817541E+00  0.869724E-02         0.4 %
  queue fft (serial)         :   0.485174E+00  0.516143E-02         0.2 %
  queue fft (message passing):   0.303155E+00  0.322505E-02         0.1 %
  HFX potential              :   0.149917E+03  0.159486E+01        69.6 %
  non-local psp FFM          :   0.295205E+00  0.314048E-02         0.1 %
  non-local psp FMF          :   0.681863E-01  0.725386E-03         0.0 %
  non-local psp FFM A        :   0.767257E-01  0.816231E-03         0.0 %
  non-local psp FFM B        :   0.557553E-01  0.593141E-03         0.0 %

== HFX Counters ==
  HFX Evalulations         =    94
  Lin ACE HFX Evalulations =     0


     >>>  JOB COMPLETED     AT Wed Apr 30 10:13:08 2025  <<<

 Task  times  cpu:      227.1s     wall:      215.5s
 Summary of allocated global arrays
-----------------------------------
  No active global arrays


MA_summarize_allocated_blocks: starting scan ...
MA_summarize_allocated_blocks: scan completed: 0 heap blocks, 0 stack blocks
MA usage statistics:

	allocation statistics:
					      heap	     stack
					      ----	     -----
	current number of blocks	         0	         0
	maximum number of blocks	       313	        17
	current total bytes		         0	         0
	maximum total bytes		 367819864	  89294088
	maximum total K-bytes		    367820	     89295
	maximum total M-bytes		       368	        90


                                NWChem Input Module
                                -------------------




                                     CITATION
                                     --------
                Please cite the following reference when publishing
                           results obtained with NWChem:

          E. Apra, E. J. Bylaska, W. A. de Jong, N. Govind, K. Kowalski,
       T. P. Straatsma, M. Valiev, H. J. J. van Dam, Y. Alexeev, J. Anchell,
       V. Anisimov, F. W. Aquino, R. Atta-Fynn, J. Autschbach, N. P. Bauman,
     J. C. Becca, D. E. Bernholdt, K. Bhaskaran-Nair, S. Bogatko, P. Borowski,
         J. Boschen, J. Brabec, A. Bruner, E. Cauet, Y. Chen, G. N. Chuev,
      C. J. Cramer, J. Daily, M. J. O. Deegan, T. H. Dunning Jr., M. Dupuis,
   K. G. Dyall, G. I. Fann, S. A. Fischer, A. Fonari, H. Fruchtl, L. Gagliardi,
      J. Garza, N. Gawande, S. Ghosh, K. Glaesemann, A. W. Gotz, J. Hammond,
       V. Helms, E. D. Hermes, K. Hirao, S. Hirata, M. Jacquelin, L. Jensen,
   B. G. Johnson, H. Jonsson, R. A. Kendall, M. Klemm, R. Kobayashi, V. Konkov,
      S. Krishnamoorthy, M. Krishnan, Z. Lin, R. D. Lins, R. J. Littlefield,
      A. J. Logsdail, K. Lopata, W. Ma, A. V. Marenich, J. Martin del Campo,
   D. Mejia-Rodriguez, J. E. Moore, J. M. Mullin, T. Nakajima, D. R. Nascimento,
    J. A. Nichols, P. J. Nichols, J. Nieplocha, A. Otero-de-la-Roza, B. Palmer,
    A. Panyala, T. Pirojsirikul, B. Peng, R. Peverati, J. Pittner, L. Pollack,
   R. M. Richard, P. Sadayappan, G. C. Schatz, W. A. Shelton, D. W. Silverstein,
   D. M. A. Smith, T. A. Soares, D. Song, M. Swart, H. L. Taylor, G. S. Thomas,
            V. Tipparaju, D. G. Truhlar, K. Tsemekhman, T. Van Voorhis,
      A. Vazquez-Mayagoitia, P. Verma, O. Villa, A. Vishnu, K. D. Vogiatzis,
        D. Wang, J. H. Weare, M. J. Williamson, T. L. Windus, K. Wolinski,
        A. T. Wong, Q. Wu, C. Yang, Q. Yu, M. Zacharias, Z. Zhang, Y. Zhao,
                                and R. J. Harrison
                        "NWChem: Past, present, and future
                         J. Chem. Phys. 152, 184102 (2020)
                               doi:10.1063/5.0004997

                                      AUTHORS
                                      -------
  E. Apra, E. J. Bylaska, N. Govind, K. Kowalski, M. Valiev, D. Mejia-Rodriguez,
       A. Kunitsa, N. P. Bauman, A. Panyala, W. A. de Jong, T. P. Straatsma,
   H. J. J. van Dam, D. Wang, T. L. Windus, J. Hammond, J. Autschbach, A. Woods,
    K. Bhaskaran-Nair, J. Brabec, K. Lopata, S. A. Fischer, S. Krishnamoorthy,
     M. Jacquelin, W. Ma, M. Klemm, O. Villa, Y. Chen, V. Anisimov, F. Aquino,
     S. Hirata, M. T. Hackler, E. Hermes, L. Jensen, J. E. Moore, J. C. Becca,
      V. Konjkov, T. Risthaus, M. Malagoli, A. Marenich, A. Otero-de-la-Roza,
        J. Mullin, P. Nichols, R. Peverati, J. Pittner, Y. Zhao, P.-D. Fan,
        A. Fonari, M. J. Williamson, R. J. Harrison, J. R. Rehr, M. Dupuis,
     D. Silverstein, D. M. A. Smith, J. Nieplocha, V. Tipparaju, M. Krishnan,
     B. E. Van Kuiken, A. Vazquez-Mayagoitia, M. Swart, Q. Wu, T. Van Voorhis,
     A. A. Auer, M. Nooijen, L. D. Crosby, E. Brown, G. Cisneros, G. I. Fann,
   H. Fruchtl, J. Garza, K. Hirao, R. A. Kendall, J. A. Nichols, K. Tsemekhman,
    K. Wolinski, J. Anchell, D. E. Bernholdt, P. Borowski, T. Clark, D. Clerc,
   H. Dachsel, M. J. O. Deegan, K. Dyall, D. Elwood, E. Glendening, M. Gutowski,
   A. C. Hess, J. Jaffe, B. G. Johnson, J. Ju, R. Kobayashi, R. Kutteh, Z. Lin,
   R. Littlefield, X. Long, B. Meng, T. Nakajima, S. Niu, L. Pollack, M. Rosing,
   K. Glaesemann, G. Sandrone, M. Stave, H. Taylor, G. Thomas, J. H. van Lenthe,
                               A. T. Wong, Z. Zhang.

 Total times  cpu:      227.3s     wall:      215.5s
