 argument  1 = H2-1.0.nw



============================== echo of input deck ==============================
title "swnc: e theory=pspw4 xc=hf formula=H2 charge=0 mult=1"
#machinejob:expert

echo

start pspw_hf_H2

memory heap 1200 mb stack 1200 mb global 10 mb

charge 0

geometry
H    0.00000    0.00000   -0.50000
H    0.00000    0.00000    0.50000
end

nwpw
  ### pseudopotential block begin ###
  ### pseudopotential block end   ###
  simulation_cell
     SC 15.0000
     boundary_conditions aperiodic
  end

  cutoff 50.0
  mult 1
  xc hf
  lmbfgs
  tolerances 1.0e-9 1.0e-9

  virtual 10
end
set nwpw:cif_filename H2

#set nwpw:CI_maxit_orb 15
#set nwpw:CI_maxit_linesearch 15
set pspw:HFX_screening_radius 14.0


set nwpw:2qintegrals .true.
#set nwpw:3x3_virtual .true.

task pspw energy

================================================================================


                                         
                                         


             Northwest Computational Chemistry Package (NWChem) 7.2.2
             --------------------------------------------------------


                    Environmental Molecular Sciences Laboratory
                       Pacific Northwest National Laboratory
                                Richland, WA 99352

                              Copyright (c) 1994-2022
                       Pacific Northwest National Laboratory
                            Battelle Memorial Institute

             NWChem is an open-source computational chemistry package
                        distributed under the terms of the
                      Educational Community License (ECL) 2.0
             A copy of the license is included with this distribution
                              in the LICENSE.TXT file

                                  ACKNOWLEDGMENT
                                  --------------

            This software and its documentation were developed at the
            EMSL at Pacific Northwest National Laboratory, a multiprogram
            national laboratory, operated for the U.S. Department of Energy
            by Battelle under Contract Number DE-AC05-76RL01830. Support
            for this work was provided by the Department of Energy Office
            of Biological and Environmental Research, Office of Basic
            Energy Sciences, and the Office of Advanced Scientific Computing.


           Job information
           ---------------

    hostname        = LAPTOP-JJQSTSEL
    program         = nwchem
    date            = Wed Apr 30 10:16:01 2025

    compiled        = Fri_Jun_07_07:50:04_2024
    source          = /home/conda/feedstock_root/build_artifacts/nwchem_1717738148552/work
    nwchem branch   = 7.2.2
    nwchem revision = 64ba0f0
    ga revision     = 5.8.0
    use scalapack   = T
    input           = H2-1.0.nw
    prefix          = pspw_hf_H2.
    data base       = ./pspw_hf_H2.db
    status          = startup
    nproc           =        1
    time left       =     -1s



           Memory information
           ------------------

    heap     =  157286400 doubles =   1200.0 Mbytes
    stack    =  157286397 doubles =   1200.0 Mbytes
    global   =    1310720 doubles =     10.0 Mbytes (distinct from heap & stack)
    total    =  315883517 doubles =   2410.0 Mbytes
    verify   = yes
    hardfail = no 


           Directory information
           ---------------------

  0 permanent = .
  0 scratch   = .




                                NWChem Input Module
                                -------------------


               swnc: e theory=pspw4 xc=hf formula=H2 charge=0 mult=1
               -----------------------------------------------------

 Scaling coordinates for geometry "geometry" by  1.889725989
 (inverse scale =  0.529177249)

 ORDER OF PRIMARY AXIS IS BEING SET TO 4
 D4H symmetry detected

          ------
          auto-z
          ------
     1 autoz failed with cvr_scaling = 1.2 changing to 1.3
  no constraints, skipping    0.0000000000000000     
  no constraints, skipping    0.0000000000000000     


                             Geometry "geometry" -> ""
                             -------------------------

 Output coordinates in angstroms (scale by  1.889725989 to convert to a.u.)

  No.       Tag          Charge          X              Y              Z
 ---- ---------------- ---------- -------------- -------------- --------------
    1 H                    1.0000     0.00000000     0.00000000    -0.50000000
    2 H                    1.0000     0.00000000     0.00000000     0.50000000

      Atomic Mass 
      ----------- 

      H                  1.007825


 Effective nuclear repulsion energy (a.u.)       0.5291772490

            Nuclear Dipole moment (a.u.) 
            ----------------------------
        X                 Y               Z
 ---------------- ---------------- ----------------
     0.0000000000     0.0000000000     0.0000000000

      Symmetry information
      --------------------

 Group name             D4h       
 Group number             28
 Group order              16
 No. of unique centers     1

      Symmetry unique atoms

     1



                                Z-matrix (autoz)
                                -------- 

 Units are Angstrom for bonds and degrees for angles

      Type          Name      I     J     K     L     M      Value
      ----------- --------  ----- ----- ----- ----- ----- ----------
    1 Stretch                  1     2                       1.00000


            XYZ format geometry
            -------------------
     2
 geometry
 H                     0.00000000     0.00000000    -0.50000000
 H                     0.00000000     0.00000000     0.50000000

          ****************************************************
          *                                                  *
          *               NWPW PSPW Calculation              *
          *                                                  *
          * [ (Grassmann/Stiefel manifold implementation)  ] *
          *                                                  *
          *      [ NorthWest Chemistry implementation ]      *
          *                                                  *
          *            version #5.10   06/12/02              *
          *                                                  *
          *    This code was developed by Eric J. Bylaska,   *
          *    and was based upon algorithms and code        *
          *    developed by the group of Prof. John H. Weare *
          *                                                  *
          ****************************************************
     >>>  JOB STARTED       AT Wed Apr 30 10:16:01 2025  <<<
          ================ input data ========================

 input psi filename:./pspw_hf_H2.movecs

 number of processors used:         1
 processor grid           :   1 x   1
 parallel mapping         :2d-hilbert
 parallel mapping         :  balanced
 number of threads        :         1
 parallel io              :       off

 options:
      boundary conditions  = aperiodic   (version4)
      electron spin        = restricted
      exchange-correlation = Hartree-Fock
      - HFX relaxed
      - HFX restricted orbitals :    1
      - HFX free-space coulomb solver


 elements involved in the cluster:
      1: H   valence charge:  1.0000  lmax=  1
             comment    : Parameterized (Chem.Phys.Lett., vol 322, page 447) Hamman psp
             pseudpotential type            :   0
             highest angular component      :   1
             local potential used           :   1
             number of non-local projections:   1
             aperiodic cutoff radius        :  1.000
             cutoff =   0.800   0.800


 total charge:   0.000

 atomic composition:
     H   :    2

 number of electrons: spin up=     1 (   1 per task)  down=     1 (   1 per task) (Fourier space)
 number of orbitals : spin up=     1 (   1 per task)  down=     1 (   1 per task) (Fourier space)

 supercell:
      cell_name:  cell_default                                      
      lattice:    a1=<  15.000   0.000   0.000 >
                  a2=<   0.000  15.000   0.000 >
                  a3=<   0.000   0.000  15.000 >
      reciprocal: b1=<   0.419   0.000   0.000 >
                  b2=<   0.000   0.419   0.000 >
                  b3=<   0.000   0.000   0.419 >
      lattice:    a=      15.000 b=     15.000 c=      15.000
                  alpha=  90.000 beta=  90.000 gamma=  90.000
                  omega=      3375.0

      density cutoff=100.000  fft= 70x 70x 70(    80618 waves    80618 per task)
      wavefnc cutoff= 50.000  fft= 70x 70x 70(    28526 waves    28526 per task)

 technical parameters:
      time step=      5.80     fictitious mass=  400000.0
      tolerance=0.100E-08 (energy)   0.100E-08 (density)
      maximum iterations =      1000 (   10 inner    100 outer )





== Energy Calculation ==


          ============ Grassmann lmbfgs iteration ============
     >>>  ITERATION STARTED AT Wed Apr 30 10:16:10 2025  <<<
    iter.           Energy         DeltaE       DeltaRho 
    ------------------------------------------------------
      10   -0.1102014663E+01   -0.65553E-04    0.15155E-02
      20   -0.1102159213E+01   -0.19217E-05    0.29212E-05
      30   -0.1102164242E+01   -0.85653E-07    0.82448E-08
      40   -0.1102164430E+01   -0.20519E-08    0.19559E-10
      50   -0.1102164433E+01   -0.73273E-09    0.69505E-12
  *** tolerance ok. iteration terminated
     >>>  ITERATION ENDED   AT Wed Apr 30 10:16:39 2025  <<<


==  Summary Of Results  ==

 number of electrons: spin up=    1.00000  down=    1.00000 (real space)

 total     energy    :  -0.1102164433E+01 (   -0.55108E+00/ion)
 total orbital energy:  -0.1053727886E+01 (   -0.10537E+01/electron)
 hartree   energy    :   0.1155227592E+01 (    0.11552E+01/electron)
 exc-corr  energy    :   0.0000000000E+00 (    0.00000E+00/electron)
 HF exchange energy  :  -0.5776137959E+00 (   -0.57761E+00/electron)
 ion-ion   energy    :   0.5291772490E+00 (    0.26459E+00/ion)

 kinetic (planewave) :   0.8725964939E+00 (    0.87260E+00/electron)
 V_local (planewave) :  -0.2845269450E+01 (   -0.28453E+01/electron)
 V_nl    (planewave) :  -0.2362825218E+00 (   -0.23628E+00/electron)
 V_Coul  (planewave) :   0.2310455183E+01 (    0.23105E+01/electron)
 V_xc.   (planewave) :   0.0000000000E+00 (    0.00000E+00/electron)
 K.S. HFX energy     :  -0.1155227592E+01 (   -0.11552E+01/electron)
 Virial Coefficient  :  -0.8836808238E+00

 orbital energies:
    -0.5268639E+00 ( -14.337eV)


== Virtual Orbital Calculation ==


 input epsi filename:./pspw_hf_H2.emovecs
     orbital   1 current e= 0.740E-02 (error=0.933E-09) iterations  42(  17 preconditioned, Ep,Sp= 20.0  200.0)
     orbital   2 current e= 0.731E-01 (error=0.859E-09) iterations  71(  34 preconditioned, Ep,Sp= 20.0  200.0)
     orbital   3 current e= 0.852E-01 (error=0.922E-09) iterations  41(   5 preconditioned, Ep,Sp= 20.0  200.0)
     orbital   4 current e= 0.852E-01 (error=0.922E-09) iterations  41(   5 preconditioned, Ep,Sp= 20.0  200.0)
     orbital   5 current e= 0.869E-01 (error=0.848E-09) iterations  40(   3 preconditioned, Ep,Sp= 20.0  200.0)
     orbital   6 current e= 0.879E-01 (error=0.900E-09) iterations  24(   1 preconditioned, Ep,Sp= 20.0  200.0)
     orbital   7 current e= 0.114E+00 (error=0.874E-09) iterations  57(  27 preconditioned, Ep,Sp= 20.0  200.0)
     orbital   8 current e= 0.140E+00 (error=0.767E-09) iterations  68(  42 preconditioned, Ep,Sp= 20.0  200.0)
     orbital   9 current e= 0.169E+00 (error=0.770E-09) iterations  89(  11 preconditioned, Ep,Sp= 20.0  200.0)
     orbital  10 current e= 0.169E+00 (error=0.770E-09) iterations  89(  11 preconditioned, Ep,Sp= 20.0  200.0)

 virtual orbital energies:
     0.1688163E+00 (   4.594eV)
     0.1688163E+00 (   4.594eV)
     0.1400644E+00 (   3.811eV)
     0.1139559E+00 (   3.101eV)
     0.8794687E-01 (   2.393eV)
     0.8691374E-01 (   2.365eV)
     0.8516329E-01 (   2.317eV)
     0.8516329E-01 (   2.317eV)
     0.7307049E-01 (   1.988eV)
     0.7396459E-02 (   0.201eV)


 == Generating One-Electron and Two-Electron Integrals ==

 begin_one_electron_integrals
    1    1        -1.1044777391
    2    1        -0.0328579871
    3    1        -0.0000001919
    4    1         0.0000000064
    5    1        -0.0000010187
    6    1        -0.0032855789
    7    1        -0.0000000539
    8    1        -0.0438259236
    9    1        -0.0000021110
   10    1         0.0000002234
   11    1         0.0000014874
    2    2        -0.2682107262
    3    2        -0.0000041873
    4    2        -0.0000000011
    5    2         0.0000002473
    6    2        -0.0027084768
    7    2        -0.0000000317
    8    2        -0.0658746456
    9    2         0.0000012004
   10    2        -0.0000000922
   11    2         0.0000004700
    3    3        -0.3379741193
    4    3        -0.0000000002
    5    3         0.0000000043
    6    3         0.0000140282
    7    3        -0.0000001916
    8    3        -0.0000001692
    9    3         0.1579261940
   10    3         0.0000000102
   11    3         0.0000000145
    4    4        -0.2345868884
    5    4        -0.0000000000
    6    4        -0.0000000727
    7    4         0.0000138523
    8    4         0.0000000116
    9    4        -0.0000000001
   10    4         0.0870287426
   11    4        -0.0339532770
    5    5        -0.2345868889
    6    5         0.0000118613
    7    5         0.0000000848
    8    5        -0.0000009504
    9    5        -0.0000000095
   10    5         0.0339532773
   11    5         0.0870287432
    6    6        -0.1929022622
    7    6        -0.0000000285
    8    6        -0.0010768637
    9    6        -0.0000170420
   10    6        -0.0000086995
   11    6        -0.0000226762
    7    7        -0.1885523167
    8    7        -0.0000000535
    9    7         0.0000002657
   10    7        -0.0000239867
   11    7         0.0000091891
    8    8        -0.1681748987
    9    8        -0.0000005975
   10    8         0.0000001476
   11    8         0.0000018821
    9    9        -0.2712044110
   10    9        -0.0000000146
   11    9        -0.0000000191
   10   10        -0.1834436021
   11   10        -0.0000000004
   11   11        -0.1834436038
 end_one_electron_integrals

 begin_two_electron_integrals
    1    1    1    1        0.5776137959
    1    1    2    1        0.0328658209
    1    1    3    1        0.0000001894
    1    1    4    1       -0.0000000064
    1    1    5    1        0.0000010181
    1    1    6    1        0.0032814233
    1    1    7    1        0.0000000539
    1    1    8    1        0.0438158159
    1    1    9    1        0.0000021120
    1    1   10    1       -0.0000002235
    1    1   11    1       -0.0000014876
    1    1    2    2        0.1392851057
    1    1    3    2        0.0000030526
    1    1    4    2        0.0000000026
    1    1    5    2       -0.0000004574
    1    1    6    2        0.0015145439
    1    1    7    2        0.0000000189
    1    1    8    2        0.0349840939
    1    1    9    2       -0.0000015222
    1    1   10    2        0.0000002235
    1    1   11    2        0.0000001833
    1    1    3    3        0.2152423628
    1    1    4    3        0.0000000001
    1    1    5    3       -0.0000000021
    1    1    6    3       -0.0000067451
    1    1    7    3        0.0000001132
    1    1    8    3        0.0000006448
    1    1    9    3       -0.0906705764
    1    1   10    3       -0.0000000063
    1    1   11    3       -0.0000000090
    1    1    4    4        0.1612694903
    1    1    5    4        0.0000000000
    1    1    6    4        0.0000000367
    1    1    7    4       -0.0000067978
    1    1    8    4       -0.0000000051
    1    1    9    4        0.0000000001
    1    1   10    4       -0.0455445112
    1    1   11    4        0.0177686745
    1    1    5    5        0.1612694904
    1    1    6    5       -0.0000059931
    1    1    7    5       -0.0000000416
    1    1    8    5        0.0000003365
    1    1    9    5        0.0000000048
    1    1   10    5       -0.0177686746
    1    1   11    5       -0.0455445113
    1    1    6    6        0.1400493263
    1    1    7    6        0.0000000147
    1    1    8    6        0.0007594910
    1    1    9    6        0.0000084443
    1    1   10    6        0.0000044251
    1    1   11    6        0.0000115300
    1    1    7    7        0.1383287501
    1    1    8    7        0.0000000318
    1    1    9    7       -0.0000001550
    1    1   10    7        0.0000119352
    1    1   11    7       -0.0000045723
    1    1    8    8        0.1439444491
    1    1    9    8       -0.0000001536
    1    1   10    8        0.0000000180
    1    1   11    8       -0.0000007686
    1    1    9    9        0.2198706771
    1    1   10    9        0.0000000083
    1    1   11    9        0.0000000110
    1    1   10   10        0.1795964269
    1    1   11   10        0.0000000002
    1    1   11   11        0.1795964278
    2    1    2    1        0.0029630263
    2    1    3    1        0.0000019296
    2    1    4    1        0.0000000041
    2    1    5    1       -0.0000006679
    2    1    6    1        0.0003213294
    2    1    7    1        0.0000000054
    2    1    8    1        0.0041130191
    2    1    9    1       -0.0000018493
    2    1   10    1        0.0000003543
    2    1   11    1        0.0000008370
    2    1    2    2        0.0005703951
    2    1    3    2       -0.0000037998
    2    1    4    2       -0.0000000272
    2    1    5    2        0.0000044212
    2    1    6    2       -0.0000172500
    2    1    7    2        0.0000000010
    2    1    8    2        0.0008043207
    2    1    9    2       -0.0000011084
    2    1   10    2       -0.0000001976
    2    1   11    2       -0.0000005327
    2    1    3    3        0.0037503735
    2    1    4    3       -0.0000000000
    2    1    5    3        0.0000000032
    2    1    6    3       -0.0000028935
    2    1    7    3        0.0000000078
    2    1    8    3       -0.0000013963
    2    1    9    3       -0.0043221806
    2    1   10    3       -0.0000000002
    2    1   11    3       -0.0000000001
    2    1    4    4        0.0009796256
    2    1    5    4        0.0000000000
    2    1    6    4        0.0000000085
    2    1    7    4       -0.0000023052
    2    1    8    4       -0.0000000064
    2    1    9    4       -0.0000000000
    2    1   10    4       -0.0012980067
    2    1   11    4        0.0005064026
    2    1    5    5        0.0009796203
    2    1    6    5       -0.0000013807
    2    1    7    5       -0.0000000142
    2    1    8    5        0.0000010362
    2    1    9    5        0.0000000031
    2    1   10    5       -0.0005064033
    2    1   11    5       -0.0012980084
    2    1    6    6        0.0002452347
    2    1    7    6        0.0000000003
    2    1    8    6        0.0000073654
    2    1    9    6        0.0000020993
    2    1   10    6        0.0000005872
    2    1   11    6        0.0000015319
    2    1    7    7        0.0002565143
    2    1    8    7        0.0000000015
    2    1    9    7       -0.0000000099
    2    1   10    7        0.0000029869
    2    1   11    7       -0.0000011442
    2    1    8    8        0.0011653797
    2    1    9    8        0.0000023448
    2    1   10    8       -0.0000012813
    2    1   11    8       -0.0000033707
    2    1    9    9        0.0053192769
    2    1   10    9        0.0000000011
    2    1   11    9        0.0000000024
    2    1   10   10        0.0021806762
    2    1   11   10       -0.0000000008
    2    1   11   11        0.0021806745
    3    1    3    1        0.0194401129
    3    1    4    1        0.0000000000
    3    1    5    1        0.0000000002
    3    1    6    1        0.0000005285
    3    1    7    1        0.0000000435
    3    1    8    1        0.0000011241
    3    1    9    1       -0.0234164244
    3    1   10    1       -0.0000000023
    3    1   11    1       -0.0000000034
    3    1    2    2       -0.0001174104
    3    1    3    2       -0.0068157195
    3    1    4    2        0.0000000002
    3    1    5    2       -0.0000000329
    3    1    6    2       -0.0001403671
    3    1    7    2        0.0000000043
    3    1    8    2        0.0000333918
    3    1    9    2       -0.0008654504
    3    1   10    2        0.0000000045
    3    1   11    2        0.0000000114
    3    1    3    3       -0.0000014784
    3    1    4    3        0.0000000049
    3    1    5    3       -0.0000007758
    3    1    6    3       -0.0051626009
    3    1    7    3       -0.0000000070
    3    1    8    3       -0.0046946176
    3    1    9    3        0.0000005710
    3    1   10    3        0.0000000691
    3    1   11    3        0.0000002565
    3    1    4    4       -0.0000932729
    3    1    5    4       -0.0000000002
    3    1    6    4        0.0000000001
    3    1    7    4       -0.0000000006
    3    1    8    4        0.0000000001
    3    1    9    4        0.0000000046
    3    1   10    4       -0.0000693402
    3    1   11    4        0.0000270519
    3    1    5    5       -0.0000932730
    3    1    6    5       -0.0000000245
    3    1    7    5       -0.0000000002
    3    1    8    5       -0.0000000182
    3    1    9    5        0.0000019111
    3    1   10    5       -0.0000270510
    3    1   11    5       -0.0000693392
    3    1    6    6       -0.0002109241
    3    1    7    6        0.0000000075
    3    1    8    6       -0.0000290857
    3    1    9    6        0.0046910279
    3    1   10    6        0.0000000148
    3    1   11    6        0.0000000375
    3    1    7    7       -0.0000877458
    3    1    8    7        0.0000000065
    3    1    9    7        0.0000000052
    3    1   10    7        0.0000000061
    3    1   11    7        0.0000000002
    3    1    8    8       -0.0001266762
    3    1    9    8        0.0037383784
    3    1   10    8       -0.0000000014
    3    1   11    8       -0.0000000040
    3    1    9    9        0.0000001615
    3    1   10    9       -0.0000000913
    3    1   11    9       -0.0000002826
    3    1   10   10       -0.0001028828
    3    1   11   10       -0.0000000005
    3    1   11   11       -0.0001028831
    4    1    4    1        0.0027888063
    4    1    5    1        0.0000000000
    4    1    6    1        0.0000000008
    4    1    7    1        0.0000002563
    4    1    8    1        0.0000000014
    4    1    9    1       -0.0000000000
    4    1   10    1       -0.0040608663
    4    1   11    1        0.0015843009
    4    1    2    2       -0.0000005158
    4    1    3    2        0.0000000000
    4    1    4    2       -0.0039738332
    4    1    5    2        0.0000000000
    4    1    6    2        0.0000003114
    4    1    7    2       -0.0000876024
    4    1    8    2        0.0000001485
    4    1    9    2       -0.0000000001
    4    1   10    2        0.0012885909
    4    1   11    2       -0.0005027290
    4    1    3    3       -0.0000002478
    4    1    4    3       -0.0000008249
    4    1    5    3       -0.0000000010
    4    1    6    3       -0.0000000000
    4    1    7    3       -0.0000000075
    4    1    8    3        0.0000000001
    4    1    9    3       -0.0000003323
    4    1   10    3       -0.0000002143
    4    1   11    3        0.0000000849
    4    1    4    4        0.0000001906
    4    1    5    4       -0.0000319993
    4    1    6    4        0.0008689620
    4    1    7    4       -0.0000203539
    4    1    8    4       -0.0023059384
    4    1    9    4       -0.0000003640
    4    1   10    4       -0.0000123204
    4    1   11    4       -0.0000321589
    4    1    5    5       -0.0000006068
    4    1    6    5        0.0000000002
    4    1    7    5        0.0016554455
    4    1    8    5       -0.0000000003
    4    1    9    5       -0.0000000003
    4    1   10    5       -0.0000315536
    4    1   11    5        0.0000116462
    4    1    6    6       -0.0000005199
    4    1    7    6        0.0000382607
    4    1    8    6        0.0000000588
    4    1    9    6       -0.0000000001
    4    1   10    6       -0.0012069414
    4    1   11    6        0.0004708740
    4    1    7    7       -0.0000007996
    4    1    8    7       -0.0000157754
    4    1    9    7       -0.0000000207
    4    1   10    7       -0.0009643357
    4    1   11    7       -0.0025644563
    4    1    8    8       -0.0000005766
    4    1    9    8        0.0000000001
    4    1   10    8        0.0034458304
    4    1   11    8       -0.0013443515
    4    1    9    9       -0.0000005330
    4    1   10    9       -0.0000002729
    4    1   11    9        0.0000001070
    4    1   10   10       -0.0000297979
    4    1   11   10       -0.0000329239
    4    1   11   11        0.0000292764
    5    1    5    1        0.0027888061
    5    1    6    1       -0.0000001249
    5    1    7    1        0.0000000016
    5    1    8    1       -0.0000002780
    5    1    9    1        0.0000000001
    5    1   10    1       -0.0015843008
    5    1   11    1       -0.0040608660
    5    1    2    2        0.0000839034
    5    1    3    2        0.0000000038
    5    1    4    2        0.0000000000
    5    1    5    2       -0.0039738379
    5    1    6    2       -0.0000506643
    5    1    7    2       -0.0000005385
    5    1    8    2       -0.0000241449
    5    1    9    2        0.0000000190
    5    1   10    2        0.0005027208
    5    1   11    2        0.0012885698
    5    1    3    3        0.0000403273
    5    1    4    3       -0.0000000010
    5    1    5    3       -0.0000008249
    5    1    6    3        0.0000000010
    5    1    7    3       -0.0000000009
    5    1    8    3       -0.0000000117
    5    1    9    3        0.0000554779
    5    1   10    3       -0.0000000818
    5    1   11    3       -0.0000002148
    5    1    4    4        0.0000329968
    5    1    5    4       -0.0000002072
    5    1    6    4        0.0000000002
    5    1    7    4        0.0016554407
    5    1    8    4       -0.0000000003
    5    1    9    4       -0.0000000003
    5    1   10    4        0.0000295195
    5    1   11    4       -0.0000117493
    5    1    5    5        0.0000347024
    5    1    6    5        0.0008689706
    5    1    7    5        0.0000203521
    5    1    8    5       -0.0023059216
    5    1    9    5       -0.0000003640
    5    1   10    5        0.0000116318
    5    1   11    5        0.0000304316
    5    1    6    6        0.0000845831
    5    1    7    6        0.0000002352
    5    1    8    6       -0.0000095846
    5    1    9    6       -0.0000000110
    5    1   10    6       -0.0004708730
    5    1   11    6       -0.0012069367
    5    1    7    7        0.0001300698
    5    1    8    7       -0.0000000972
    5    1    9    7        0.0000000004
    5    1   10    7       -0.0025644852
    5    1   11    7        0.0009643530
    5    1    8    8        0.0000938724
    5    1    9    8       -0.0000000176
    5    1   10    8        0.0013443581
    5    1   11    8        0.0034458471
    5    1    9    9        0.0000866873
    5    1   10    9       -0.0000001061
    5    1   11    9       -0.0000002733
    5    1   10   10        0.0000450367
    5    1   11   10       -0.0000000779
    5    1   11   11        0.0000456235
    6    1    6    1        0.0002826552
    6    1    7    1        0.0000000008
    6    1    8    1        0.0004444679
    6    1    9    1       -0.0000001472
    6    1   10    1        0.0000001506
    6    1   11    1        0.0000003836
    6    1    2    2        0.0000471160
    6    1    3    2       -0.0000056851
    6    1    4    2        0.0000000165
    6    1    5    2       -0.0000026747
    6    1    6    2       -0.0009237290
    6    1    7    2       -0.0000000000
    6    1    8    2        0.0000877768
    6    1    9    2       -0.0000012824
    6    1   10    2        0.0000000808
    6    1   11    2        0.0000002092
    6    1    3    3       -0.0005799691
    6    1    4    3       -0.0000000000
    6    1    5    3        0.0000000022
    6    1    6    3       -0.0000037883
    6    1    7    3        0.0000000010
    6    1    8    3       -0.0000020996
    6    1    9    3        0.0007553663
    6    1   10    3        0.0000000001
    6    1   11    3        0.0000000001
    6    1    4    4        0.0002756167
    6    1    5    4       -0.0000000000
    6    1    6    4       -0.0000000054
    6    1    7    4        0.0000011271
    6    1    8    4        0.0000000032
    6    1    9    4       -0.0000000000
    6    1   10    4       -0.0005140502
    6    1   11    4        0.0002005507
    6    1    5    5        0.0002756246
    6    1    6    5        0.0000008858
    6    1    7    5        0.0000000069
    6    1    8    5       -0.0000005218
    6    1    9    5        0.0000000022
    6    1   10    5       -0.0002005503
    6    1   11    5       -0.0005140485
    6    1    6    6       -0.0003470501
    6    1    7    6        0.0000000002
    6    1    8    6       -0.0007252991
    6    1    9    6        0.0000022549
    6    1   10    6       -0.0000001607
    6    1   11    6       -0.0000004157
    6    1    7    7        0.0003362654
    6    1    8    7       -0.0000000003
    6    1    9    7       -0.0000000007
    6    1   10    7       -0.0000013892
    6    1   11    7        0.0000005322
    6    1    8    8        0.0001417003
    6    1    9    8        0.0000033959
    6    1   10    8        0.0000006769
    6    1   11    8        0.0000017643
    6    1    9    9       -0.0004058311
    6    1   10    9        0.0000000004
    6    1   11    9        0.0000000010
    6    1   10   10        0.0007538888
    6    1   11   10        0.0000000011
    6    1   11   11        0.0007538909
    7    1    7    1        0.0001583111
    7    1    8    1        0.0000000076
    7    1    9    1       -0.0000000537
    7    1   10    1       -0.0000001158
    7    1   11    1        0.0000000443
    7    1    2    2        0.0000000004
    7    1    3    2       -0.0000000078
    7    1    4    2       -0.0000053056
    7    1    5    2       -0.0000000327
    7    1    6    2       -0.0000000007
    7    1    7    2       -0.0007768477
    7    1    8    2        0.0000000010
    7    1    9    2       -0.0000000023
    7    1   10    2        0.0000006545
    7    1   11    2       -0.0000002507
    7    1    3    3        0.0000000034
    7    1    4    3       -0.0000000046
    7    1    5    3       -0.0000000006
    7    1    6    3       -0.0000000072
    7    1    7    3       -0.0000002827
    7    1    8    3       -0.0000000052
    7    1    9    3       -0.0000000045
    7    1   10    3       -0.0000000005
    7    1   11    3        0.0000000008
    7    1    4    4       -0.0000033762
    7    1    5    4        0.0002746556
    7    1    6    4        0.0000013016
    7    1    7    4       -0.0000000167
    7    1    8    4       -0.0000011655
    7    1    9    4       -0.0000000030
    7    1   10    4       -0.0002462918
    7    1   11    4       -0.0006549570
    7    1    5    5        0.0000033774
    7    1    6    5        0.0000000080
    7    1    7    5        0.0000027116
    7    1    8    5       -0.0000000072
    7    1    9    5        0.0000000002
    7    1   10    5       -0.0006549575
    7    1   11    5        0.0002462890
    7    1    6    6       -0.0000000003
    7    1    7    6        0.0002477059
    7    1    8    6       -0.0000000005
    7    1    9    6        0.0000000068
    7    1   10    6       -0.0000012912
    7    1   11    6        0.0000004946
    7    1    7    7       -0.0000000005
    7    1    8    7       -0.0005885119
    7    1    9    7       -0.0000002140
    7    1   10    7       -0.0000011277
    7    1   11    7       -0.0000029412
    7    1    8    8        0.0000000013
    7    1    9    8        0.0000000035
    7    1   10    8        0.0000037797
    7    1   11    8       -0.0000014478
    7    1    9    9        0.0000000061
    7    1   10    9       -0.0000000019
    7    1   11    9        0.0000000002
    7    1   10   10        0.0004992569
    7    1   11   10        0.0005560192
    7    1   11   11       -0.0004992528
    8    1    8    1        0.0057580656
    8    1    9    1       -0.0000009184
    8    1   10    1        0.0000001807
    8    1   11    1        0.0000003466
    8    1    2    2        0.0006056222
    8    1    3    2       -0.0000016644
    8    1    4    2       -0.0000000113
    8    1    5    2        0.0000018860
    8    1    6    2       -0.0000018083
    8    1    7    2        0.0000000013
    8    1    8    2        0.0008486622
    8    1    9    2       -0.0000002214
    8    1   10    2       -0.0000002618
    8    1   11    2       -0.0000007027
    8    1    3    3        0.0043382743
    8    1    4    3        0.0000000000
    8    1    5    3       -0.0000000055
    8    1    6    3       -0.0000018831
    8    1    7    3        0.0000000100
    8    1    8    3       -0.0000009593
    8    1    9    3       -0.0052099865
    8    1   10    3       -0.0000000006
    8    1   11    3       -0.0000000010
    8    1    4    4        0.0009318854
    8    1    5    4       -0.0000000001
    8    1    6    4        0.0000000057
    8    1    7    4       -0.0000014303
    8    1    8    4       -0.0000000056
    8    1    9    4        0.0000000000
    8    1   10    4       -0.0013105591
    8    1   11    4        0.0005112998
    8    1    5    5        0.0009318922
    8    1    6    5       -0.0000009337
    8    1    7    5       -0.0000000089
    8    1    8    5        0.0000009220
    8    1    9    5       -0.0000000023
    8    1   10    5       -0.0005112992
    8    1   11    5       -0.0013105578
    8    1    6    6        0.0001106506
    8    1    7    6        0.0000000002
    8    1    8    6        0.0000249578
    8    1    9    6        0.0000014717
    8    1   10    6        0.0000004251
    8    1   11    6        0.0000011082
    8    1    7    7        0.0001325188
    8    1    8    7        0.0000000019
    8    1    9    7       -0.0000000127
    8    1   10    7        0.0000018751
    8    1   11    7       -0.0000007181
    8    1    8    8        0.0013078210
    8    1    9    8        0.0000009998
    8    1   10    8       -0.0000005970
    8    1   11    8       -0.0000015872
    8    1    9    9        0.0065200558
    8    1   10    9       -0.0000000005
    8    1   11    9       -0.0000000020
    8    1   10   10        0.0023097214
    8    1   11   10        0.0000000011
    8    1   11   11        0.0023097241
    9    1    9    1        0.0284725640
    9    1   10    1        0.0000000026
    9    1   11    1        0.0000000036
    9    1    2    2        0.0001146177
    9    1    3    2        0.0065258348
    9    1    4    2       -0.0000000004
    9    1    5    2        0.0000000590
    9    1    6    2        0.0001383415
    9    1    7    2       -0.0000000047
    9    1    8    2       -0.0000301855
    9    1    9    2        0.0008174992
    9    1   10    2        0.0000000039
    9    1   11    2        0.0000000104
    9    1    3    3        0.0000016830
    9    1    4    3       -0.0000000138
    9    1    5    3        0.0000027455
    9    1    6    3        0.0055499091
    9    1    7    3        0.0000000073
    9    1    8    3        0.0046737987
    9    1    9    3       -0.0000007006
    9    1   10    3       -0.0000002188
    9    1   11    3       -0.0000006422
    9    1    4    4        0.0000911487
    9    1    5    4       -0.0000000001
    9    1    6    4       -0.0000000003
    9    1    7    4       -0.0000000101
    9    1    8    4        0.0000000000
    9    1    9    4       -0.0000000110
    9    1   10    4        0.0000667334
    9    1   11    4       -0.0000260343
    9    1    5    5        0.0000911488
    9    1    6    5        0.0000000512
    9    1    7    5        0.0000000002
    9    1    8    5       -0.0000000005
    9    1    9    5       -0.0000009610
    9    1   10    5        0.0000260344
    9    1   11    5        0.0000667320
    9    1    6    6        0.0002094032
    9    1    7    6       -0.0000000076
    9    1    8    6        0.0000308376
    9    1    9    6       -0.0049765828
    9    1   10    6       -0.0000000093
    9    1   11    6       -0.0000000230
    9    1    7    7        0.0000848603
    9    1    8    7       -0.0000000072
    9    1    9    7       -0.0000000055
    9    1   10    7       -0.0000000038
    9    1   11    7       -0.0000000012
    9    1    8    8        0.0001223495
    9    1    9    8       -0.0035365172
    9    1   10    8       -0.0000000089
    9    1   11    8       -0.0000000230
    9    1    9    9        0.0000000476
    9    1   10    9        0.0000003226
    9    1   11    9        0.0000008773
    9    1   10   10        0.0000989454
    9    1   11   10        0.0000000001
    9    1   11   11        0.0000989464
   10    1   10    1        0.0069329629
   10    1   11    1       -0.0000000000
   10    1    2    2       -0.0000390289
   10    1    3    2        0.0000000074
   10    1    4    2        0.0047733516
   10    1    5    2        0.0018622560
   10    1    6    2        0.0000238381
   10    1    7    2        0.0001078882
   10    1    8    2        0.0000099276
   10    1    9    2        0.0000000046
   10    1   10    2       -0.0021432346
   10    1   11    2       -0.0000000052
   10    1    3    3       -0.0000189065
   10    1    4    3       -0.0000006712
   10    1    5    3       -0.0000002605
   10    1    6    3       -0.0000000019
   10    1    7    3       -0.0000000170
   10    1    8    3       -0.0000000004
   10    1    9    3       -0.0000255835
   10    1   10    3        0.0000002127
   10    1   11    3       -0.0000000016
   10    1    4    4       -0.0000167397
   10    1    5    4        0.0000388251
   10    1    6    4       -0.0012200511
   10    1    7    4       -0.0008608371
   10    1    8    4        0.0030404726
   10    1    9    4       -0.0000000548
   10    1   10    4        0.0000007234
   10    1   11    4        0.0000435515
   10    1    5    5       -0.0000148400
   10    1    6    5       -0.0004759806
   10    1    7    5       -0.0022891962
   10    1    8    5        0.0011862087
   10    1    9    5       -0.0000000211
   10    1   10    5        0.0000325380
   10    1   11    5       -0.0000281555
   10    1    6    6       -0.0000395297
   10    1    7    6       -0.0000489367
   10    1    8    6        0.0000050968
   10    1    9    6        0.0000000011
   10    1   10    6        0.0018800829
   10    1   11    6        0.0000000048
   10    1    7    7       -0.0000617813
   10    1    8    7        0.0000222166
   10    1    9    7       -0.0000000045
   10    1   10    7        0.0025682376
   10    1   11    7        0.0028602388
   10    1    8    8       -0.0000429141
   10    1    9    8       -0.0000000041
   10    1   10    8       -0.0051047379
   10    1   11    8        0.0000000084
   10    1    9    9       -0.0000398179
   10    1   10    9       -0.0000004682
   10    1   11    9       -0.0000000004
   10    1   10   10        0.0000143797
   10    1   11   10        0.0000393545
   10    1   11   11       -0.0000555922
   11    1   11    1        0.0069329629
   11    1    2    2       -0.0001018942
   11    1    3    2        0.0000000189
   11    1    4    2       -0.0018622688
   11    1    5    2        0.0047733178
   11    1    6    2        0.0000622282
   11    1    7    2       -0.0000413291
   11    1    8    2        0.0000259005
   11    1    9    2        0.0000000118
   11    1   10    2       -0.0000000050
   11    1   11    2       -0.0021432464
   11    1    3    3       -0.0000494321
   11    1    4    3        0.0000002632
   11    1    5    3       -0.0000006720
   11    1    6    3       -0.0000000057
   11    1    7    3        0.0000000078
   11    1    8    3       -0.0000000015
   11    1    9    3       -0.0000666553
   11    1   10    3       -0.0000000023
   11    1   11    3        0.0000002147
   11    1    4    4       -0.0000422823
   11    1    5    4       -0.0000148902
   11    1    6    4        0.0004759885
   11    1    7    4       -0.0022892185
   11    1    8    4       -0.0011862057
   11    1    9    4        0.0000000219
   11    1   10    4       -0.0000411729
   11    1   11    4       -0.0000007238
   11    1    5    5       -0.0000401816
   11    1    6    5       -0.0012200278
   11    1    7    5        0.0008608316
   11    1    8    5        0.0030404791
   11    1    9    5       -0.0000000553
   11    1   10    5       -0.0000286500
   11    1   11    5       -0.0000307670
   11    1    6    6       -0.0001031917
   11    1    7    6        0.0000187463
   11    1    8    6        0.0000133038
   11    1    9    6        0.0000000028
   11    1   10    6        0.0000000046
   11    1   11    6        0.0018800917
   11    1    7    7       -0.0001612793
   11    1    8    7       -0.0000085103
   11    1    9    7        0.0000000008
   11    1   10    7        0.0028602532
   11    1   11    7       -0.0025682454
   11    1    8    8       -0.0001120477
   11    1    9    8       -0.0000000106
   11    1   10    8        0.0000000086
   11    1   11    8       -0.0051047183
   11    1    9    9       -0.0001040704
   11    1   10    9       -0.0000000005
   11    1   11    9       -0.0000004672
   11    1   10   10       -0.0000677035
   11    1   11   10       -0.0000146235
   11    1   11   11       -0.0000398081
    2    2    2    2        0.1185147256
    2    2    3    2        0.0004222073
    2    2    4    2        0.0000039158
    2    2    5    2       -0.0006370221
    2    2    6    2        0.0004413636
    2    2    7    2        0.0000000009
    2    2    8    2        0.0092376832
    2    2    9    2        0.0001815437
    2    2   10    2       -0.0000104392
    2    2   11    2       -0.0000272868
    2    2    3    3        0.1280946862
    2    2    4    3        0.0000000191
    2    2    5    3       -0.0000031349
    2    2    6    3        0.0002175829
    2    2    7    3        0.0000000038
    2    2    8    3        0.0000803272
    2    2    9    3       -0.0086847697
    2    2   10    3       -0.0000001479
    2    2   11    3       -0.0000003877
    2    2    4    4        0.1237064110
    2    2    5    4       -0.0000000305
    2    2    6    4       -0.0000008144
    2    2    7    4        0.0002343530
    2    2    8    4        0.0000002608
    2    2    9    4        0.0000000117
    2    2   10    4       -0.0078736433
    2    2   11    4        0.0030718031
    2    2    5    5        0.1237113661
    2    2    6    5        0.0001324873
    2    2    7    5        0.0000014406
    2    2    8    5       -0.0000425270
    2    2    9    5       -0.0000020405
    2    2   10    5       -0.0030712873
    2    2   11    5       -0.0078722713
    2    2    6    6        0.1198389493
    2    2    7    6        0.0000000033
    2    2    8    6       -0.0000285302
    2    2    9    6       -0.0001467012
    2    2   10    6       -0.0000474381
    2    2   11    6       -0.0001238375
    2    2    7    7        0.1195060934
    2    2    8    7        0.0000000041
    2    2    9    7       -0.0000000089
    2    2   10    7       -0.0003076674
    2    2   11    7        0.0001178591
    2    2    8    8        0.1142669198
    2    2    9    8       -0.0002814251
    2    2   10    8        0.0001813857
    2    2   11    8        0.0004733194
    2    2    9    9        0.1225939836
    2    2   10    9       -0.0000006802
    2    2   11    9       -0.0000017748
    2    2   10   10        0.1216736494
    2    2   11   10        0.0000008444
    2    2   11   11        0.1216755291
    3    2    3    2        0.0199890481
    3    2    4    2        0.0000000139
    3    2    5    2       -0.0000023209
    3    2    6    2        0.0004609718
    3    2    7    2       -0.0000000054
    3    2    8    2       -0.0001946382
    3    2    9    2        0.0077514620
    3    2   10    2       -0.0000008262
    3    2   11    2       -0.0000021555
    3    2    3    3        0.0000032807
    3    2    4    3        0.0000008322
    3    2    5    3       -0.0001354672
    3    2    6    3        0.0075659746
    3    2    7    3        0.0000000092
    3    2    8    3        0.0066959228
    3    2    9    3       -0.0000027584
    3    2   10    3        0.0000017484
    3    2   11    3        0.0000044754
    3    2    4    4        0.0003321176
    3    2    5    4        0.0000000003
    3    2    6    4        0.0000000137
    3    2    7    4        0.0000008608
    3    2    8    4       -0.0000000121
    3    2    9    4        0.0000005302
    3    2   10    4        0.0002733995
    3    2   11    4       -0.0001066661
    3    2    5    5        0.0003321322
    3    2    6    5       -0.0000022178
    3    2    7    5        0.0000000033
    3    2    8    5        0.0000019712
    3    2    9    5       -0.0000930659
    3    2   10    5        0.0001066656
    3    2   11    5        0.0002734191
    3    2    6    6        0.0006520905
    3    2    7    6       -0.0000000187
    3    2    8    6        0.0000343646
    3    2    9    6       -0.0085821523
    3    2   10    6       -0.0000005414
    3    2   11    6       -0.0000014091
    3    2    7    7        0.0003345409
    3    2    8    7       -0.0000000111
    3    2    9    7       -0.0000000043
    3    2   10    7       -0.0000002695
    3    2   11    7        0.0000000979
    3    2    8    8        0.0005159540
    3    2    9    8       -0.0115086798
    3    2   10    8        0.0000010737
    3    2   11    8        0.0000028048
    3    2    9    9        0.0000002371
    3    2   10    9       -0.0000229489
    3    2   11    9       -0.0000597996
    3    2   10   10        0.0004236520
    3    2   11   10        0.0000000097
    3    2   11   11        0.0004236724
    4    2    4    2        0.0241304408
    4    2    5    2       -0.0000000262
    4    2    6    2       -0.0000021853
    4    2    7    2        0.0006085665
    4    2    8    2       -0.0000018781
    4    2    9    2        0.0000000224
    4    2   10    2        0.0014824240
    4    2   11    2       -0.0005783831
    4    2    3    3        0.0000018304
    4    2    4    3        0.0001338259
    4    2    5    3        0.0000000029
    4    2    6    3       -0.0000000029
    4    2    7    3        0.0000025207
    4    2    8    3       -0.0000000116
    4    2    9    3        0.0000026099
    4    2   10    3        0.0000216912
    4    2   11    3       -0.0000084685
    4    2    4    4       -0.0000026958
    4    2    5    4        0.0002440392
    4    2    6    4       -0.0027059655
    4    2    7    4        0.0000638273
    4    2    8    4        0.0041148163
    4    2    9    4        0.0000617477
    4    2   10    4        0.0001068558
    4    2   11    4        0.0002793940
    4    2    5    5        0.0000057630
    4    2    6    5        0.0000000199
    4    2    7    5       -0.0051932420
    4    2    8    5        0.0000000214
    4    2    9    5        0.0000000007
    4    2   10    5        0.0002324894
    4    2   11    5       -0.0000850516
    4    2    6    6        0.0000038259
    4    2    7    6       -0.0002098993
    4    2    8    6       -0.0000000859
    4    2    9    6       -0.0000000062
    4    2   10    6        0.0047209839
    4    2   11    6       -0.0018418238
    4    2    7    7        0.0000053486
    4    2    8    7        0.0000202804
    4    2    9    7        0.0000029591
    4    2   10    7        0.0044230516
    4    2   11    7        0.0117622642
    4    2    8    8        0.0000049836
    4    2    9    8       -0.0000000226
    4    2   10    8       -0.0165160800
    4    2   11    8        0.0064435974
    4    2    9    9        0.0000043234
    4    2   10    9        0.0000720359
    4    2   11    9       -0.0000281058
    4    2   10   10        0.0002561418
    4    2   11   10        0.0002835412
    4    2   11   11       -0.0002515112
    5    2    5    2        0.0241346833
    5    2    6    2        0.0003555215
    5    2    7    2        0.0000037405
    5    2    8    2        0.0003055258
    5    2    9    2       -0.0000037036
    5    2   10    2        0.0005801078
    5    2   11    2        0.0014870064
    5    2    3    3       -0.0002978767
    5    2    4    3        0.0000000029
    5    2    5    3        0.0001338412
    5    2    6    3        0.0000004927
    5    2    7    3        0.0000000163
    5    2    8    3        0.0000018948
    5    2    9    3       -0.0004313586
    5    2   10    3        0.0000084630
    5    2   11    3        0.0000217162
    5    2    4    4       -0.0000496059
    5    2    5    4        0.0000039580
    5    2    6    4        0.0000000199
    5    2    7    4       -0.0051904097
    5    2    8    4        0.0000000214
    5    2    9    4        0.0000000008
    5    2   10    4       -0.0002022101
    5    2   11    4        0.0000814700
    5    2    5    5       -0.0004493867
    5    2    6    5       -0.0027093378
    5    2    7    5       -0.0000638353
    5    2    8    5        0.0041114073
    5    2    9    5        0.0000617776
    5    2   10    5       -0.0001106433
    5    2   11    5       -0.0002893962
    5    2    6    6       -0.0006224049
    5    2    7    6       -0.0000012903
    5    2    8    6        0.0000140659
    5    2    9    6        0.0000011448
    5    2   10    6        0.0018411783
    5    2   11    6        0.0047192588
    5    2    7    7       -0.0008700781
    5    2    8    7        0.0000001258
    5    2    9    7        0.0000000168
    5    2   10    7        0.0117652285
    5    2   11    7       -0.0044242329
    5    2    8    8       -0.0008110753
    5    2    9    8        0.0000036973
    5    2   10    8       -0.0064455920
    5    2   11    8       -0.0165213838
    5    2    9    9       -0.0007092434
    5    2   10    9        0.0000281169
    5    2   11    9        0.0000720774
    5    2   10   10       -0.0003157992
    5    2   11   10       -0.0000566101
    5    2   11   11       -0.0004487915
    6    2    6    2        0.0130780668
    6    2    7    2       -0.0000000005
    6    2    8    2        0.0000834766
    6    2    9    2        0.0001538987
    6    2   10    2       -0.0000032827
    6    2   11    2       -0.0000085696
    6    2    3    3        0.0037926605
    6    2    4    3        0.0000000098
    6    2    5    3       -0.0000015866
    6    2    6    3        0.0002725499
    6    2    7    3       -0.0000000077
    6    2    8    3        0.0001311253
    6    2    9    3       -0.0063358954
    6    2   10    3       -0.0000000075
    6    2   11    3       -0.0000000206
    6    2    4    4        0.0002027694
    6    2    5    4        0.0000000336
    6    2    6    4        0.0000010177
    6    2    7    4       -0.0001027839
    6    2    8    4       -0.0000003498
    6    2    9    4        0.0000000051
    6    2   10    4        0.0024784022
    6    2   11    4       -0.0009669122
    6    2    5    5        0.0001972891
    6    2    6    5       -0.0001655554
    6    2    7    5       -0.0000006320
    6    2    8    5        0.0000569628
    6    2    9    5       -0.0000008999
    6    2   10    5        0.0009665402
    6    2   11    5        0.0024774058
    6    2    6    6        0.0015117869
    6    2    7    6       -0.0000000049
    6    2    8    6        0.0052894197
    6    2    9    6       -0.0001734957
    6    2   10    6        0.0000267594
    6    2   11    6        0.0000699258
    6    2    7    7       -0.0005007925
    6    2    8    7        0.0000000048
    6    2    9    7        0.0000000010
    6    2   10    7        0.0001894522
    6    2   11    7       -0.0000725742
    6    2    8    8        0.0000635713
    6    2    9    8       -0.0002835452
    6    2   10    8       -0.0000991384
    6    2   11    8       -0.0002588052
    6    2    9    9       -0.0007171523
    6    2   10    9       -0.0000002676
    6    2   11    9       -0.0000006967
    6    2   10   10       -0.0003000534
    6    2   11   10       -0.0000007623
    6    2   11   11       -0.0003017499
    7    2    7    2        0.0129767038
    7    2    8    2        0.0000000006
    7    2    9    2        0.0000000039
    7    2   10    2       -0.0000330675
    7    2   11    2        0.0000126672
    7    2    3    3        0.0000000063
    7    2    4    3        0.0000030592
    7    2    5    3        0.0000000177
    7    2    6    3       -0.0000000052
    7    2    7    3        0.0000684152
    7    2    8    3       -0.0000000055
    7    2    9    3       -0.0000000054
    7    2   10    3        0.0000000720
    7    2   11    3       -0.0000000284
    7    2    4    4        0.0000094564
    7    2    5    4       -0.0007690717
    7    2    6    4       -0.0000989023
    7    2    7    4        0.0000017584
    7    2    8    4        0.0000958463
    7    2    9    4        0.0000016431
    7    2   10    4        0.0024239632
    7    2   11    4        0.0064460303
    7    2    5    5       -0.0000094544
    7    2    6    5       -0.0000006080
    7    2    7    5       -0.0002860425
    7    2    8    5        0.0000005896
    7    2    9    5        0.0000000092
    7    2   10    5        0.0064459777
    7    2   11    5       -0.0024239524
    7    2    6    6       -0.0000000008
    7    2    7    6       -0.0008159667
    7    2    8    6        0.0000000012
    7    2    9    6        0.0000000011
    7    2   10    6        0.0001413969
    7    2   11    6       -0.0000541654
    7    2    7    7        0.0000000087
    7    2    8    7        0.0048456907
    7    2    9    7        0.0000432517
    7    2   10    7        0.0001226377
    7    2   11    7        0.0003202218
    7    2    8    8        0.0000000004
    7    2    9    8       -0.0000000013
    7    2   10    8       -0.0004408906
    7    2   11    8        0.0001688935
    7    2    9    9        0.0000000057
    7    2   10    9        0.0000013444
    7    2   11    9       -0.0000005160
    7    2   10   10       -0.0004489586
    7    2   11   10       -0.0005000055
    7    2   11   11        0.0004489625
    8    2    8    2        0.0113046077
    8    2    9    2       -0.0001585963
    8    2   10    2        0.0000483567
    8    2   11    2        0.0001262039
    8    2    3    3        0.0193186775
    8    2    4    3       -0.0000000292
    8    2    5    3        0.0000047571
    8    2    6    3       -0.0000434987
    8    2    7    3        0.0000000042
    8    2    8    3        0.0000359601
    8    2    9    3       -0.0110984833
    8    2   10    3        0.0000003495
    8    2   11    3        0.0000009132
    8    2    4    4        0.0136864185
    8    2    5    4        0.0000000454
    8    2    6    4        0.0000001463
    8    2    7    4       -0.0000458301
    8    2    8    4        0.0000005818
    8    2    9    4       -0.0000000199
    8    2   10    4       -0.0099391207
    8    2   11    4        0.0038776520
    8    2    5    5        0.0136790488
    8    2    6    5       -0.0000237682
    8    2    7    5       -0.0000002815
    8    2    8    5       -0.0000948146
    8    2    9    5        0.0000033099
    8    2   10    5       -0.0038785883
    8    2   11    5       -0.0099416072
    8    2    6    6        0.0130216146
    8    2    7    6        0.0000000049
    8    2    8    6       -0.0001788221
    8    2    9    6        0.0000483641
    8    2   10    6        0.0000104588
    8    2   11    6        0.0000272966
    8    2    7    7        0.0125727281
    8    2    8    7        0.0000000023
    8    2    9    7       -0.0000000106
    8    2   10    7        0.0000939580
    8    2   11    7       -0.0000359929
    8    2    8    8        0.0059322228
    8    2    9    8        0.0001732000
    8    2   10    8       -0.0000962563
    8    2   11    8       -0.0002514806
    8    2    9    9        0.0135810540
    8    2   10    9        0.0000011934
    8    2   11    9        0.0000031139
    8    2   10   10        0.0125850282
    8    2   11   10       -0.0000014366
    8    2   11   11        0.0125818272
    9    2    9    2        0.0084685323
    9    2   10    2       -0.0000013077
    9    2   11    2       -0.0000034127
    9    2    3    3       -0.0000009403
    9    2    4    3        0.0000012114
    9    2    5    3       -0.0002006609
    9    2    6    3       -0.0011798925
    9    2    7    3        0.0000000006
    9    2    8    3       -0.0021948844
    9    2    9    3       -0.0000003257
    9    2   10    3       -0.0000038514
    9    2   11    3       -0.0000100419
    9    2    4    4        0.0001374732
    9    2    5    4       -0.0000000001
    9    2    6    4        0.0000000202
    9    2    7    4        0.0000011168
    9    2    8    4       -0.0000000190
    9    2    9    4        0.0000008838
    9    2   10    4        0.0001412509
    9    2   11    4       -0.0000551083
    9    2    5    5        0.0001375114
    9    2    6    5       -0.0000032766
    9    2    7    5        0.0000000058
    9    2    8    5        0.0000031307
    9    2    9    5       -0.0001479690
    9    2   10    5        0.0000551243
    9    2   11    5        0.0001412998
    9    2    6    6        0.0001818535
    9    2    7    6       -0.0000000026
    9    2    8    6       -0.0000465041
    9    2    9    6       -0.0032089061
    9    2   10    6       -0.0000007860
    9    2   11    6       -0.0000020498
    9    2    7    7        0.0001526305
    9    2    8    7       -0.0000000031
    9    2    9    7        0.0000000025
    9    2   10    7       -0.0000005364
    9    2   11    7        0.0000002031
    9    2    8    8        0.0002995499
    9    2    9    8       -0.0054774356
    9    2   10    8        0.0000017985
    9    2   11    8        0.0000046960
    9    2    9    9       -0.0000010613
    9    2   10    9       -0.0000404324
    9    2   11    9       -0.0001055081
    9    2   10   10        0.0002341569
    9    2   11   10        0.0000000229
    9    2   11   11        0.0002342072
   10    2   10    2        0.0071694864
   10    2   11    2        0.0000019195
   10    2    3    3       -0.0000012239
   10    2    4    3        0.0001098947
   10    2    5    3        0.0000428833
   10    2    6    3        0.0000001945
   10    2    7    3        0.0000019374
   10    2    8    3        0.0000007075
   10    2    9    3       -0.0000104220
   10    2   10    3        0.0000423859
   10    2   11    3        0.0000000172
   10    2    4    4        0.0000764820
   10    2    5    4        0.0000096698
   10    2    6    4        0.0015143737
   10    2    7    4        0.0014805821
   10    2    8    4       -0.0053208508
   10    2    9    4        0.0000692321
   10    2   10    4        0.0000337378
   10    2   11    4        0.0000404273
   10    2    5    5       -0.0000801546
   10    2    6    5        0.0005896274
   10    2    7    5        0.0039343503
   10    2    8    5       -0.0020773748
   10    2    9    5        0.0000270319
   10    2   10    5       -0.0000129788
   10    2   11    5       -0.0000336796
   10    2    6    6       -0.0000011817
   10    2    7    6        0.0000500522
   10    2    8    6       -0.0000197860
   10    2    9    6        0.0000004737
   10    2   10    6       -0.0005691409
   10    2   11    6       -0.0000005980
   10    2    7    7        0.0000286163
   10    2    8    7       -0.0000778621
   10    2    9    7        0.0000022976
   10    2   10    7       -0.0002987202
   10    2   11    7       -0.0003344907
   10    2    8    8       -0.0000600971
   10    2    9    8        0.0000014855
   10    2   10    8       -0.0011781951
   10    2   11    8       -0.0000024309
   10    2    9    9       -0.0000297359
   10    2   10    9        0.0000906781
   10    2   11    9        0.0000000300
   10    2   10   10        0.0000463349
   10    2   11   10        0.0000116509
   10    2   11   11       -0.0000841331
   11    2   11    2        0.0071737631
   11    2    3    3       -0.0000033395
   11    2    4    3       -0.0000428759
   11    2    5    3        0.0001099272
   11    2    6    3        0.0000005091
   11    2    7    3       -0.0000007437
   11    2    8    3        0.0000018474
   11    2    9    3       -0.0000270910
   11    2   10    3        0.0000000172
   11    2   11    3        0.0000424235
   11    2    4    4        0.0001998945
   11    2    5    4       -0.0000008178
   11    2    6    4       -0.0005907930
   11    2    7    4        0.0039372544
   11    2    8    4        0.0020758969
   11    2    9    4       -0.0000270109
   11    2   10    4        0.0000350588
   11    2   11    4       -0.0000331508
   11    2    5    5       -0.0002096412
   11    2    6    5        0.0015112708
   11    2    7    5       -0.0014794583
   11    2    8    5       -0.0053247804
   11    2    9    5        0.0000692919
   11    2   10    5       -0.0000336972
   11    2   11    5       -0.0000888856
   11    2    6    6       -0.0000030966
   11    2    7    6       -0.0000191736
   11    2    8    6       -0.0000516537
   11    2    9    6        0.0000012363
   11    2   10    6       -0.0000005982
   11    2   11    6       -0.0005704735
   11    2    7    7        0.0000746959
   11    2    8    7        0.0000298270
   11    2    9    7       -0.0000008806
   11    2   10    7       -0.0003308776
   11    2   11    7        0.0002987194
   11    2    8    8       -0.0001570067
   11    2    9    8        0.0000038773
   11    2   10    8       -0.0000024295
   11    2   11    8       -0.0011836087
   11    2    9    9       -0.0000777246
   11    2   10    9        0.0000000303
   11    2   11    9        0.0000907447
   11    2   10   10        0.0000162147
   11    2   11   10       -0.0000859024
   11    2   11   11       -0.0001152878
    3    3    3    3        0.1605629176
    3    3    4    3       -0.0000000005
    3    3    5    3        0.0000000365
    3    3    6    3       -0.0000007061
    3    3    7    3        0.0000000150
    3    3    8    3        0.0000017774
    3    3    9    3       -0.0336166022
    3    3   10    3       -0.0000000040
    3    3   11    3       -0.0000000091
    3    3    4    4        0.1393970820
    3    3    5    4       -0.0000000106
    3    3    6    4       -0.0000003600
    3    3    7    4        0.0001158371
    3    3    8    4        0.0000001667
    3    3    9    4       -0.0000000000
    3    3   10    4       -0.0199395991
    3    3   11    4        0.0077792050
    3    3    5    5        0.1393988131
    3    3    6    5        0.0000585717
    3    3    7    5        0.0000007123
    3    3    8    5       -0.0000273559
    3    3    9    5        0.0000000169
    3    3   10    5       -0.0077790203
    3    3   11    5       -0.0199391074
    3    3    6    6        0.1307311935
    3    3    7    6        0.0000000082
    3    3    8    6        0.0028334965
    3    3    9    6        0.0000025851
    3    3   10    6       -0.0000208200
    3    3   11    6       -0.0000543710
    3    3    7    7        0.1289368553
    3    3    8    7        0.0000000127
    3    3    9    7       -0.0000000418
    3    3   10    7       -0.0001443986
    3    3   11    7        0.0000553149
    3    3    8    8        0.1246247621
    3    3    9    8       -0.0000008788
    3    3   10    8        0.0000835392
    3    3   11    8        0.0002176796
    3    3    9    9        0.1520477076
    3    3   10    9        0.0000000094
    3    3   11    9        0.0000000212
    3    3   10   10        0.1399601098
    3    3   11   10        0.0000002921
    3    3   11   11        0.1399607602
    4    3    4    3        0.0119060047
    4    3    5    3       -0.0000000044
    4    3    6    3       -0.0000002881
    4    3    7    3        0.0001447559
    4    3    8    3       -0.0000004498
    4    3    9    3       -0.0000000004
    4    3   10    3       -0.0023472104
    4    3   11    3        0.0009157310
    4    3    4    4       -0.0000000122
    4    3    5    4        0.0000011305
    4    3    6    4        0.0001392460
    4    3    7    4        0.0000003585
    4    3    8    4       -0.0000748728
    4    3    9    4        0.0029840940
    4    3   10    4        0.0000008350
    4    3   11    4        0.0000021965
    4    3    5    5        0.0000000244
    4    3    6    5        0.0000000005
    4    3    7    5       -0.0000293433
    4    3    8    5        0.0000000021
    4    3    9    5       -0.0000000086
    4    3   10    5        0.0000020502
    4    3   11    5       -0.0000007495
    4    3    6    6        0.0000000071
    4    3    7    6        0.0000022656
    4    3    8    6       -0.0000000092
    4    3    9    6       -0.0000005696
    4    3   10    6        0.0000789302
    4    3   11    6       -0.0000307924
    4    3    7    7        0.0000000261
    4    3    8    7       -0.0000030103
    4    3    9    7        0.0001643207
    4    3   10    7        0.0000109240
    4    3   11    7        0.0000290511
    4    3    8    8        0.0000000549
    4    3    9    8       -0.0000009703
    4    3   10    8       -0.0001230122
    4    3   11    8        0.0000479896
    4    3    9    9       -0.0000000008
    4    3   10    9        0.0054547732
    4    3   11    9       -0.0021281301
    4    3   10   10        0.0000030862
    4    3   11   10        0.0000034166
    4    3   11   11       -0.0000030309
    5    3    5    3        0.0119067237
    5    3    6    3        0.0000468528
    5    3    7    3        0.0000008897
    5    3    8    3        0.0000731356
    5    3    9    3        0.0000000431
    5    3   10    3       -0.0009153824
    5    3   11    3       -0.0023462841
    5    3    4    4       -0.0000003013
    5    3    5    4        0.0000000157
    5    3    6    4        0.0000000005
    5    3    7    4       -0.0000293337
    5    3    8    4        0.0000000021
    5    3    9    4       -0.0000000085
    5    3   10    4       -0.0000011476
    5    3   11    4        0.0000004756
    5    3    5    5       -0.0000017055
    5    3    6    5        0.0001392508
    5    3    7    5       -0.0000003628
    5    3    8    5       -0.0000749049
    5    3    9    5        0.0029854852
    5    3   10    5       -0.0000011089
    5    3   11    5       -0.0000029108
    5    3    6    6       -0.0000011753
    5    3    7    6        0.0000000107
    5    3    8    6        0.0000015142
    5    3    9    6        0.0000922022
    5    3   10    6        0.0000307987
    5    3   11    6        0.0000789403
    5    3    7    7       -0.0000041117
    5    3    8    7       -0.0000000166
    5    3    9    7        0.0000010146
    5    3   10    7        0.0000290715
    5    3   11    7       -0.0000109326
    5    3    8    8       -0.0000089590
    5    3    9    8        0.0001572606
    5    3   10    8       -0.0000480186
    5    3   11    8       -0.0001230744
    5    3    9    9        0.0000000515
    5    3   10    9        0.0021287576
    5    3   11    9        0.0054564430
    5    3   10   10       -0.0000036165
    5    3   11   10       -0.0000007401
    5    3   11   11       -0.0000053501
    6    3    6    3        0.0078297314
    6    3    7    3        0.0000000055
    6    3    8    3        0.0052435017
    6    3    9    3        0.0000015676
    6    3   10    3        0.0000011808
    6    3   11    3        0.0000030206
    6    3    4    4        0.0001741495
    6    3    5    4        0.0000000003
    6    3    6    4       -0.0000000027
    6    3    7    4        0.0000000093
    6    3    8    4        0.0000000029
    6    3    9    4       -0.0000002604
    6    3   10    4        0.0001243448
    6    3   11    4       -0.0000485103
    6    3    5    5        0.0001741380
    6    3    6    5        0.0000004211
    6    3    7    5       -0.0000000020
    6    3    8    5       -0.0000004497
    6    3    9    5        0.0000399768
    6    3   10    5        0.0000485056
    6    3   11    5        0.0001243285
    6    3    6    6        0.0004151748
    6    3    7    6       -0.0000000150
    6    3    8    6        0.0000667113
    6    3    9    6       -0.0032571730
    6    3   10    6        0.0000000804
    6    3   11    6        0.0000002119
    6    3    7    7        0.0001635775
    6    3    8    7       -0.0000000055
    6    3    9    7       -0.0000000044
    6    3   10    7        0.0000001210
    6    3   11    7       -0.0000000480
    6    3    8    8        0.0002086455
    6    3    9    8       -0.0045589270
    6    3   10    8       -0.0000002864
    6    3   11    8       -0.0000007467
    6    3    9    9       -0.0000026561
    6    3   10    9        0.0000097875
    6    3   11    9        0.0000256134
    6    3   10   10        0.0001767663
    6    3   11   10       -0.0000000078
    6    3   11   11        0.0001767537
    7    3    7    3        0.0064520834
    7    3    8    3        0.0000000053
    7    3    9    3       -0.0000000237
    7    3   10    3       -0.0000247443
    7    3   11    3        0.0000094787
    7    3    4    4        0.0000000535
    7    3    5    4       -0.0000036395
    7    3    6    4        0.0000024897
    7    3    7    4        0.0000000064
    7    3    8    4       -0.0000017085
    7    3    9    4        0.0000781061
    7    3   10    4        0.0000092974
    7    3   11    4        0.0000247588
    7    3    5    5       -0.0000000359
    7    3    6    5        0.0000000133
    7    3    7    5       -0.0000010893
    7    3    8    5       -0.0000000090
    7    3    9    5        0.0000004813
    7    3   10    5        0.0000247501
    7    3   11    5       -0.0000093199
    7    3    6    6       -0.0000000011
    7    3    7    6        0.0000698240
    7    3    8    6       -0.0000000043
    7    3    9    6       -0.0000000047
    7    3   10    6        0.0000012477
    7    3   11    6       -0.0000004775
    7    3    7    7        0.0000000226
    7    3    8    7       -0.0000335327
    7    3    9    7        0.0034365929
    7    3   10    7        0.0000000434
    7    3   11    7        0.0000001117
    7    3    8    8        0.0000000079
    7    3    9    8       -0.0000000064
    7    3   10    8       -0.0000023631
    7    3   11    8        0.0000009044
    7    3    9    9        0.0000000289
    7    3   10    9        0.0000419074
    7    3   11    9       -0.0000160615
    7    3   10   10        0.0000365444
    7    3   11   10        0.0000406807
    7    3   11   11       -0.0000365093
    8    3    8    3        0.0071929297
    8    3    9    3       -0.0000008415
    8    3   10    3        0.0000096405
    8    3   11    3        0.0000250902
    8    3    4    4        0.0000669973
    8    3    5    4        0.0000000009
    8    3    6    4       -0.0000000094
    8    3    7    4       -0.0000004231
    8    3    8    4        0.0000000108
    8    3    9    4       -0.0000004134
    8    3   10    4        0.0000286804
    8    3   11    4       -0.0000111901
    8    3    5    5        0.0000669666
    8    3    6    5        0.0000015352
    8    3    7    5       -0.0000000024
    8    3    8    5       -0.0000017564
    8    3    9    5        0.0000650697
    8    3   10    5        0.0000111723
    8    3   11    5        0.0000286415
    8    3    6    6        0.0002200009
    8    3    7    6       -0.0000000082
    8    3    8    6        0.0000656377
    8    3    9    6       -0.0033678700
    8    3   10    6        0.0000003813
    8    3   11    6        0.0000009964
    8    3    7    7        0.0000586657
    8    3    8    7       -0.0000000047
    8    3    9    7       -0.0000000059
    8    3   10    7        0.0000003278
    8    3   11    7       -0.0000001270
    8    3    8    8        0.0000194249
    8    3    9    8       -0.0020544679
    8    3   10    8       -0.0000010421
    8    3   11    8       -0.0000027211
    8    3    9    9        0.0000003090
    8    3   10    9        0.0000227669
    8    3   11    9        0.0000595018
    8    3   10   10        0.0000284081
    8    3   11   10       -0.0000000162
    8    3   11   11        0.0000283651
    9    3    9    3        0.0307367118
    9    3   10    3       -0.0000000000
    9    3   11    3       -0.0000000021
    9    3    4    4       -0.0151287754
    9    3    5    4       -0.0000000264
    9    3    6    4       -0.0000006104
    9    3    7    4        0.0001499479
    9    3    8    4        0.0000001212
    9    3    9    4       -0.0000000006
    9    3   10    4        0.0128666385
    9    3   11    4       -0.0050197820
    9    3    5    5       -0.0151245455
    9    3    6    5        0.0000998748
    9    3    7    5        0.0000009323
    9    3    8    5       -0.0000212430
    9    3    9    5        0.0000000167
    9    3   10    5        0.0050202135
    9    3   11    5        0.0128677902
    9    3    6    6       -0.0124715988
    9    3    7    6       -0.0000000034
    9    3    8    6       -0.0035727491
    9    3    9    6       -0.0000023319
    9    3   10    6       -0.0000302265
    9    3   11    6       -0.0000788709
    9    3    7    7       -0.0079532972
    9    3    8    7       -0.0000000103
    9    3    9    7        0.0000000333
    9    3   10    7       -0.0002083426
    9    3   11    7        0.0000797867
    9    3    8    8       -0.0105434560
    9    3    9    8        0.0000008314
    9    3   10    8        0.0001218104
    9    3   11    8        0.0003181316
    9    3    9    9       -0.0305241412
    9    3   10    9        0.0000000061
    9    3   11    9        0.0000000188
    9    3   10   10       -0.0188994220
    9    3   11   10        0.0000007069
    9    3   11   11       -0.0188978467
   10    3   10    3        0.0050769706
   10    3   11    3        0.0000004235
   10    3    4    4        0.0000003461
   10    3    5    4        0.0000001460
   10    3    6    4        0.0000104488
   10    3    7    4        0.0000055169
   10    3    8    4       -0.0000320696
   10    3    9    4        0.0027888998
   10    3   10    4        0.0000005147
   10    3   11    4        0.0000002417
   10    3    5    5       -0.0000004465
   10    3    6    5        0.0000040806
   10    3    7    5        0.0000146521
   10    3    8    5       -0.0000125309
   10    3    9    5        0.0010887028
   10    3   10    5       -0.0000000716
   10    3   11    5       -0.0000006013
   10    3    6    6       -0.0000000081
   10    3    7    6       -0.0000000434
   10    3    8    6        0.0000000296
   10    3    9    6        0.0000045361
   10    3   10    6        0.0000246774
   10    3   11    6        0.0000000031
   10    3    7    7        0.0000000052
   10    3    8    7       -0.0000001988
   10    3    9    7       -0.0000216702
   10    3   10    7        0.0000162647
   10    3   11    7        0.0000181009
   10    3    8    8       -0.0000008507
   10    3    9    8        0.0000182906
   10    3   10    8       -0.0000583664
   10    3   11    8       -0.0000000263
   10    3    9    9       -0.0000000038
   10    3   10    9       -0.0001245674
   10    3   11    9        0.0000007662
   10    3   10   10        0.0000006015
   10    3   11   10        0.0000000072
   10    3   11   11       -0.0000010060
   11    3   11    3        0.0050779146
   11    3    4    4        0.0000009083
   11    3    5    4       -0.0000000413
   11    3    6    4       -0.0000040753
   11    3    7    4        0.0000146662
   11    3    8    4        0.0000125104
   11    3    9    4       -0.0010880698
   11    3   10    4        0.0000009095
   11    3   11    4       -0.0000005050
   11    3    5    5       -0.0000011717
   11    3    6    5        0.0000104556
   11    3    7    5       -0.0000055088
   11    3    8    5       -0.0000321139
   11    3    9    5        0.0027905840
   11    3   10    5       -0.0000005978
   11    3   11    5       -0.0000014222
   11    3    6    6       -0.0000000236
   11    3    7    6        0.0000000169
   11    3    8    6        0.0000000770
   11    3    9    6        0.0000118941
   11    3   10    6        0.0000000039
   11    3   11    6        0.0000246919
   11    3    7    7        0.0000000119
   11    3    8    7        0.0000000762
   11    3    9    7        0.0000082948
   11    3   10    7        0.0000181309
   11    3   11    7       -0.0000162653
   11    3    8    8       -0.0000022226
   11    3    9    8        0.0000478050
   11    3   10    8       -0.0000000280
   11    3   11    8       -0.0000584453
   11    3    9    9       -0.0000000081
   11    3   10    9        0.0000007660
   11    3   11    9       -0.0001228604
   11    3   10   10        0.0000004848
   11    3   11   10       -0.0000011891
   11    3   11   11       -0.0000015420
    4    4    4    4        0.1459226148
    4    4    5    4        0.0001479039
    4    4    6    4        0.0000011789
    4    4    7    4        0.0002539211
    4    4    8    4        0.0000006290
    4    4    9    4       -0.0000000129
    4    4   10    4       -0.0132375538
    4    4   11    4        0.0051780662
    4    4    5    5        0.1194610429
    4    4    6    5       -0.0000853362
    4    4    7    5        0.0000026815
    4    4    8    5       -0.0001380358
    4    4    9    5        0.0000005512
    4    4   10    5       -0.0053092118
    4    4   11    5       -0.0136433455
    4    4    6    6        0.1252854098
    4    4    7    6        0.0000055858
    4    4    8    6       -0.0007016521
    4    4    9    6       -0.0001134954
    4    4   10    6       -0.0000434095
    4    4   11    6       -0.0001114518
    4    4    7    7        0.1243246563
    4    4    8    7        0.0000143356
    4    4    9    7       -0.0000000333
    4    4   10    7        0.0000435533
    4    4   11    7       -0.0000183396
    4    4    8    8        0.1190350879
    4    4    9    8       -0.0002161110
    4    4   10    8       -0.0000047185
    4    4   11    8       -0.0000191637
    4    4    9    9        0.1313681571
    4    4   10    9        0.0000004252
    4    4   11    9        0.0000011325
    4    4   10   10        0.1355248849
    4    4   11   10       -0.0038267831
    4    4   11   11        0.1270732359
    5    4    5    4        0.0012026048
    5    4    6    4       -0.0000532049
    5    4    7    4        0.0000025460
    5    4    8    4        0.0000177820
    5    4    9    4        0.0000007019
    5    4   10    4       -0.0002849217
    5    4   11    4       -0.0007651316
    5    4    5    5       -0.0001479031
    5    4    6    5       -0.0000020522
    5    4    7    5       -0.0000911309
    5    4    8    5       -0.0000013204
    5    4    9    5        0.0000000198
    5    4   10    5       -0.0007651626
    5    4   11    5        0.0002849351
    5    4    6    6       -0.0000000520
    5    4    7    6       -0.0004539246
    5    4    8    6       -0.0000000325
    5    4    9    6        0.0000000003
[...]
    8    5    8    8        0.0000739329
    8    5    9    8       -0.0000037170
    8    5   10    8       -0.0007665551
    8    5   11    8       -0.0019647272
    8    5    9    9       -0.0000022444
    8    5   10    9       -0.0000247746
    8    5   11    9       -0.0000635023
    8    5   10   10       -0.0000464704
    8    5   11   10        0.0000529230
    8    5   11   11        0.0000718204
    9    5    9    5        0.0049028141
    9    5   10    5       -0.0000010542
    9    5   11    5       -0.0000027763
    9    5    6    6       -0.0000007417
    9    5    7    6        0.0000000058
    9    5    8    6        0.0000008210
    9    5    9    6        0.0000854996
    9    5   10    6        0.0000161760
    9    5   11    6        0.0000414614
    9    5    7    7       -0.0000021523
    9    5    8    7       -0.0000000096
    9    5    9    7        0.0000005723
    9    5   10    7        0.0000242403
    9    5   11    7       -0.0000091120
    9    5    8    8       -0.0000067335
    9    5    9    8        0.0001448831
    9    5   10    8       -0.0000362649
    9    5   11    8       -0.0000929542
    9    5    9    9        0.0000000182
    9    5   10    9        0.0007718556
    9    5   11    9        0.0019784695
    9    5   10   10       -0.0000014157
    9    5   11   10       -0.0000012644
    9    5   11   11       -0.0000042851
   10    5   10    5        0.0070697257
   10    5   11    5        0.0042437077
   10    5    6    6       -0.0037672254
   10    5    7    6       -0.0009129981
   10    5    8    6        0.0005060352
   10    5    9    6       -0.0000343911
   10    5   10    6        0.0000442276
   10    5   11    6       -0.0000406798
   10    5    7    7       -0.0040002763
   10    5    8    7        0.0027580258
   10    5    9    7        0.0000183484
   10    5   10    7       -0.0000279509
   10    5   11    7        0.0001114856
   10    5    8    8       -0.0030479439
   10    5    9    8       -0.0000756546
   10    5   10    8       -0.0001315971
   10    5   11    8        0.0001725617
   10    5    9    9       -0.0063227516
   10    5   10    9        0.0000005441
   10    5   11    9       -0.0000015708
   10    5   10   10       -0.0072064923
   10    5   11   10       -0.0011449527
   10    5   11   11       -0.0049115999
   11    5   11    5        0.0162511545
   11    5    6    6       -0.0096560944
   11    5    7    6        0.0003433176
   11    5    8    6        0.0012970848
   11    5    9    6       -0.0000881533
   11    5   10    6       -0.0000400483
   11    5   11    6       -0.0000456674
   11    5    7    7       -0.0102534776
   11    5    8    7       -0.0010371329
   11    5    9    7       -0.0000068806
   11    5   10    7       -0.0001722272
   11    5   11    7        0.0000284779
   11    5    8    8       -0.0078123607
   11    5    9    8       -0.0001939196
   11    5   10    8        0.0001704296
   11    5   11    8        0.0002517728
   11    5    9    9       -0.0162063696
   11    5   10    9       -0.0000015680
   11    5   11    9       -0.0000029736
   11    5   10   10       -0.0152996254
   11    5   11   10        0.0006106859
   11    5   11   11       -0.0157613606
    6    6    6    6        0.1287969871
    6    6    7    6        0.0000000029
    6    6    8    6        0.0030458221
    6    6    9    6       -0.0002659153
    6    6   10    6       -0.0000451931
    6    6   11    6       -0.0001180411
    6    6    7    7        0.1186982805
    6    6    8    7        0.0000000014
    6    6    9    7       -0.0000000083
    6    6   10    7       -0.0003081362
    6    6   11    7        0.0001180386
    6    6    8    8        0.1136417852
    6    6    9    8       -0.0003947612
    6    6   10    8        0.0001678413
    6    6   11    8        0.0004379006
    6    6    9    9        0.1246097404
    6    6   10    9       -0.0000001957
    6    6   11    9       -0.0000005086
    6    6   10   10        0.1204314821
    6    6   11   10        0.0000011061
    6    6   11   11        0.1204339413
    7    6    7    6        0.0045411947
    7    6    8    6       -0.0000000045
    7    6    9    6        0.0000000093
    7    6   10    6       -0.0000674633
    7    6   11    6        0.0000258433
    7    6    7    7        0.0000000119
    7    6    8    7       -0.0030822413
    7    6    9    7        0.0000404538
    7    6   10    7       -0.0000561248
    7    6   11    7       -0.0001464529
    7    6    8    8        0.0000000032
    7    6    9    8        0.0000000116
    7    6   10    8        0.0001681473
    7    6   11    8       -0.0000644125
    7    6    9    9        0.0000000068
    7    6   10    9        0.0000009073
    7    6   11    9       -0.0000003490
    7    6   10   10        0.0018137537
    7    6   11   10        0.0020199665
    7    6   11   11       -0.0018137415
    8    6    8    6        0.0051870295
    8    6    9    6       -0.0000421164
    8    6   10    6        0.0000117113
    8    6   11    6        0.0000305475
    8    6    7    7       -0.0031949920
    8    6    8    7        0.0000000016
    8    6    9    7        0.0000000018
    8    6   10    7        0.0000351379
    8    6   11    7       -0.0000134600
    8    6    8    8       -0.0000454038
    8    6    9    8       -0.0000073350
    8    6   10    8       -0.0000047845
    8    6   11    8       -0.0000124843
    8    6    9    9        0.0025696203
    8    6   10    9        0.0000002752
    8    6   11    9        0.0000007190
    8    6   10   10       -0.0023429596
    8    6   11   10        0.0000008308
    8    6   11   11       -0.0023411057
    9    6    9    6        0.0062411858
    9    6   10    6        0.0000002822
    9    6   11    6        0.0000007353
    9    6    7    7       -0.0001009826
    9    6    8    7        0.0000000058
    9    6    9    7        0.0000000022
    9    6   10    7        0.0000003409
    9    6   11    7       -0.0000001284
    9    6    8    8       -0.0001816671
    9    6    9    8        0.0060948183
    9    6   10    8       -0.0000006837
    9    6   11    8       -0.0000017841
    9    6    9    9        0.0000035606
    9    6   10    9        0.0000219449
    9    6   11    9        0.0000572280
    9    6   10   10       -0.0001294916
    9    6   11   10       -0.0000000169
    9    6   11   11       -0.0001295279
   10    6   10    6        0.0028484983
   10    6   11    6        0.0000003337
   10    6    7    7       -0.0000811300
   10    6    8    7        0.0000340925
   10    6    9    7        0.0000014774
   10    6   10    7        0.0026118173
   10    6   11    7        0.0029093177
   10    6    8    8       -0.0000542586
   10    6    9    8        0.0000008308
   10    6   10    8       -0.0049444697
   10    6   11    8        0.0000006145
   10    6    9    9       -0.0000417424
   10    6   10    9        0.0000561938
   10    6   11    9        0.0000000089
   10    6   10   10        0.0000164516
   10    6   11   10        0.0000566003
   10    6   11   11       -0.0000673474
   11    6   11    6        0.0028492383
   11    6    7    7       -0.0002117302
   11    6    8    7       -0.0000130596
   11    6    9    7       -0.0000005665
   11    6   10    7        0.0029082402
   11    6   11    7       -0.0026118212
   11    6    8    8       -0.0001416379
   11    6    9    8        0.0000021667
   11    6   10    8        0.0000006140
   11    6   11    8       -0.0049430967
   11    6    9    9       -0.0001090129
   11    6   10    9        0.0000000088
   11    6   11    9        0.0000562155
   11    6   10   10       -0.0000971734
   11    6   11   10       -0.0000084465
   11    6   11   11       -0.0000355407
    7    7    7    7        0.1277816392
    7    7    8    7        0.0000000043
    7    7    9    7        0.0000000026
    7    7   10    7       -0.0004795906
    7    7   11    7        0.0001837185
    7    7    8    8        0.1134379694
    7    7    9    8       -0.0002052418
    7    7   10    8        0.0002425951
    7    7   11    8        0.0006330455
    7    7    9    9        0.1206659346
    7    7   10    9       -0.0000006492
    7    7   11    9       -0.0000016944
    7    7   10   10        0.1234570026
    7    7   11   10        0.0000000132
    7    7   11   11        0.1234570320
    8    7    8    7        0.0050746979
    8    7    9    7       -0.0000244676
    8    7   10    7        0.0000256104
    8    7   11    7        0.0000668275
    8    7    8    8        0.0000000033
    8    7    9    8        0.0000000071
    8    7   10    8       -0.0000252426
    8    7   11    8        0.0000096684
    8    7    9    9        0.0000000095
    8    7   10    9       -0.0000015020
    8    7   11    9        0.0000005769
    8    7   10   10       -0.0027937524
    8    7   11   10       -0.0031114062
    8    7   11   11        0.0027937705
    9    7    9    7        0.0026504655
    9    7   10    7        0.0000000794
    9    7   11    7        0.0000002112
    9    7    8    8       -0.0000000113
    9    7    9    8        0.0000000015
    9    7   10    8       -0.0000029326
    9    7   11    8        0.0000011252
    9    7    9    9       -0.0000000423
    9    7   10    9        0.0000551876
    9    7   11    9       -0.0000211460
    9    7   10   10        0.0000260932
    9    7   11   10        0.0000290889
    9    7   11   11       -0.0000261444
   10    7   10    7        0.0094363109
   10    7   11    7       -0.0000008416
   10    7    8    8       -0.0003629240
   10    7    9    8        0.0000007332
   10    7   10    8       -0.0073835072
   10    7   11    8       -0.0082252642
   10    7    9    9       -0.0003192205
   10    7   10    9        0.0000228445
   10    7   11    9        0.0000254721
   10    7   10   10       -0.0000594434
   10    7   11   10       -0.0000052839
   10    7   11   11       -0.0002552985
   11    7   11    7        0.0094344743
   11    7    8    8        0.0001390251
   11    7    9    8       -0.0000002774
   11    7   10    8       -0.0082207564
   11    7   11    8        0.0073835261
   11    7    9    9        0.0001222665
   11    7   10    9        0.0000254170
   11    7   11    9       -0.0000228482
   11    7   10   10        0.0001458002
   11    7   11   10        0.0001391302
   11    7   11   11       -0.0000252992
    8    8    8    8        0.1173262828
    8    8    9    8       -0.0004250929
    8    8   10    8        0.0002633274
    8    8   11    8        0.0006873084
    8    8    9    9        0.1218002901
    8    8   10    9       -0.0000024730
    8    8   11    9       -0.0000064558
    8    8   10   10        0.1210099454
    8    8   11   10        0.0000029724
    8    8   11   11        0.1210165646
    9    8    9    8        0.0103203812
    9    8   10    8       -0.0000021705
    9    8   11    8       -0.0000056687
    9    8    9    9        0.0000007343
    9    8   10    9        0.0000476302
    9    8   11    9        0.0001242834
    9    8   10   10       -0.0003098810
    9    8   11   10       -0.0000000437
    9    8   11   11       -0.0003099804
   10    8   10    8        0.0171233143
   10    8   11    8        0.0000032685
   10    8    9    9        0.0002030820
   10    8   10    9       -0.0001173414
   10    8   11    9       -0.0000000575
   10    8   10   10       -0.0001186840
   10    8   11   10       -0.0001794491
   10    8   11   11        0.0003392457
   11    8   11    8        0.0171305954
   11    8    9    9        0.0005297633
   11    8   10    9       -0.0000000567
   11    8   11    9       -0.0001174743
   11    8   10   10        0.0002627844
   11    8   11   10        0.0001697620
   11    8   11   11        0.0003122899
    9    9    9    9        0.1518115514
    9    9   10    9        0.0000000121
    9    9   11    9        0.0000000293
    9    9   10   10        0.1336575936
    9    9   11   10        0.0000017060
    9    9   11   11        0.1336613953
   10    9   10    9        0.0051307290
   10    9   11    9        0.0000013974
   10    9   10   10        0.0000014816
   10    9   11   10        0.0000012177
   10    9   11   11       -0.0000033872
   11    9   11    9        0.0051338433
   11    9   10   10       -0.0000011991
   11    9   11   10       -0.0000024616
   11    9   11   11       -0.0000037783
   10   10   10   10        0.1407870646
   10   10   11   10        0.0013179169
   10   10   11   11        0.1303241000
   11   10   11   10        0.0055158626
   11   10   11   11       -0.0013179408
   11   11   11   11        0.1407870116
 end_two_electron_integrals


 output epsi filename:./pspw_hf_H2.emovecs

 Total PSPW energy     :  -0.1102164433E+01


=== Spin Contamination ===

 <Sexact^2> =    0.0000000000000000     
 <S^2>      =    0.0000000000000000     



== Center of Charge ==

spin up     (    0.0000,    0.0000,    0.0000 )
spin down   (    0.0000,    0.0000,    0.0000 )
     total  (    0.0000,    0.0000,    0.0000 )
ionic       (    0.0000,    0.0000,    0.0000 )


== Molecular Dipole wrt Center of Mass ==

mu   =  (   -0.0000,   -0.0000,   -0.0000 ) au
|mu| =     0.0000 au,       0.0000 Debye

 output psi filename:./pspw_hf_H2.movecs

 Writing Crystallographic Information File:./H2.cif
   - cell not shifted (nwpw:cif_shift_cell .false.)


== Timing ==

cputime in seconds
  prologue    :   0.661609E+01
  main loop   :   0.211527E+03
  epilogue    :   0.572739E-02
  total       :   0.218149E+03
  cputime/step:   0.220341E+01       (      96 evalulations,      43 linesearches)


Time spent doing                        total          step       percent
  total time                 :   0.218149E+03  0.227239E+01       100.0 %
  i/o time                   :   0.777570E-01  0.809969E-03         0.0 %
  FFTs                       :   0.188631E+03  0.196491E+01        86.5 %
  dot products               :   0.263933E+00  0.274931E-02         0.1 %
  geodesic                   :   0.455178E-01  0.474144E-03         0.0 %
  ffm_dgemm                  :   0.470607E-02  0.490215E-04         0.0 %
  fmf_dgemm                  :   0.223581E-01  0.232896E-03         0.0 %
  mmm_dgemm                  :   0.987249E-03  0.102838E-04         0.0 %
  m_diagonalize              :   0.545680E-03  0.568417E-05         0.0 %
  local pseudopotentials     :   0.140904E-01  0.146776E-03         0.0 %
  non-local pseudopotentials :   0.583986E+00  0.608319E-02         0.3 %
  structure factors          :   0.272703E+00  0.284066E-02         0.1 %
  phase factors              :   0.200650E-04  0.209010E-06         0.0 %
  masking and packing        :   0.303633E+01  0.316285E-01         1.4 %
  queue fft                  :   0.931134E+00  0.969931E-02         0.4 %
  queue fft (serial)         :   0.549770E+00  0.572677E-02         0.3 %
  queue fft (message passing):   0.348438E+00  0.362956E-02         0.2 %
  HFX potential              :   0.150988E+03  0.157279E+01        69.2 %
  non-local psp FFM          :   0.317939E+00  0.331187E-02         0.1 %
  non-local psp FMF          :   0.699430E-01  0.728573E-03         0.0 %
  non-local psp FFM A        :   0.857927E-01  0.893674E-03         0.0 %
  non-local psp FFM B        :   0.590100E-01  0.614688E-03         0.0 %

== HFX Counters ==
  HFX Evalulations         =    96
  Lin ACE HFX Evalulations =     0


     >>>  JOB COMPLETED     AT Wed Apr 30 10:19:52 2025  <<<

 Task  times  cpu:      229.9s     wall:      218.2s
 Summary of allocated global arrays
-----------------------------------
  No active global arrays


MA_summarize_allocated_blocks: starting scan ...
MA_summarize_allocated_blocks: scan completed: 0 heap blocks, 0 stack blocks
MA usage statistics:

	allocation statistics:
					      heap	     stack
					      ----	     -----
	current number of blocks	         0	         0
	maximum number of blocks	       313	        17
	current total bytes		         0	         0
	maximum total bytes		 367819864	  89294088
	maximum total K-bytes		    367820	     89295
	maximum total M-bytes		       368	        90


                                NWChem Input Module
                                -------------------




                                     CITATION
                                     --------
                Please cite the following reference when publishing
                           results obtained with NWChem:

          E. Apra, E. J. Bylaska, W. A. de Jong, N. Govind, K. Kowalski,
       T. P. Straatsma, M. Valiev, H. J. J. van Dam, Y. Alexeev, J. Anchell,
       V. Anisimov, F. W. Aquino, R. Atta-Fynn, J. Autschbach, N. P. Bauman,
     J. C. Becca, D. E. Bernholdt, K. Bhaskaran-Nair, S. Bogatko, P. Borowski,
         J. Boschen, J. Brabec, A. Bruner, E. Cauet, Y. Chen, G. N. Chuev,
      C. J. Cramer, J. Daily, M. J. O. Deegan, T. H. Dunning Jr., M. Dupuis,
   K. G. Dyall, G. I. Fann, S. A. Fischer, A. Fonari, H. Fruchtl, L. Gagliardi,
      J. Garza, N. Gawande, S. Ghosh, K. Glaesemann, A. W. Gotz, J. Hammond,
       V. Helms, E. D. Hermes, K. Hirao, S. Hirata, M. Jacquelin, L. Jensen,
   B. G. Johnson, H. Jonsson, R. A. Kendall, M. Klemm, R. Kobayashi, V. Konkov,
      S. Krishnamoorthy, M. Krishnan, Z. Lin, R. D. Lins, R. J. Littlefield,
      A. J. Logsdail, K. Lopata, W. Ma, A. V. Marenich, J. Martin del Campo,
   D. Mejia-Rodriguez, J. E. Moore, J. M. Mullin, T. Nakajima, D. R. Nascimento,
    J. A. Nichols, P. J. Nichols, J. Nieplocha, A. Otero-de-la-Roza, B. Palmer,
    A. Panyala, T. Pirojsirikul, B. Peng, R. Peverati, J. Pittner, L. Pollack,
   R. M. Richard, P. Sadayappan, G. C. Schatz, W. A. Shelton, D. W. Silverstein,
   D. M. A. Smith, T. A. Soares, D. Song, M. Swart, H. L. Taylor, G. S. Thomas,
            V. Tipparaju, D. G. Truhlar, K. Tsemekhman, T. Van Voorhis,
      A. Vazquez-Mayagoitia, P. Verma, O. Villa, A. Vishnu, K. D. Vogiatzis,
        D. Wang, J. H. Weare, M. J. Williamson, T. L. Windus, K. Wolinski,
        A. T. Wong, Q. Wu, C. Yang, Q. Yu, M. Zacharias, Z. Zhang, Y. Zhao,
                                and R. J. Harrison
                        "NWChem: Past, present, and future
                         J. Chem. Phys. 152, 184102 (2020)
                               doi:10.1063/5.0004997

                                      AUTHORS
                                      -------
  E. Apra, E. J. Bylaska, N. Govind, K. Kowalski, M. Valiev, D. Mejia-Rodriguez,
       A. Kunitsa, N. P. Bauman, A. Panyala, W. A. de Jong, T. P. Straatsma,
   H. J. J. van Dam, D. Wang, T. L. Windus, J. Hammond, J. Autschbach, A. Woods,
    K. Bhaskaran-Nair, J. Brabec, K. Lopata, S. A. Fischer, S. Krishnamoorthy,
     M. Jacquelin, W. Ma, M. Klemm, O. Villa, Y. Chen, V. Anisimov, F. Aquino,
     S. Hirata, M. T. Hackler, E. Hermes, L. Jensen, J. E. Moore, J. C. Becca,
      V. Konjkov, T. Risthaus, M. Malagoli, A. Marenich, A. Otero-de-la-Roza,
        J. Mullin, P. Nichols, R. Peverati, J. Pittner, Y. Zhao, P.-D. Fan,
        A. Fonari, M. J. Williamson, R. J. Harrison, J. R. Rehr, M. Dupuis,
     D. Silverstein, D. M. A. Smith, J. Nieplocha, V. Tipparaju, M. Krishnan,
     B. E. Van Kuiken, A. Vazquez-Mayagoitia, M. Swart, Q. Wu, T. Van Voorhis,
     A. A. Auer, M. Nooijen, L. D. Crosby, E. Brown, G. Cisneros, G. I. Fann,
   H. Fruchtl, J. Garza, K. Hirao, R. A. Kendall, J. A. Nichols, K. Tsemekhman,
    K. Wolinski, J. Anchell, D. E. Bernholdt, P. Borowski, T. Clark, D. Clerc,
   H. Dachsel, M. J. O. Deegan, K. Dyall, D. Elwood, E. Glendening, M. Gutowski,
   A. C. Hess, J. Jaffe, B. G. Johnson, J. Ju, R. Kobayashi, R. Kutteh, Z. Lin,
   R. Littlefield, X. Long, B. Meng, T. Nakajima, S. Niu, L. Pollack, M. Rosing,
   K. Glaesemann, G. Sandrone, M. Stave, H. Taylor, G. Thomas, J. H. van Lenthe,
                               A. T. Wong, Z. Zhang.

 Total times  cpu:      229.9s     wall:      218.2s
