 argument  1 = H2-1.5.nw



============================== echo of input deck ==============================
title "swnc: e theory=pspw4 xc=hf formula=H2 charge=0 mult=1"
#machinejob:expert

echo

start pspw_hf_H2

memory heap 1200 mb stack 1200 mb global 10 mb

charge 0

geometry
H    0.00000    0.00000   -0.75000
H    0.00000    0.00000    0.75000
end

nwpw
  ### pseudopotential block begin ###
  ### pseudopotential block end   ###
  simulation_cell
     SC 15.0000
     boundary_conditions aperiodic
  end

  cutoff 50.0
  mult 1
  xc hf
  lmbfgs
  tolerances 1.0e-9 1.0e-9

  virtual 10
end
set nwpw:cif_filename H2

#set nwpw:CI_maxit_orb 15
#set nwpw:CI_maxit_linesearch 15
set pspw:HFX_screening_radius 14.0


set nwpw:2qintegrals .true.
#set nwpw:3x3_virtual .true.

task pspw energy

================================================================================


                                         
                                         


             Northwest Computational Chemistry Package (NWChem) 7.2.2
             --------------------------------------------------------


                    Environmental Molecular Sciences Laboratory
                       Pacific Northwest National Laboratory
                                Richland, WA 99352

                              Copyright (c) 1994-2022
                       Pacific Northwest National Laboratory
                            Battelle Memorial Institute

             NWChem is an open-source computational chemistry package
                        distributed under the terms of the
                      Educational Community License (ECL) 2.0
             A copy of the license is included with this distribution
                              in the LICENSE.TXT file

                                  ACKNOWLEDGMENT
                                  --------------

            This software and its documentation were developed at the
            EMSL at Pacific Northwest National Laboratory, a multiprogram
            national laboratory, operated for the U.S. Department of Energy
            by Battelle under Contract Number DE-AC05-76RL01830. Support
            for this work was provided by the Department of Energy Office
            of Biological and Environmental Research, Office of Basic
            Energy Sciences, and the Office of Advanced Scientific Computing.


           Job information
           ---------------

    hostname        = LAPTOP-JJQSTSEL
    program         = nwchem
    date            = Wed Apr 30 10:20:19 2025

    compiled        = Fri_Jun_07_07:50:04_2024
    source          = /home/conda/feedstock_root/build_artifacts/nwchem_1717738148552/work
    nwchem branch   = 7.2.2
    nwchem revision = 64ba0f0
    ga revision     = 5.8.0
    use scalapack   = T
    input           = H2-1.5.nw
    prefix          = pspw_hf_H2.
    data base       = ./pspw_hf_H2.db
    status          = startup
    nproc           =        1
    time left       =     -1s



           Memory information
           ------------------

    heap     =  157286400 doubles =   1200.0 Mbytes
    stack    =  157286397 doubles =   1200.0 Mbytes
    global   =    1310720 doubles =     10.0 Mbytes (distinct from heap & stack)
    total    =  315883517 doubles =   2410.0 Mbytes
    verify   = yes
    hardfail = no 


           Directory information
           ---------------------

  0 permanent = .
  0 scratch   = .




                                NWChem Input Module
                                -------------------


               swnc: e theory=pspw4 xc=hf formula=H2 charge=0 mult=1
               -----------------------------------------------------

 Scaling coordinates for geometry "geometry" by  1.889725989
 (inverse scale =  0.529177249)

 ORDER OF PRIMARY AXIS IS BEING SET TO 4
 D4H symmetry detected

          ------
          auto-z
          ------
     1 autoz failed with cvr_scaling = 1.2 changing to 1.3
     2 autoz failed with cvr_scaling = 1.3 changing to 1.4
     3 autoz failed with cvr_scaling = 1.4 changing to 1.5
     4 autoz failed with cvr_scaling = 1.5 changing to 1.6
     5 autoz failed with cvr_scaling = 1.6 changing to 1.7

 AUTOZ failed to generate good internal coordinates.
 Cartesian coordinates will be used in optimizations.



                             Geometry "geometry" -> ""
                             -------------------------

 Output coordinates in angstroms (scale by  1.889725989 to convert to a.u.)

  No.       Tag          Charge          X              Y              Z
 ---- ---------------- ---------- -------------- -------------- --------------
    1 H                    1.0000     0.00000000     0.00000000    -0.75000000
    2 H                    1.0000     0.00000000     0.00000000     0.75000000

      Atomic Mass 
      ----------- 

      H                  1.007825


 Effective nuclear repulsion energy (a.u.)       0.3527848327

            Nuclear Dipole moment (a.u.) 
            ----------------------------
        X                 Y               Z
 ---------------- ---------------- ----------------
     0.0000000000     0.0000000000     0.0000000000

      Symmetry information
      --------------------

 Group name             D4h       
 Group number             28
 Group order              16
 No. of unique centers     1

      Symmetry unique atoms

     1


            XYZ format geometry
            -------------------
     2
 geometry
 H                     0.00000000     0.00000000    -0.75000000
 H                     0.00000000     0.00000000     0.75000000

          ****************************************************
          *                                                  *
          *               NWPW PSPW Calculation              *
          *                                                  *
          * [ (Grassmann/Stiefel manifold implementation)  ] *
          *                                                  *
          *      [ NorthWest Chemistry implementation ]      *
          *                                                  *
          *            version #5.10   06/12/02              *
          *                                                  *
          *    This code was developed by Eric J. Bylaska,   *
          *    and was based upon algorithms and code        *
          *    developed by the group of Prof. John H. Weare *
          *                                                  *
          ****************************************************
     >>>  JOB STARTED       AT Wed Apr 30 10:20:19 2025  <<<
          ================ input data ========================

 input psi filename:./pspw_hf_H2.movecs

 number of processors used:         1
 processor grid           :   1 x   1
 parallel mapping         :2d-hilbert
 parallel mapping         :  balanced
 number of threads        :         1
 parallel io              :       off

 options:
      boundary conditions  = aperiodic   (version4)
      electron spin        = restricted
      exchange-correlation = Hartree-Fock
      - HFX relaxed
      - HFX restricted orbitals :    1
      - HFX free-space coulomb solver


 elements involved in the cluster:
      1: H   valence charge:  1.0000  lmax=  1
             comment    : Parameterized (Chem.Phys.Lett., vol 322, page 447) Hamman psp
             pseudpotential type            :   0
             highest angular component      :   1
             local potential used           :   1
             number of non-local projections:   1
             aperiodic cutoff radius        :  1.000
             cutoff =   0.800   0.800


 total charge:   0.000

 atomic composition:
     H   :    2

 number of electrons: spin up=     1 (   1 per task)  down=     1 (   1 per task) (Fourier space)
 number of orbitals : spin up=     1 (   1 per task)  down=     1 (   1 per task) (Fourier space)

 supercell:
      cell_name:  cell_default                                      
      lattice:    a1=<  15.000   0.000   0.000 >
                  a2=<   0.000  15.000   0.000 >
                  a3=<   0.000   0.000  15.000 >
      reciprocal: b1=<   0.419   0.000   0.000 >
                  b2=<   0.000   0.419   0.000 >
                  b3=<   0.000   0.000   0.419 >
      lattice:    a=      15.000 b=     15.000 c=      15.000
                  alpha=  90.000 beta=  90.000 gamma=  90.000
                  omega=      3375.0

      density cutoff=100.000  fft= 70x 70x 70(    80618 waves    80618 per task)
      wavefnc cutoff= 50.000  fft= 70x 70x 70(    28526 waves    28526 per task)

 technical parameters:
      time step=      5.80     fictitious mass=  400000.0
      tolerance=0.100E-08 (energy)   0.100E-08 (density)
      maximum iterations =      1000 (   10 inner    100 outer )





== Energy Calculation ==


          ============ Grassmann lmbfgs iteration ============
     >>>  ITERATION STARTED AT Wed Apr 30 10:20:25 2025  <<<
    iter.           Energy         DeltaE       DeltaRho 
    ------------------------------------------------------
      10   -0.1000721356E+01   -0.14784E-02    0.21907E-01
     -  10 steepest descent iterations performed
      20   -0.1004157082E+01   -0.46673E-04    0.56009E-04
      30   -0.1004256409E+01   -0.23536E-05    0.16663E-05
      40   -0.1004260823E+01   -0.65434E-07    0.24330E-07
      50   -0.1004261033E+01   -0.22027E-08    0.57489E-09
      60   -0.1004261037E+01   -0.87669E-09    0.58415E-11
  *** tolerance ok. iteration terminated
     >>>  ITERATION ENDED   AT Wed Apr 30 10:21:00 2025  <<<


==  Summary Of Results  ==

 number of electrons: spin up=    1.00000  down=    1.00000 (real space)

 total     energy    :  -0.1004261037E+01 (   -0.50213E+00/ion)
 total orbital energy:  -0.8821275871E+00 (   -0.88213E+00/electron)
 hartree   energy    :   0.9498365643E+00 (    0.94984E+00/electron)
 exc-corr  energy    :   0.0000000000E+00 (    0.00000E+00/electron)
 HF exchange energy  :  -0.4749182821E+00 (   -0.47492E+00/electron)
 ion-ion   energy    :   0.3527848327E+00 (    0.17639E+00/ion)

 kinetic (planewave) :   0.6931290608E+00 (    0.69313E+00/electron)
 V_local (planewave) :  -0.2351194262E+01 (   -0.23512E+01/electron)
 V_nl    (planewave) :  -0.1738989502E+00 (   -0.17390E+00/electron)
 V_Coul  (planewave) :   0.1899673129E+01 (    0.18997E+01/electron)
 V_xc.   (planewave) :   0.0000000000E+00 (    0.00000E+00/electron)
 K.S. HFX energy     :  -0.9498365643E+00 (   -0.94984E+00/electron)
 Virial Coefficient  :  -0.9023140408E+00

 orbital energies:
    -0.4410638E+00 ( -12.002eV)


== Virtual Orbital Calculation ==


 input epsi filename:./pspw_hf_H2.emovecs
     orbital   1 current e= 0.972E-02 (error=0.868E-09) iterations  63(  37 preconditioned, Ep,Sp= 20.0  200.0)
     orbital   2 current e= 0.212E-01 (error=0.972E-09) iterations  76(  58 preconditioned, Ep,Sp= 20.0  200.0)
     orbital   3 current e= 0.840E-01 (error=0.995E-09) iterations  55(  28 preconditioned, Ep,Sp= 20.0  200.0)
     orbital   4 current e= 0.840E-01 (error=0.995E-09) iterations  55(  28 preconditioned, Ep,Sp= 20.0  200.0)
     orbital   5 current e= 0.860E-01 (error=0.883E-09) iterations  57(  32 preconditioned, Ep,Sp= 20.0  200.0)
     orbital   6 current e= 0.881E-01 (error=0.767E-09) iterations  39(   8 preconditioned, Ep,Sp= 20.0  200.0)
     orbital   7 current e= 0.112E+00 (error=0.949E-09) iterations  74(  51 preconditioned, Ep,Sp= 20.0  200.0)
     orbital   8 current e= 0.119E+00 (error=0.973E-09) iterations  87(  44 preconditioned, Ep,Sp= 20.0  200.0)
     orbital   9 current e= 0.168E+00 (error=0.869E-09) iterations  97(  71 preconditioned, Ep,Sp= 20.0  200.0)
     orbital  10 current e= 0.168E+00 (error=0.869E-09) iterations  97(  71 preconditioned, Ep,Sp= 20.0  200.0)

 virtual orbital energies:
     0.1675624E+00 (   4.560eV)
     0.1675624E+00 (   4.560eV)
     0.1187399E+00 (   3.231eV)
     0.1121893E+00 (   3.053eV)
     0.8810392E-01 (   2.397eV)
     0.8601557E-01 (   2.341eV)
     0.8402651E-01 (   2.286eV)
     0.8402651E-01 (   2.286eV)
     0.2118866E-01 (   0.577eV)
     0.9723774E-02 (   0.265eV)


 == Generating One-Electron and Two-Electron Integrals ==

 begin_one_electron_integrals
    1    1        -0.9159820757
    2    1         0.0331000008
    3    1         0.0000076358
    4    1         0.0000000033
    5    1         0.0000043465
    6    1         0.0052902137
    7    1         0.0000000065
    8    1        -0.0000339762
    9    1         0.0391163533
   10    1        -0.0000031722
   11    1        -0.0000002959
    2    2        -0.2610030565
    3    2         0.0000869247
    4    2        -0.0000000006
    5    2        -0.0000003490
    6    2        -0.0036620436
    7    2        -0.0000000095
    8    2         0.0000881481
    9    2        -0.0612105082
   10    2         0.0000007638
   11    2         0.0000001257
    3    3        -0.5766539156
    4    3        -0.0000000001
    5    3        -0.0000000328
    6    3        -0.0000453713
    7    3        -0.0000000328
    8    3        -0.1303696938
    9    3        -0.0001533202
   10    3         0.0000000138
   11    3         0.0000000034
    4    4        -0.2357776990
    5    4         0.0000000000
    6    4         0.0000000171
    7    4        -0.0000280521
    8    4         0.0000000002
    9    4        -0.0000000068
   10    4        -0.0058128066
   11    4         0.0894420321
    5    5        -0.2357776956
    6    5         0.0000267804
    7    5         0.0000000171
    8    5        -0.0000000135
    9    5        -0.0000031751
   10    5         0.0894420276
   11    5         0.0058128064
    6    6        -0.1966048927
    7    6        -0.0000000008
    8    6        -0.0000177249
    9    6        -0.0018654626
   10    6        -0.0000573291
   11    6        -0.0000037608
    7    7        -0.1870259248
    8    7         0.0000000120
    9    7         0.0000000043
   10    7        -0.0000031834
   11    7         0.0000485248
    8    8        -0.2014047057
    9    8        -0.0000494109
   10    8         0.0000000109
   11    8         0.0000000027
    9    9        -0.1550973922
   10    9         0.0000034127
   11    9         0.0000003896
   10   10        -0.1755366671
   11   10        -0.0000000003
   11   11        -0.1755366645
 end_one_electron_integrals

 begin_two_electron_integrals
    1    1    1    1        0.4749182821
    1    1    2    1       -0.0331033318
    1    1    3    1       -0.0000076432
    1    1    4    1       -0.0000000033
    1    1    5    1       -0.0000043412
    1    1    6    1       -0.0052795824
    1    1    7    1       -0.0000000065
    1    1    8    1        0.0000339778
    1    1    9    1       -0.0391120596
    1    1   10    1        0.0000031741
    1    1   11    1        0.0000002961
    1    1    2    2        0.1372695527
    1    1    3    2       -0.0000570988
    1    1    4    2       -0.0000000002
    1    1    5    2       -0.0000007125
    1    1    6    2        0.0021741332
    1    1    7    2        0.0000000054
    1    1    8    2       -0.0000524920
    1    1    9    2        0.0329776158
    1    1   10    2        0.0000008375
    1    1   11    2        0.0000000119
    1    1    3    3        0.3444154647
    1    1    4    3        0.0000000000
    1    1    5    3        0.0000000149
    1    1    6    3        0.0000213703
    1    1    7    3        0.0000000227
    1    1    8    3        0.0850820391
    1    1    9    3        0.0000950302
    1    1   10    3       -0.0000000078
    1    1   11    3       -0.0000000022
    1    1    4    4        0.1619671383
    1    1    5    4       -0.0000000000
    1    1    6    4       -0.0000000087
    1    1    7    4        0.0000136053
    1    1    8    4       -0.0000000001
    1    1    9    4        0.0000000036
    1    1   10    4        0.0030951508
    1    1   11    4       -0.0476252846
    1    1    5    5        0.1619671360
    1    1    6    5       -0.0000137169
    1    1    7    5       -0.0000000083
    1    1    8    5        0.0000000067
    1    1    9    5        0.0000013590
    1    1   10    5       -0.0476252814
    1    1   11    5       -0.0030951506
    1    1    6    6        0.1417006914
    1    1    7    6        0.0000000007
    1    1    8    6        0.0000085919
    1    1    9    6        0.0013584277
    1    1   10    6        0.0000296020
    1    1   11    6        0.0000019410
    1    1    7    7        0.1377104196
    1    1    8    7        0.0000000026
    1    1    9    7        0.0000000007
    1    1   10    7        0.0000015810
    1    1   11    7       -0.0000240994
    1    1    8    8        0.1657364284
    1    1    9    8        0.0000279747
    1    1   10    8       -0.0000000069
    1    1   11    8       -0.0000000016
    1    1    9    9        0.1399159950
    1    1   10    9       -0.0000012019
    1    1   11    9       -0.0000001705
    1    1   10   10        0.1757753535
    1    1   11   10        0.0000000001
    1    1   11   11        0.1757753523
    2    1    2    1        0.0038122754
    2    1    3    1       -0.0000306090
    2    1    4    1       -0.0000000010
    2    1    5    1       -0.0000017796
    2    1    6    1        0.0006854093
    2    1    7    1        0.0000000008
    2    1    8    1       -0.0000168701
    2    1    9    1        0.0047463334
    2    1   10    1        0.0000024386
    2    1   11    1        0.0000001489
    2    1    2    2       -0.0009178865
    2    1    3    2       -0.0000014508
    2    1    4    2       -0.0000000059
    2    1    5    2       -0.0000096315
    2    1    6    2        0.0000276608
    2    1    7    2       -0.0000000002
    2    1    8    2        0.0000150198
    2    1    9    2       -0.0012000449
    2    1   10    2        0.0000004244
    2    1   11    2        0.0000000306
    2    1    3    3       -0.0174776172
    2    1    4    3       -0.0000000000
    2    1    5    3       -0.0000000023
    2    1    6    3       -0.0000102589
    2    1    7    3       -0.0000000018
    2    1    8    3       -0.0077124797
    2    1    9    3       -0.0000117201
    2    1   10    3        0.0000000008
    2    1   11    3        0.0000000002
    2    1    4    4       -0.0017072878
    2    1    5    4        0.0000000000
    2    1    6    4        0.0000000021
    2    1    7    4       -0.0000053180
    2    1    8    4       -0.0000000000
    2    1    9    4       -0.0000000016
    2    1   10    4       -0.0001444821
    2    1   11    4        0.0022231633
    2    1    5    5       -0.0017072726
    2    1    6    5        0.0000033224
    2    1    7    5        0.0000000032
    2    1    8    5       -0.0000000129
    2    1    9    5       -0.0000023354
    2    1   10    5        0.0022231704
    2    1   11    5        0.0001444825
    2    1    6    6       -0.0005523588
    2    1    7    6       -0.0000000001
    2    1    8    6       -0.0000001266
    2    1    9    6       -0.0000165202
    2    1   10    6       -0.0000038225
    2    1   11    6       -0.0000002506
    2    1    7    7       -0.0004995758
    2    1    8    7       -0.0000000006
    2    1    9    7       -0.0000000002
    2    1   10    7       -0.0000004826
    2    1   11    7        0.0000073559
    2    1    8    8       -0.0038686787
    2    1    9    8       -0.0000029675
    2    1   10    8       -0.0000000122
    2    1   11    8       -0.0000000007
    2    1    9    9       -0.0016068490
    2    1   10    9        0.0000076117
    2    1   11    9        0.0000005035
    2    1   10   10       -0.0032801979
    2    1   11   10        0.0000000004
    2    1   11   11       -0.0032802045
    3    1    3    1        0.0909883548
    3    1    4    1        0.0000000000
    3    1    5    1       -0.0000000028
    3    1    6    1       -0.0000024739
    3    1    7    1        0.0000000094
    3    1    8    1        0.0397960386
    3    1    9    1        0.0000367159
    3    1   10    1       -0.0000000018
    3    1   11    1       -0.0000000011
    3    1    2    2       -0.0002506346
    3    1    3    2        0.0018675274
    3    1    4    2       -0.0000000001
    3    1    5    2       -0.0000002218
    3    1    6    2       -0.0002971320
    3    1    7    2       -0.0000000044
    3    1    8    2       -0.0129388614
    3    1    9    2        0.0000413391
    3    1   10    2        0.0000000184
    3    1   11    2        0.0000000014
    3    1    3    3       -0.0000069391
    3    1    4    3        0.0000000052
    3    1    5    3        0.0000082851
    3    1    6    3        0.0114356368
    3    1    7    3       -0.0000000011
    3    1    8    3       -0.0000044201
    3    1    9    3        0.0005341245
    3    1   10    3       -0.0000018103
    3    1   11    3       -0.0000001184
    3    1    4    4       -0.0001915562
    3    1    5    4        0.0000000000
    3    1    6    4       -0.0000000001
    3    1    7    4       -0.0000000157
    3    1    8    4        0.0000000046
    3    1    9    4       -0.0000000000
    3    1   10    4        0.0000090326
    3    1   11    4       -0.0001390033
    3    1    5    5       -0.0001915564
    3    1    6    5       -0.0000001791
    3    1    7    5        0.0000000000
    3    1    8    5        0.0000015898
    3    1    9    5       -0.0000000770
    3    1   10    5       -0.0001390026
    3    1   11    5       -0.0000090328
    3    1    6    6       -0.0004415171
    3    1    7    6        0.0000000032
    3    1    8    6        0.0014043298
    3    1    9    6       -0.0000892720
    3    1   10    6        0.0000001541
    3    1   11    6        0.0000000101
    3    1    7    7       -0.0001819276
    3    1    8    7       -0.0000000008
    3    1    9    7        0.0000000008
    3    1   10    7        0.0000000010
    3    1   11    7       -0.0000000188
    3    1    8    8        0.0000065938
    3    1    9    8       -0.0043651505
    3    1   10    8       -0.0000005376
    3    1   11    8       -0.0000000288
    3    1    9    9       -0.0002810720
    3    1   10    9        0.0000000331
    3    1   11    9        0.0000000024
    3    1   10   10       -0.0002010554
    3    1   11   10        0.0000000001
    3    1   11   11       -0.0002010550
    4    1    4    1        0.0041300666
    4    1    5    1       -0.0000000000
    4    1    6    1       -0.0000000005
    4    1    7    1       -0.0000008060
    4    1    8    1       -0.0000000000
    4    1    9    1        0.0000000001
    4    1   10    1        0.0003777854
    4    1   11    1       -0.0058130075
    4    1    2    2       -0.0000000738
    4    1    3    2       -0.0000000000
    4    1    4    2        0.0051882983
    4    1    5    2        0.0000000000
    4    1    6    2        0.0000000414
    4    1    7    2       -0.0001219564
    4    1    8    2        0.0000000000
    4    1    9    2        0.0000000196
    4    1   10    2        0.0000738262
    4    1   11    2       -0.0011359655
    4    1    3    3       -0.0000000045
    4    1    4    3       -0.0000001398
    4    1    5    3        0.0000000001
    4    1    6    3        0.0000000000
    4    1    7    3       -0.0000000273
    4    1    8    3        0.0000000193
    4    1    9    3        0.0000000000
    4    1   10    3        0.0000000154
    4    1   11    3       -0.0000002416
    4    1    4    4        0.0000000229
    4    1    5    4        0.0000413845
    4    1    6    4       -0.0011607148
    4    1    7    4        0.0000027788
    4    1    8    4       -0.0000004494
    4    1    9    4        0.0028506809
    4    1   10    4        0.0000525935
    4    1   11    4        0.0000034486
    4    1    5    5       -0.0000000799
    4    1    6    5        0.0000000005
    4    1    7    5        0.0022840448
    4    1    8    5       -0.0000000013
    4    1    9    5       -0.0000000004
    4    1   10    5       -0.0000033867
    4    1   11    5        0.0000506928
    4    1    6    6       -0.0000000690
    4    1    7    6        0.0000508964
    4    1    8    6       -0.0000000000
    4    1    9    6        0.0000000102
    4    1   10    6       -0.0001058188
    4    1   11    6        0.0016284552
    4    1    7    7       -0.0000001094
    4    1    8    7       -0.0000000349
    4    1    9    7       -0.0000279871
    4    1   10    7       -0.0037256981
    4    1   11    7       -0.0002466919
    4    1    8    8       -0.0000000914
    4    1    9    8        0.0000000000
    4    1   10    8       -0.0000003279
    4    1   11    8        0.0000050779
    4    1    9    9       -0.0000000838
    4    1   10    9        0.0002808787
    4    1   11    9       -0.0043218967
    4    1   10   10       -0.0000087858
    4    1   11   10        0.0000663484
    4    1   11   11        0.0000087141
    5    1    5    1        0.0041300651
    5    1    6    1       -0.0000006465
    5    1    7    1        0.0000000005
    5    1    8    1        0.0000000004
    5    1    9    1       -0.0000004835
    5    1   10    1       -0.0058130054
    5    1   11    1       -0.0003777853
    5    1    2    2       -0.0001213289
    5    1    3    2       -0.0000000362
    5    1    4    2        0.0000000000
    5    1    5    2        0.0051883080
    5    1    6    2        0.0000681658
    5    1    7    2        0.0000000741
    5    1    8    2       -0.0000000843
    5    1    9    2        0.0000322872
    5    1   10    2       -0.0011359095
    5    1   11    2       -0.0000738226
    5    1    3    3       -0.0000069478
    5    1    4    3        0.0000000001
    5    1    5    3       -0.0000001398
    5    1    6    3        0.0000000196
    5    1    7    3        0.0000000001
    5    1    8    3        0.0000302682
    5    1    9    3        0.0000000254
    5    1   10    3       -0.0000002414
    5    1   11    3       -0.0000000158
    5    1    4    4       -0.0000450228
    5    1    5    4       -0.0000000273
    5    1    6    4        0.0000000005
    5    1    7    4        0.0022840342
    5    1    8    4       -0.0000000013
    5    1    9    4       -0.0000000004
    5    1   10    4        0.0000028998
    5    1   11    4       -0.0000451332
    5    1    5    5       -0.0000485702
    5    1    6    5       -0.0011607302
    5    1    7    5       -0.0000027774
    5    1    8    5       -0.0000004493
    5    1    9    5        0.0028506433
    5    1   10    5       -0.0000474047
    5    1   11    5       -0.0000031183
    5    1    6    6       -0.0001136172
    5    1    7    6       -0.0000000310
    5    1    8    6        0.0000000054
    5    1    9    6        0.0000169896
    5    1   10    6        0.0016284595
    5    1   11    6        0.0001058174
    5    1    7    7       -0.0001797394
    5    1    8    7        0.0000000000
    5    1    9    7        0.0000000172
    5    1   10    7        0.0002466955
    5    1   11    7       -0.0037257872
    5    1    8    8       -0.0001479447
    5    1    9    8        0.0000000388
    5    1   10    8        0.0000050777
    5    1   11    8        0.0000003320
    5    1    9    9       -0.0001384483
    5    1   10    9       -0.0043219354
    5    1   11    9       -0.0002808802
    5    1   10   10       -0.0000704062
    5    1   11   10       -0.0000000764
    5    1   11   11       -0.0000697656
    6    1    6    1        0.0007809192
    6    1    7    1        0.0000000001
    6    1    8    1       -0.0000001004
    6    1    9    1        0.0008559344
    6    1   10    1        0.0000018736
    6    1   11    1        0.0000001211
    6    1    2    2       -0.0001564122
    6    1    3    2       -0.0000091367
    6    1    4    2        0.0000000028
    6    1    5    2        0.0000046831
    6    1    6    2        0.0015848331
    6    1    7    2       -0.0000000001
    6    1    8    2        0.0000121131
    6    1    9    2       -0.0002104960
    6    1   10    2        0.0000000345
    6    1   11    2        0.0000000028
    6    1    3    3        0.0002305890
    6    1    4    3        0.0000000000
    6    1    5    3        0.0000000015
    6    1    6    3       -0.0000081095
    6    1    7    3        0.0000000004
    6    1    8    3       -0.0001110676
    6    1    9    3       -0.0000064591
    6    1   10    3       -0.0000000002
    6    1   11    3        0.0000000000
    6    1    4    4       -0.0006009663
    6    1    5    4        0.0000000001
    6    1    6    4       -0.0000000006
    6    1    7    4        0.0000016991
    6    1    8    4       -0.0000000000
    6    1    9    4        0.0000000005
    6    1   10    4       -0.0000658311
    6    1   11    4        0.0010130236
    6    1    5    5       -0.0006009860
    6    1    6    5       -0.0000011408
    6    1    7    5       -0.0000000011
    6    1    8    5       -0.0000000103
    6    1    9    5        0.0000010453
    6    1   10    5        0.0010130173
    6    1   11    5        0.0000658302
    6    1    6    6        0.0005848353
    6    1    7    6       -0.0000000002
    6    1    8    6        0.0000007907
    6    1    9    6        0.0012958439
    6    1   10    6       -0.0000003095
    6    1   11    6       -0.0000000214
    6    1    7    7       -0.0006281099
    6    1    8    7        0.0000000001
    6    1    9    7       -0.0000000000
    6    1   10    7        0.0000001284
    6    1   11    7       -0.0000019564
    6    1    8    8       -0.0006063526
    6    1    9    8       -0.0000029087
    6    1   10    8       -0.0000000004
    6    1   11    8       -0.0000000000
    6    1    9    9       -0.0003294135
    6    1   10    9       -0.0000028237
    6    1   11    9       -0.0000001843
    6    1   10   10       -0.0014398966
    6    1   11   10       -0.0000000003
    6    1   11   11       -0.0014398892
    7    1    7    1        0.0002909987
    7    1    8    1        0.0000000040
    7    1    9    1        0.0000000010
    7    1   10    1       -0.0000000209
    7    1   11    1        0.0000003182
    7    1    2    2       -0.0000000001
    7    1    3    2        0.0000000002
    7    1    4    2       -0.0000107713
    7    1    5    2        0.0000000065
    7    1    6    2       -0.0000000000
    7    1    7    2        0.0011864845
    7    1    8    2       -0.0000000016
    7    1    9    2       -0.0000000003
    7    1   10    2       -0.0000000490
    7    1   11    2        0.0000007470
    7    1    3    3       -0.0000000033
    7    1    4    3        0.0000000063
    7    1    5    3        0.0000000000
    7    1    6    3        0.0000000013
    7    1    7    3       -0.0000000788
    7    1    8    3       -0.0000000015
    7    1    9    3        0.0000000001
    7    1   10    3        0.0000000001
    7    1   11    3       -0.0000000018
    7    1    4    4        0.0000005049
    7    1    5    4        0.0004152011
    7    1    6    4        0.0000024938
    7    1    7    4       -0.0000000034
    7    1    8    4       -0.0000000148
    7    1    9    4       -0.0000025524
    7    1   10    4       -0.0010466901
    7    1   11    4       -0.0000693045
    7    1    5    5       -0.0000005052
    7    1    6    5       -0.0000000015
    7    1    7    5       -0.0000055960
    7    1    8    5        0.0000000000
    7    1    9    5        0.0000000016
    7    1   10    5        0.0000693047
    7    1   11    5       -0.0010466882
    7    1    6    6       -0.0000000003
    7    1    7    6       -0.0003584645
    7    1    8    6        0.0000000003
    7    1    9    6        0.0000000000
    7    1   10    6        0.0000001329
    7    1   11    6       -0.0000020258
    7    1    7    7        0.0000000005
    7    1    8    7        0.0000001774
    7    1    9    7        0.0008896418
    7    1   10    7        0.0000060478
    7    1   11    7        0.0000003963
    7    1    8    8       -0.0000000006
    7    1    9    8       -0.0000000009
    7    1   10    8        0.0000000009
    7    1   11    8       -0.0000000131
    7    1    9    9       -0.0000000005
    7    1   10    9       -0.0000005177
    7    1   11    9        0.0000078910
    7    1   10   10       -0.0001236563
    7    1   11   10        0.0009384385
    7    1   11   11        0.0001236556
    8    1    8    1        0.0178788035
    8    1    9    1        0.0000114089
    8    1   10    1       -0.0000000033
    8    1   11    1       -0.0000000006
    8    1    2    2       -0.0000665901
    8    1    3    2       -0.0007580891
    8    1    4    2       -0.0000000001
    8    1    5    2       -0.0000001064
    8    1    6    2       -0.0000830366
    8    1    7    2       -0.0000000018
    8    1    8    2       -0.0040303824
    8    1    9    2        0.0000084585
    8    1   10    2       -0.0000000349
    8    1   11    2       -0.0000000022
    8    1    3    3        0.0000157704
    8    1    4    3        0.0000000034
    8    1    5    3        0.0000046428
    8    1    6    3        0.0039924013
    8    1    7    3       -0.0000000006
    8    1    8    3        0.0000084120
    8    1    9    3       -0.0011824922
    8    1   10    3       -0.0000013369
    8    1   11    3       -0.0000000852
    8    1    4    4       -0.0000509500
    8    1    5    4       -0.0000000002
    8    1    6    4       -0.0000000001
    8    1    7    4       -0.0000000206
    8    1    8    4       -0.0000000008
    8    1    9    4       -0.0000000000
    8    1   10    4        0.0000024855
    8    1   11    4       -0.0000382411
    8    1    5    5       -0.0000509500
    8    1    6    5       -0.0000001010
    8    1    7    5        0.0000000000
    8    1    8    5       -0.0000026547
    8    1    9    5        0.0000000057
    8    1   10    5       -0.0000382409
    8    1   11    5       -0.0000024844
    8    1    6    6       -0.0001250811
    8    1    7    6        0.0000000012
    8    1    8    6        0.0005052846
    8    1    9    6       -0.0000280521
    8    1   10    6        0.0000000218
    8    1   11    6        0.0000000014
    8    1    7    7       -0.0000481376
    8    1    8    7       -0.0000000003
    8    1    9    7       -0.0000000004
    8    1   10    7        0.0000000002
    8    1   11    7       -0.0000000038
    8    1    8    8        0.0000075820
    8    1    9    8       -0.0021260595
    8    1   10    8       -0.0000005850
    8    1   11    8       -0.0000000348
    8    1    9    9       -0.0000751955
    8    1   10    9        0.0000000554
    8    1   11    9        0.0000000037
    8    1   10   10       -0.0000495640
    8    1   11   10       -0.0000000005
    8    1   11   11       -0.0000495641
    9    1    9    1        0.0059946567
    9    1   10    1        0.0000010075
    9    1   11    1        0.0000000514
    9    1    2    2       -0.0008591019
    9    1    3    2        0.0000014134
    9    1    4    2       -0.0000000019
    9    1    5    2       -0.0000036237
    9    1    6    2        0.0000056360
    9    1    7    2       -0.0000000004
    9    1    8    2        0.0000026773
    9    1    9    2       -0.0010723449
    9    1   10    2        0.0000013858
    9    1   11    2        0.0000000936
    9    1    3    3       -0.0195186805
    9    1    4    3       -0.0000000000
    9    1    5    3       -0.0000000091
    9    1    6    3       -0.0000015003
    9    1    7    3       -0.0000000020
    9    1    8    3       -0.0089441827
    9    1    9    3       -0.0000128180
    9    1   10    3        0.0000000024
    9    1   11    3        0.0000000004
    9    1    4    4       -0.0014208101
    9    1    5    4       -0.0000000001
    9    1    6    4        0.0000000014
    9    1    7    4       -0.0000032162
    9    1    8    4        0.0000000000
    9    1    9    4       -0.0000000012
    9    1   10    4       -0.0001287780
    9    1   11    4        0.0019815249
    9    1    5    5       -0.0014208305
    9    1    6    5        0.0000023514
    9    1    7    5        0.0000000021
    9    1    8    5        0.0000000157
    9    1    9    5       -0.0000020943
    9    1   10    5        0.0019815196
    9    1   11    5        0.0001287780
    9    1    6    6       -0.0002156427
    9    1    7    6       -0.0000000000
    9    1    8    6        0.0000002641
    9    1    9    6       -0.0000365457
    9    1   10    6       -0.0000028863
    9    1   11    6       -0.0000001890
    9    1    7    7       -0.0002194931
    9    1    8    7       -0.0000000009
    9    1    9    7       -0.0000000004
    9    1   10    7       -0.0000002877
    9    1   11    7        0.0000043818
    9    1    8    8       -0.0044050067
    9    1    9    8       -0.0000052490
    9    1   10    8        0.0000000050
    9    1   11    8        0.0000000004
    9    1    9    9       -0.0015705540
    9    1   10    9        0.0000031647
    9    1   11    9        0.0000002114
    9    1   10   10       -0.0030937325
    9    1   11   10       -0.0000000009
    9    1   11   11       -0.0030937219
   10    1   10    1        0.0084516439
   10    1   11    1        0.0000000000
   10    1    2    2        0.0001379064
   10    1    3    2        0.0000000564
   10    1    4    2        0.0003758905
   10    1    5    2       -0.0057837607
   10    1    6    2       -0.0000784498
   10    1    7    2       -0.0000092843
   10    1    8    2       -0.0000000076
   10    1    9    2       -0.0000299895
   10    1   10    2        0.0017935506
   10    1   11    2        0.0000000033
   10    1    3    3        0.0000089844
   10    1    4    3        0.0000001575
   10    1    5    3       -0.0000024258
   10    1    6    3       -0.0000000300
   10    1    7    3       -0.0000000037
   10    1    8    3       -0.0000343944
   10    1    9    3       -0.0000000412
   10    1   10    3        0.0000009669
   10    1   11    3        0.0000000002
   10    1    4    4        0.0000568682
   10    1    5    4        0.0000030709
   10    1    6    4       -0.0001073887
   10    1    7    4       -0.0030890442
   10    1    8    4       -0.0000002897
   10    1    9    4        0.0002354955
   10    1   10    4        0.0000004450
   10    1   11    4        0.0000518722
   10    1    5    5        0.0000503510
   10    1    6    5        0.0016523656
   10    1    7    5        0.0002045263
   10    1    8    5        0.0000044842
   10    1    9    5       -0.0036235958
   10    1   10    5        0.0000523405
   10    1   11    5        0.0000071944
   10    1    6    6        0.0001303659
   10    1    7    6        0.0000040853
   10    1    8    6        0.0000000194
   10    1    9    6       -0.0000220292
   10    1   10    6       -0.0022227441
   10    1   11    6        0.0000000127
   10    1    7    7        0.0002105209
   10    1    8    7        0.0000000042
   10    1    9    7       -0.0000024688
   10    1   10    7       -0.0006104486
   10    1   11    7        0.0046327201
   10    1    8    8        0.0001671482
   10    1    9    8        0.0000000354
   10    1   10    8       -0.0000043664
   10    1   11    8       -0.0000000024
   10    1    9    9        0.0001537342
   10    1   10    9        0.0052715414
   10    1   11    9       -0.0000000060
   10    1   10   10        0.0000749245
   10    1   11   10        0.0000046304
   10    1   11   11        0.0000791095
   11    1   11    1        0.0084516440
   11    1    2    2        0.0000090484
   11    1    3    2        0.0000000037
   11    1    4    2       -0.0057838444
   11    1    5    2       -0.0003758850
   11    1    6    2       -0.0000051460
   11    1    7    2        0.0001415287
   11    1    8    2       -0.0000000005
   11    1    9    2       -0.0000019652
   11    1   10    2        0.0000000033
   11    1   11    2        0.0017935023
   11    1    3    3        0.0000006312
   11    1    4    3       -0.0000024259
   11    1    5    3       -0.0000001578
   11    1    6    3       -0.0000000020
   11    1    7    3        0.0000000559
   11    1    8    3       -0.0000022379
   11    1    9    3       -0.0000000026
   11    1   10    3        0.0000000003
   11    1   11    3        0.0000009672
   11    1    4    4        0.0000036754
   11    1    5    4       -0.0000468725
   11    1    6    4        0.0016524230
   11    1    7    4       -0.0002045314
   11    1    8    4        0.0000044843
   11    1    9    4       -0.0036235761
   11    1   10    4       -0.0000581381
   11    1   11    4       -0.0000004449
   11    1    5    5        0.0000033624
   11    1    6    5        0.0001073835
   11    1    7    5       -0.0030889935
   11    1    8    5        0.0000002931
   11    1    9    5       -0.0002354958
   11    1   10    5        0.0000072513
   11    1   11    5       -0.0000572313
   11    1    6    6        0.0000085521
   11    1    7    6       -0.0000622740
   11    1    8    6        0.0000000013
   11    1    9    6       -0.0000014447
   11    1   10    6       -0.0000000180
   11    1   11    6       -0.0022226890
   11    1    7    7        0.0000138105
   11    1    8    7       -0.0000000639
   11    1    9    7        0.0000376303
   11    1   10    7        0.0046326880
   11    1   11    7        0.0006104513
   11    1    8    8        0.0000109760
   11    1    9    8        0.0000000024
   11    1   10    8       -0.0000000026
   11    1   11    8       -0.0000043676
   11    1    9    9        0.0000100874
   11    1   10    9       -0.0000000044
   11    1   11    9        0.0052716101
   11    1   10   10        0.0000146668
   11    1   11   10       -0.0000736597
   11    1   11   11       -0.0000045698
    2    2    2    2        0.1173830241
    2    2    3    2       -0.0002373230
    2    2    4    2       -0.0000003952
    2    2    5    2       -0.0006499978
    2    2    6    2        0.0003629172
    2    2    7    2        0.0000000017
    2    2    8    2        0.0004181992
    2    2    9    2        0.0084216376
    2    2   10    2       -0.0000708284
    2    2   11    2       -0.0000046498
    2    2    3    3        0.1337865710
    2    2    4    3        0.0000000009
    2    2    5    3        0.0000015287
    2    2    6    3       -0.0001927952
    2    2    7    3        0.0000000015
    2    2    8    3        0.0043914921
    2    2    9    3       -0.0001111173
    2    2   10    3       -0.0000002728
    2    2   11    3       -0.0000000178
    2    2    4    4        0.1229975073
    2    2    5    4        0.0000000031
    2    2    6    4        0.0000000811
    2    2    7    4       -0.0002440169
    2    2    8    4       -0.0000000022
    2    2    9    4       -0.0000000335
    2    2   10    4        0.0004993223
    2    2   11    4       -0.0076830868
    2    2    5    5        0.1230026162
    2    2    6    5        0.0001335015
    2    2    7    5        0.0000001483
    2    2    8    5       -0.0000035771
    2    2    9    5       -0.0000557020
    2    2   10    5       -0.0076812558
    2    2   11    5       -0.0004992012
    2    2    6    6        0.1192620473
    2    2    7    6        0.0000000001
    2    2    8    6        0.0000352584
    2    2    9    6       -0.0000609324
    2    2   10    6       -0.0001066839
    2    2   11    6       -0.0000069962
    2    2    7    7        0.1187167890
    2    2    8    7       -0.0000000006
    2    2    9    7       -0.0000000009
    2    2   10    7       -0.0000225923
    2    2   11    7        0.0003443791
    2    2    8    8        0.1188637623
    2    2    9    8       -0.0001300518
    2    2   10    8       -0.0000022230
    2    2   11    8       -0.0000001461
    2    2    9    9        0.1132581895
    2    2   10    9        0.0005031420
    2    2   11    9        0.0000329851
    2    2   10   10        0.1206341259
    2    2   11   10        0.0000001668
    2    2   11   11        0.1206315919
    3    2    3    2        0.0063646204
    3    2    4    2        0.0000000002
    3    2    5    2        0.0000004570
    3    2    6    2       -0.0002563088
    3    2    7    2       -0.0000000037
    3    2    8    2       -0.0086745044
    3    2    9    2        0.0000643334
    3    2   10    2        0.0000007191
    3    2   11    2        0.0000000472
    3    2    3    3       -0.0000423581
    3    2    4    3       -0.0000000135
    3    2    5    3       -0.0000222183
    3    2    6    3        0.0043715464
    3    2    7    3        0.0000000001
    3    2    8    3       -0.0000218237
    3    2    9    3        0.0047597059
    3    2   10    3        0.0000074807
    3    2   11    3        0.0000004824
    3    2    4    4       -0.0001822762
    3    2    5    4        0.0000000000
    3    2    6    4        0.0000000004
    3    2    7    4        0.0000002277
    3    2    8    4        0.0000000329
    3    2    9    4       -0.0000000004
    3    2   10    4        0.0000084607
    3    2   11    4       -0.0001302042
    3    2    5    5       -0.0001822770
    3    2    6    5        0.0000007031
    3    2    7    5       -0.0000000002
    3    2    8    5        0.0000500450
    3    2    9    5       -0.0000006045
    3    2   10    5       -0.0001302081
    3    2   11    5       -0.0000084617
    3    2    6    6       -0.0003688737
    3    2    7    6        0.0000000017
    3    2    8    6        0.0003899333
    3    2    9    6       -0.0000537706
    3    2   10    6        0.0000005163
    3    2   11    6        0.0000000338
    3    2    7    7       -0.0001791057
    3    2    8    7        0.0000000001
    3    2    9    7        0.0000000016
    3    2   10    7        0.0000000008
    3    2   11    7       -0.0000000134
    3    2    8    8       -0.0000119292
    3    2    9    8        0.0015636227
    3    2   10    8        0.0000127407
    3    2   11    8        0.0000008328
    3    2    9    9       -0.0002699980
    3    2   10    9       -0.0000007556
    3    2   11    9       -0.0000000495
    3    2   10   10       -0.0002142015
    3    2   11   10       -0.0000000004
    3    2   11   11       -0.0002141956
    4    2    4    2        0.0231190483
    4    2    5    2        0.0000000026
    4    2    6    2        0.0000002067
    4    2    7    2       -0.0006001429
    4    2    8    2       -0.0000000023
    4    2    9    2        0.0000001789
    4    2   10    2       -0.0002038614
    4    2   11    2        0.0031368761
    4    2    3    3       -0.0000000191
    4    2    4    3       -0.0000735576
    4    2    5    3        0.0000000002
    4    2    6    3       -0.0000000001
    4    2    7    3        0.0000007347
    4    2    8    3        0.0000000993
    4    2    9    3       -0.0000000002
    4    2   10    3       -0.0000006714
    4    2   11    3        0.0000103157
    4    2    4    4        0.0000002493
    4    2    5    4        0.0002261842
    4    2    6    4       -0.0025286935
    4    2    7    4        0.0000063346
    4    2    8    4        0.0001268218
    4    2    9    4        0.0041981287
    4    2   10    4        0.0003126820
    4    2   11    4        0.0000205335
    4    2    5    5       -0.0000005376
    4    2    6    5       -0.0000000007
    4    2    7    5        0.0052084082
    4    2    8    5       -0.0000000028
    4    2    9    5       -0.0000000028
    4    2   10    5       -0.0000172842
    4    2   11    5        0.0002575623
    4    2    6    6       -0.0000003590
    4    2    7    6        0.0002004033
    4    2    8    6        0.0000000006
    4    2    9    6        0.0000000216
    4    2   10    6       -0.0002579609
    4    2   11    6        0.0039702774
    4    2    7    7       -0.0000005167
    4    2    8    7       -0.0000038332
    4    2    9    7       -0.0000547551
    4    2   10    7       -0.0125649137
    4    2   11    7       -0.0008319828
    4    2    8    8       -0.0000004978
    4    2    9    8        0.0000000021
    4    2   10    8       -0.0000057348
    4    2   11    8        0.0000883562
    4    2    9    9       -0.0000005032
    4    2   10    9        0.0010526441
    4    2   11    9       -0.0161971599
    4    2   10   10       -0.0000525146
    4    2   11   10        0.0003962944
    4    2   11   11        0.0000520459
    5    2    5    2        0.0231231588
    5    2    6    2        0.0003404522
    5    2    7    2        0.0000003648
    5    2    8    2       -0.0000043509
    5    2    9    2        0.0002946029
    5    2   10    2        0.0031422140
    5    2   11    2        0.0002042143
    5    2    3    3       -0.0000317080
    5    2    4    3        0.0000000002
    5    2    5    3       -0.0000735591
    5    2    6    3       -0.0000001127
    5    2    7    3       -0.0000000003
    5    2    8    3        0.0001585935
    5    2    9    3       -0.0000003677
    5    2   10    3        0.0000103098
    5    2   11    3        0.0000006698
    5    2    4    4       -0.0000425348
    5    2    5    4       -0.0000003743
    5    2    6    4       -0.0000000007
    5    2    7    4        0.0052056988
    5    2    8    4       -0.0000000028
    5    2    9    4       -0.0000000028
    5    2   10    4        0.0000135550
    5    2   11    4       -0.0002125223
    5    2    5    5       -0.0004317232
    5    2    6    5       -0.0025318187
    5    2    7    5       -0.0000063323
    5    2    8    5        0.0001268515
    5    2    9    5        0.0041948752
    5    2   10    5       -0.0003212480
    5    2   11    5       -0.0000211091
    5    2    6    6       -0.0005908415
    5    2    7    6       -0.0000001220
    5    2    8    6        0.0000009728
    5    2    9    6        0.0000358456
    5    2   10    6        0.0039682430
    5    2   11    6        0.0002578210
    5    2    7    7       -0.0008495075
    5    2    8    7        0.0000000023
    5    2    9    7        0.0000000340
    5    2   10    7        0.0008322023
    5    2   11    7       -0.0125684085
    5    2    8    8       -0.0008054926
    5    2    9    8        0.0000035472
    5    2   10    8        0.0000884058
    5    2   11    8        0.0000057520
    5    2    9    9       -0.0008306023
    5    2   10    9       -0.0162027733
    5    2   11    9       -0.0010530127
    5    2   10   10       -0.0004823484
    5    2   11   10       -0.0000107509
    5    2   11   11       -0.0003227241
    6    2    6    2        0.0127947438
    6    2    7    2        0.0000000002
    6    2    8    2        0.0004179854
    6    2    9    2        0.0001018680
    6    2   10    2        0.0000152816
    6    2   11    2        0.0000010027
    6    2    3    3        0.0060244981
    6    2    4    3        0.0000000006
    6    2    5    3        0.0000009078
    6    2    6    3       -0.0002332771
    6    2    7    3        0.0000000017
    6    2    8    3        0.0018200954
    6    2    9    3       -0.0001484675
    6    2   10    3       -0.0000001969
    6    2   11    3       -0.0000000127
    6    2    4    4        0.0002584262
    6    2    5    4       -0.0000000030
    6    2    6    4       -0.0000000984
    6    2    7    4        0.0001021283
    6    2    8    4       -0.0000000012
    6    2    9    4        0.0000000392
    6    2   10    4       -0.0001306232
    6    2   11    4        0.0020104695
    6    2    5    5        0.0002531854
    6    2    6    5       -0.0001620837
    6    2    7    5       -0.0000000622
    6    2    8    5       -0.0000017581
    6    2    9    5        0.0000645914
    6    2   10    5        0.0020091675
    6    2   11    5        0.0001305338
    6    2    6    6        0.0015492037
    6    2    7    6       -0.0000000002
    6    2    8    6        0.0000431927
    6    2    9    6        0.0058754319
    6    2   10    6        0.0000535930
    6    2   11    6        0.0000035211
    6    2    7    7       -0.0004759697
    6    2    8    7       -0.0000000023
    6    2    9    7        0.0000000000
    6    2   10    7        0.0000130047
    6    2   11    7       -0.0001982300
    6    2    8    8       -0.0034551876
    6    2    9    8       -0.0001027053
    6    2   10    8       -0.0000003514
    6    2   11    8       -0.0000000230
    6    2    9    9       -0.0000205218
    6    2   10    9       -0.0002545532
    6    2   11    9       -0.0000166988
    6    2   10   10       -0.0003481052
    6    2   11   10       -0.0000001338
    6    2   11   11       -0.0003460713
    7    2    7    2        0.0128162159
    7    2    8    2        0.0000000033
    7    2    9    2       -0.0000000003
    7    2   10    2       -0.0000001653
    7    2   11    2        0.0000025165
    7    2    3    3        0.0000000036
    7    2    4    3        0.0000015859
    7    2    5    3       -0.0000000009
    7    2    6    3       -0.0000000016
    7    2    7    3       -0.0000302997
    7    2    8    3        0.0000000006
    7    2    9    3       -0.0000000013
    7    2   10    3        0.0000000257
    7    2   11    3       -0.0000003922
    7    2    4    4        0.0000011589
    7    2    5    4        0.0009508356
    7    2    6    4        0.0000986010
    7    2    7    4       -0.0000001768
    7    2    8    4       -0.0000030869
    7    2    9    4       -0.0001096153
    7    2   10    4       -0.0070378930
    7    2   11    4       -0.0004660105
    7    2    5    5       -0.0000011542
    7    2    6    5       -0.0000000600
    7    2    7    5       -0.0002906580
    7    2    8    5        0.0000000019
    7    2    9    5        0.0000000671
    7    2   10    5        0.0004659999
    7    2   11    5       -0.0070377910
    7    2    6    6        0.0000000016
    7    2    7    6       -0.0007708512
    7    2    8    6       -0.0000000013
    7    2    9    6       -0.0000000000
    7    2   10    6        0.0000082706
    7    2   11    6       -0.0001260978
    7    2    7    7        0.0000000045
    7    2    8    7        0.0000762865
    7    2    9    7        0.0052918789
    7    2   10    7        0.0003441936
    7    2   11    7        0.0000225891
    7    2    8    8        0.0000000026
    7    2    9    8       -0.0000000055
    7    2   10    8        0.0000001008
    7    2   11    8       -0.0000015391
    7    2    9    9       -0.0000000006
    7    2   10    9       -0.0000294587
    7    2   11    9        0.0004490654
    7    2   10   10       -0.0000198324
    7    2   11   10        0.0001505764
    7    2   11   11        0.0000198365
    8    2    8    2        0.0198571015
    8    2    9    2       -0.0002195755
    8    2   10    2       -0.0000040904
    8    2   11    2       -0.0000002683
    8    2    3    3       -0.0000443874
    8    2    4    3        0.0000000725
    8    2    5    3        0.0001170185
    8    2    6    3       -0.0046942015
    8    2    7    3        0.0000000000
    8    2    8    3       -0.0000033489
    8    2    9    3       -0.0035819455
    8    2   10    3       -0.0000293857
    8    2   11    3       -0.0000019233
    8    2    4    4        0.0002967609
    8    2    5    4       -0.0000000005
    8    2    6    4       -0.0000000022
    8    2    7    4       -0.0000014503
    8    2    8    4       -0.0000001610
    8    2    9    4        0.0000000019
    8    2   10    4       -0.0000189694
    8    2   11    4        0.0002919669
    8    2    5    5        0.0002967970
    8    2    6    5       -0.0000036239
    8    2    7    5        0.0000000010
    8    2    8    5       -0.0002543713
    8    2    9    5        0.0000030667
    8    2   10    5        0.0002920134
    8    2   11    5        0.0000189803
    8    2    6    6        0.0005444309
    8    2    7    6       -0.0000000031
    8    2    8    6       -0.0027322191
    8    2    9    6        0.0000212868
    8    2   10    6       -0.0000024514
    8    2   11    6       -0.0000001606
    8    2    7    7        0.0003199667
    8    2    8    7        0.0000000001
    8    2    9    7       -0.0000000061
    8    2   10    7       -0.0000000557
    8    2   11    7        0.0000008485
    8    2    8    8       -0.0000021082
    8    2    9    8       -0.0049057169
    8    2   10    8       -0.0000889033
    8    2   11    8       -0.0000058314
    8    2    9    9        0.0005473737
    8    2   10    9        0.0000054612
    8    2   11    9        0.0000003582
    8    2   10   10        0.0004123080
    8    2   11   10        0.0000000041
    8    2   11   11        0.0004122444
    9    2    9    2        0.0110300412
    9    2   10    2        0.0001552475
    9    2   11    2        0.0000101815
    9    2    3    3        0.0281140716
    9    2    4    3       -0.0000000014
    9    2    5    3       -0.0000023428
    9    2    6    3        0.0000239048
    9    2    7    3        0.0000000022
    9    2    8    3        0.0060750511
    9    2    9    3        0.0000090071
    9    2   10    3        0.0000002214
    9    2   11    3        0.0000000145
    9    2    4    4        0.0135615259
    9    2    5    4       -0.0000000047
    9    2    6    4       -0.0000000111
    9    2    7    4        0.0000395507
    9    2    8    4        0.0000000032
    9    2    9    4       -0.0000000562
    9    2   10    4        0.0006585097
    9    2   11    4       -0.0101325566
    9    2    5    5        0.0135539917
    9    2    6    5       -0.0000181994
    9    2    7    5       -0.0000000239
    9    2    8    5        0.0000052674
    9    2    9    5       -0.0000937480
    9    2   10    5       -0.0101355974
    9    2   11    5       -0.0006587089
    9    2    6    6        0.0132017551
    9    2    7    6        0.0000000002
    9    2    8    6        0.0000046168
    9    2    9    6       -0.0001907177
    9    2   10    6        0.0000170043
    9    2   11    6        0.0000011146
    9    2    7    7        0.0124521344
    9    2    8    7       -0.0000000028
    9    2    9    7       -0.0000000020
    9    2   10    7        0.0000066457
    9    2   11    7       -0.0001012957
    9    2    8    8        0.0086279020
    9    2    9    8        0.0001317761
    9    2   10    8        0.0000033030
    9    2   11    8        0.0000002166
    9    2    9    9        0.0049656419
    9    2   10    9       -0.0002595312
    9    2   11    9       -0.0000170505
    9    2   10   10        0.0117221701
    9    2   11   10       -0.0000002836
    9    2   11   11        0.0117264726
   10    2   10    2        0.0069715213
   10    2   11    2        0.0000004418
   10    2    3    3       -0.0000005575
   10    2    4    3        0.0000037812
   10    2    5    3       -0.0000581986
   10    2    6    3       -0.0000000920
   10    2    7    3       -0.0000000460
   10    2    8    3        0.0000111111
   10    2    9    3       -0.0000004477
   10    2   10    3       -0.0000038025
   10    2   11    3       -0.0000000008
   10    2    4    4        0.0002188427
   10    2    5    4       -0.0000018591
   10    2    6    4       -0.0000679452
   10    2    7    4       -0.0039318520
   10    2    8    4       -0.0000082620
   10    2    9    4        0.0003178171
   10    2   10    4       -0.0000075415
   10    2   11    4        0.0000442494
   10    2    5    5       -0.0002519448
   10    2    6    5        0.0010423995
   10    2    7    5        0.0002601325
   10    2    8    5        0.0001272384
   10    2    9    5       -0.0048946158
   10    2   10    5       -0.0001231977
   10    2   11    5       -0.0000087124
   10    2    6    6       -0.0000425987
   10    2    7    6        0.0000022896
   10    2    8    6        0.0000011306
   10    2    9    6       -0.0000526524
   10    2   10    6       -0.0003880024
   10    2   11    6       -0.0000001554
   10    2    7    7        0.0000309451
   10    2    8    7        0.0000001995
   10    2    9    7       -0.0000051106
   10    2   10    7        0.0000800180
   10    2   11    7       -0.0006092988
   10    2    8    8       -0.0000995123
   10    2    9    8        0.0000039345
   10    2   10    8        0.0000958228
   10    2   11    8        0.0000000074
   10    2    9    9       -0.0002156593
   10    2   10    9       -0.0025287826
   10    2   11    9       -0.0000005138
   10    2   10   10       -0.0001827053
   10    2   11   10       -0.0000198288
   10    2   11   11        0.0000422599
   11    2   11    2        0.0069648170
   11    2    3    3       -0.0000000685
   11    2    4    3       -0.0000581910
   11    2    5    3       -0.0000037821
   11    2    6    3       -0.0000000060
   11    2    7    3        0.0000007014
   11    2    8    3        0.0000007186
   11    2    9    3       -0.0000000294
   11    2   10    3       -0.0000000012
   11    2   11    3       -0.0000037881
   11    2    4    4        0.0000143769
   11    2    5    4        0.0000239566
   11    2    6    4        0.0010458332
   11    2    7    4       -0.0002603462
   11    2    8    4        0.0001271715
   11    2    9    4       -0.0048903138
   11    2   10    4        0.0000690642
   11    2   11    4        0.0000074833
   11    2    5    5       -0.0000165668
   11    2    6    5        0.0000677162
   11    2    7    5       -0.0039285982
   11    2    8    5        0.0000082708
   11    2    9    5       -0.0003181010
   11    2   10    5       -0.0000087219
   11    2   11    5        0.0000086693
   11    2    6    6       -0.0000027967
   11    2    7    6       -0.0000349044
   11    2    8    6        0.0000000742
   11    2    9    6       -0.0000034543
   11    2   10    6       -0.0000001447
   11    2   11    6       -0.0003857277
   11    2    7    7        0.0000020300
   11    2    8    7       -0.0000030418
   11    2    9    7        0.0000779082
   11    2   10    7       -0.0006051376
   11    2   11    7       -0.0000800184
   11    2    8    8       -0.0000065367
   11    2    9    8        0.0000002580
   11    2   10    8        0.0000000071
   11    2   11    8        0.0000957181
   11    2    9    9       -0.0000141620
   11    2   10    9       -0.0000005143
   11    2   11    9       -0.0025209808
   11    2   10   10       -0.0000219157
   11    2   11   10        0.0000739539
   11    2   11   11        0.0000126605
    3    3    3    3        0.2918316822
    3    3    4    3        0.0000000000
    3    3    5    3       -0.0000000155
    3    3    6    3        0.0000173203
    3    3    7    3        0.0000000185
    3    3    8    3        0.0608978795
    3    3    9    3        0.0000701277
    3    3   10    3        0.0000000014
    3    3   11    3       -0.0000000010
    3    3    4    4        0.1545417776
    3    3    5    4        0.0000000001
    3    3    6    4       -0.0000000016
    3    3    7    4       -0.0000040856
    3    3    8    4       -0.0000000000
    3    3    9    4        0.0000000013
    3    3   10    4        0.0024052329
    3    3   11    4       -0.0370092447
    3    3    5    5        0.1545418759
    3    3    6    5       -0.0000022117
    3    3    7    5        0.0000000024
    3    3    8    5        0.0000000427
    3    3    9    5       -0.0000014330
    3    3   10    5       -0.0370092010
    3    3   11    5       -0.0024052300
    3    3    6    6        0.1412344540
    3    3    7    6        0.0000000003
    3    3    8    6        0.0000038435
    3    3    9    6        0.0046992225
    3    3   10    6        0.0000150248
    3    3   11    6        0.0000009816
    3    3    7    7        0.1344841506
    3    3    8    7        0.0000000008
    3    3    9    7       -0.0000000007
    3    3   10    7       -0.0000000375
    3    3   11    7        0.0000005728
    3    3    8    8        0.1525530786
    3    3    9    8        0.0000219187
    3    3   10    8       -0.0000000202
    3    3   11    8       -0.0000000022
    3    3    9    9        0.1334730134
    3    3   10    9        0.0000242701
    3    3   11    9        0.0000015177
    3    3   10   10        0.1601860547
    3    3   11   10        0.0000000034
    3    3   11   11        0.1601860027
    4    3    4    3        0.0061470298
    4    3    5    3        0.0000000000
    4    3    6    3        0.0000000044
    4    3    7    3       -0.0000274554
    4    3    8    3        0.0000000001
    4    3    9    3        0.0000000067
    4    3   10    3        0.0002780913
    4    3   11    3       -0.0042788855
    4    3    4    4       -0.0000000005
    4    3    5    4       -0.0000005533
    4    3    6    4       -0.0000846251
    4    3    7    4       -0.0000000253
    4    3    8    4       -0.0048216520
    4    3    9    4        0.0000272893
    4    3   10    4       -0.0000011346
    4    3   11    4       -0.0000000746
    4    3    5    5        0.0000000009
    4    3    6    5        0.0000000000
    4    3    7    5       -0.0000191326
    4    3    8    5       -0.0000000002
    4    3    9    5        0.0000000002
    4    3   10    5        0.0000000739
    4    3   11    5       -0.0000011052
    4    3    6    6        0.0000000002
    4    3    7    6        0.0000013080
    4    3    8    6       -0.0000000243
    4    3    9    6       -0.0000000005
    4    3   10    6        0.0000026503
    4    3   11    6       -0.0000407851
    4    3    7    7        0.0000000014
    4    3    8    7        0.0001173390
    4    3    9    7       -0.0000014439
    4    3   10    7        0.0000137316
    4    3   11    7        0.0000009084
    4    3    8    8       -0.0000000002
    4    3    9    8       -0.0000000392
    4    3   10    8        0.0001136579
    4    3   11    8       -0.0017488801
    4    3    9    9        0.0000000025
    4    3   10    9       -0.0000037825
    4    3   11    9        0.0000581977
    4    3   10   10        0.0000003083
    4    3   11   10       -0.0000023282
    4    3   11   11       -0.0000003057
    5    3    5    3        0.0061470700
    5    3    6    3        0.0000072053
    5    3    7    3        0.0000000167
    5    3    8    3        0.0000000837
    5    3    9    3        0.0000105174
    5    3   10    3       -0.0042787915
    5    3   11    3       -0.0002780851
    5    3    4    4        0.0000002488
    5    3    5    4        0.0000000004
    5    3    6    4        0.0000000000
    5    3    7    4       -0.0000191319
    5    3    8    4       -0.0000000002
    5    3    9    4        0.0000000002
    5    3   10    4       -0.0000000477
    5    3   11    4        0.0000007496
    5    3    5    5        0.0000004197
    5    3    6    5       -0.0000846272
    5    3    7    5        0.0000000212
    5    3    8    5       -0.0048219934
    5    3    9    5        0.0000272959
    5    3   10    5        0.0000012450
    5    3   11    5        0.0000000819
    5    3    6    6        0.0000003657
    5    3    7    6       -0.0000000009
    5    3    8    6       -0.0000405757
    5    3    9    6       -0.0000008764
    5    3   10    6       -0.0000407901
    5    3   11    6       -0.0000026504
    5    3    7    7        0.0000020129
    5    3    8    7       -0.0000000709
    5    3    9    7        0.0000000009
    5    3   10    7       -0.0000009107
    5    3   11    7        0.0000137370
    5    3    8    8       -0.0000001259
    5    3    9    8       -0.0000654625
    5    3   10    8       -0.0017494254
    5    3   11    8       -0.0001136940
    5    3    9    9        0.0000042113
    5    3   10    9        0.0000582149
    5    3   11    9        0.0000037832
    5    3   10   10        0.0000024934
    5    3   11   10        0.0000000411
    5    3   11   11        0.0000018906
    6    3    6    3        0.0060630187
    6    3    7    3        0.0000000001
    6    3    8    3        0.0000019653
    6    3    9    3        0.0039815861
    6    3   10    3        0.0000001418
    6    3   11    3        0.0000000023
    6    3    4    4       -0.0001450423
    6    3    5    4        0.0000000000
    6    3    6    4       -0.0000000002
    6    3    7    4        0.0000000463
    6    3    8    4       -0.0000000067
    6    3    9    4        0.0000000000
    6    3   10    4        0.0000068497
    6    3   11    4       -0.0001054073
    6    3    5    5       -0.0001450420
    6    3    6    5       -0.0000002534
    6    3    7    5       -0.0000000001
    6    3    8    5       -0.0000138105
    6    3    9    5        0.0000000445
    6    3   10    5       -0.0001054041
    6    3   11    5       -0.0000068494
    6    3    6    6       -0.0003575316
    6    3    7    6        0.0000000014
    6    3    8    6       -0.0008386660
    6    3    9    6       -0.0000817297
    6    3   10    6        0.0000000913
    6    3   11    6        0.0000000060
    6    3    7    7       -0.0001364725
    6    3    8    7       -0.0000000004
    6    3    9    7        0.0000000010
    6    3   10    7        0.0000000037
    6    3   11    7       -0.0000000569
    6    3    8    8        0.0000023354
    6    3    9    8        0.0001782807
    6    3   10    8       -0.0000049498
    6    3   11    8       -0.0000003266
    6    3    9    9       -0.0001957280
    6    3   10    9        0.0000000985
    6    3   11    9        0.0000000065
    6    3   10   10       -0.0001413619
    6    3   11   10        0.0000000001
    6    3   11   11       -0.0001413654
    7    3    7    3        0.0017690807
    7    3    8    3        0.0000000057
    7    3    9    3       -0.0000000000
    7    3   10    3       -0.0000006545
    7    3   11    3        0.0000099776
    7    3    4    4       -0.0000000003
    7    3    5    4       -0.0000026732
    7    3    6    4        0.0000009224
    7    3    7    4        0.0000000003
    7    3    8    4        0.0000523016
    7    3    9    4       -0.0000005301
    7    3   10    4        0.0000104379
    7    3   11    4        0.0000006882
    7    3    5    5        0.0000000062
    7    3    6    5       -0.0000000006
    7    3    7    5        0.0000002907
    7    3    8    5       -0.0000000317
    7    3    9    5        0.0000000004
    7    3   10    5       -0.0000006942
    7    3   11    5        0.0000104376
    7    3    6    6        0.0000000029
    7    3    7    6       -0.0000340692
    7    3    8    6       -0.0000000005
    7    3    9    6        0.0000000013
    7    3   10    6       -0.0000000243
    7    3   11    6        0.0000003712
    7    3    7    7       -0.0000000030
    7    3    8    7       -0.0032472915
    7    3    9    7        0.0000109750
    7    3   10    7        0.0000000434
    7    3   11    7        0.0000000027
    7    3    8    8        0.0000000064
    7    3    9    8        0.0000000004
    7    3   10    8       -0.0000002968
    7    3   11    8        0.0000045188
    7    3    9    9        0.0000000021
    7    3   10    9        0.0000000462
    7    3   11    9       -0.0000007056
    7    3   10   10       -0.0000032500
    7    3   11   10        0.0000246937
    7    3   11   11        0.0000032575
    8    3    8    3        0.0239452704
    8    3    9    3        0.0000208077
    8    3   10    3       -0.0000000138
    8    3   11    3       -0.0000000014
    8    3    4    4        0.0091037044
    8    3    5    4       -0.0000000005
    8    3    6    4       -0.0000000213
    8    3    7    4        0.0000678259
    8    3    8    4       -0.0000000001
    8    3    9    4        0.0000000136
    8    3   10    4        0.0006388911
    8    3   11    4       -0.0098305962
    8    3    5    5        0.0091028117
    8    3    6    5       -0.0000347234
    8    3    7    5       -0.0000000404
    8    3    8    5       -0.0000000894
    8    3    9    5        0.0000198027
    8    3   10    5       -0.0098309309
    8    3   11    5       -0.0006389132
    8    3    6    6        0.0064344206
    8    3    7    6       -0.0000000001
    8    3    8    6        0.0000004631
    8    3    9    6        0.0014765338
    8    3   10    6        0.0000333231
    8    3   11    6        0.0000021841
    8    3    7    7        0.0034646682
    8    3    8    7        0.0000000032
    8    3    9    7        0.0000000003
    8    3   10    7        0.0000060766
    8    3   11    7       -0.0000926505
    8    3    8    8        0.0117072390
    8    3    9    8        0.0000046369
    8    3   10    8        0.0000000962
    8    3   11    8        0.0000000061
    8    3    9    9        0.0066214301
    8    3   10    9       -0.0001205544
    8    3   11    9       -0.0000079279
    8    3   10   10        0.0130860375
    8    3   11   10       -0.0000000289
    8    3   11   11        0.0130864772
    9    3    9    3        0.0048491154
    9    3   10    3        0.0000012660
    9    3   11    3        0.0000000737
    9    3    4    4       -0.0000765338
    9    3    5    4        0.0000000001
    9    3    6    4       -0.0000000003
    9    3    7    4       -0.0000000440
    9    3    8    4       -0.0000000116
    9    3    9    4        0.0000000002
    9    3   10    4        0.0000046015
    9    3   11    4       -0.0000708146
    9    3    5    5       -0.0000765302
    9    3    6    5       -0.0000005263
    9    3    7    5       -0.0000000000
    9    3    8    5       -0.0000215114
    9    3    9    5        0.0000003647
    9    3   10    5       -0.0000708056
    9    3   11    5       -0.0000046013
    9    3    6    6       -0.0002222980
    9    3    7    6        0.0000000010
    9    3    8    6       -0.0001103405
    9    3    9    6       -0.0000590949
    9    3   10    6       -0.0000001581
    9    3   11    6       -0.0000000104
    9    3    7    7       -0.0000761431
    9    3    8    7        0.0000000005
    9    3    9    7        0.0000000006
    9    3   10    7        0.0000000010
    9    3   11    7       -0.0000000166
    9    3    8    8        0.0000151196
    9    3    9    8       -0.0003257574
    9    3   10    8       -0.0000179024
    9    3   11    8       -0.0000011776
    9    3    9    9       -0.0000989691
    9    3   10    9        0.0000005666
    9    3   11    9        0.0000000372
    9    3   10   10       -0.0000621605
    9    3   11   10        0.0000000009
    9    3   11   11       -0.0000621716
   10    3   10    3        0.0048564265
   10    3   11    3        0.0000000085
   10    3    4    4       -0.0000003603
   10    3    5    4       -0.0000000058
   10    3    6    4       -0.0000009867
   10    3    7    4        0.0000108956
   10    3    8    4       -0.0000356376
   10    3    9    4       -0.0000003914
   10    3   10    4        0.0000000293
   10    3   11    4       -0.0000005832
   10    3    5    5        0.0000002337
   10    3    6    5        0.0000151769
   10    3    7    5       -0.0000007212
   10    3    8    5        0.0005477166
   10    3    9    5        0.0000060324
   10    3   10    5        0.0000002259
   10    3   11    5        0.0000000009
   10    3    6    6       -0.0000001503
   10    3    7    6        0.0000000222
   10    3    8    6        0.0000066441
   10    3    9    6        0.0000001498
   10    3   10    6       -0.0000010587
   10    3   11    6       -0.0000000008
   10    3    7    7       -0.0000005554
   10    3    8    7        0.0000029845
   10    3    9    7       -0.0000000180
   10    3   10    7       -0.0000008723
   10    3   11    7        0.0000066265
   10    3    8    8       -0.0000000033
   10    3    9    8       -0.0000063602
   10    3   10    8       -0.0003933354
   10    3   11    8       -0.0000000521
   10    3    9    9       -0.0000001921
   10    3   10    9        0.0000078726
   10    3   11    9        0.0000000025
   10    3   10   10        0.0000000914
   10    3   11   10        0.0000000360
   10    3   11   11       -0.0000008351
   11    3   11    3        0.0048562972
   11    3    4    4       -0.0000000235
   11    3    5    4        0.0000000933
   11    3    6    4        0.0000151808
   11    3    7    4        0.0000007216
   11    3    8    4        0.0005482912
   11    3    9    4        0.0000060191
   11    3   10    4        0.0000001398
   11    3   11    4       -0.0000000289
   11    3    5    5        0.0000000153
   11    3    6    5        0.0000009866
   11    3    7    5        0.0000108914
   11    3    8    5        0.0000355996
   11    3    9    5        0.0000003919
   11    3   10    5        0.0000000007
   11    3   11    5        0.0000002171
   11    3    6    6       -0.0000000095
   11    3    7    6       -0.0000003387
   11    3    8    6        0.0000004350
   11    3    9    6        0.0000000099
   11    3   10    6       -0.0000000003
   11    3   11    6       -0.0000010530
   11    3    7    7       -0.0000000364
   11    3    8    7       -0.0000455006
   11    3    9    7        0.0000002739
   11    3   10    7        0.0000066182
   11    3   11    7        0.0000008724
   11    3    8    8       -0.0000000004
   11    3    9    8       -0.0000004191
   11    3   10    8       -0.0000000480
   11    3   11    8       -0.0003925758
   11    3    9    9       -0.0000000125
   11    3   10    9        0.0000000021
   11    3   11    9        0.0000078457
   11    3   10   10       -0.0000000437
   11    3   11   10        0.0000003791
   11    3   11   11       -0.0000000052
    4    4    4    4        0.1465833384
    4    4    5    4       -0.0000142932
    4    4    6    4       -0.0000001054
    4    4    7    4       -0.0002422952
    4    4    8    4        0.0000000016
    4    4    9    4       -0.0000000566
    4    4   10    4        0.0009270909
    4    4   11    4       -0.0142936233
    4    4    5    5        0.1205383230
    4    4    6    5       -0.0000773908
    4    4    7    5        0.0000002532
    4    4    8    5        0.0000002975
    4    4    9    5       -0.0001337229
    4    4   10    5       -0.0152491146
    4    4   11    5       -0.0009928787
    4    4    6    6        0.1260001429
    4    4    7    6        0.0000004746
    4    4    8    6        0.0000314641
    4    4    9    6       -0.0007013873
    4    4   10    6       -0.0001163119
    4    4   11    6       -0.0000075781
    4    4    7    7        0.1245189679
    4    4    8    7        0.0000000006
    4    4    9    7        0.0000015450
    4    4   10    7        0.0000037943
    4    4   11    7       -0.0000600721
    4    4    8    8        0.1252079899
    4    4    9    8       -0.0000859521
    4    4   10    8        0.0000014819
    4    4   11    8        0.0000000980
    4    4    9    9        0.1183009374
    4    4   10    9       -0.0000252127
    4    4   11    9       -0.0000018982
    4    4   10   10        0.1264101659
    4    4   11   10       -0.0006629866
    4    4   11   11        0.1365117553
    5    4    5    4        0.0012713639
    5    4    6    4       -0.0000477661
    5    4    7    4        0.0000002394
    5    4    8    4        0.0000011799
    5    4    9    4        0.0000197356
    5    4   10    4       -0.0010259085
    5    4   11    4       -0.0000685127
    5    4    5    5        0.0000142931
    5    4    6    5        0.0000001871
    5    4    7    5        0.0000869266
    5    4    8    5       -0.0000000023
    5    4    9    5        0.0000001166
    5    4   10    5        0.0000685164
    5    4   11    5       -0.0010259696
    5    4    6    6        0.0000000048
    5    4    7    6        0.0003902429
    5    4    8    6       -0.0000000002
    5    4    9    6        0.0000000032
[...]
    8    5    8    8       -0.0000002337
    8    5    9    8        0.0001737632
    8    5   10    8        0.0040903403
    8    5   11    8        0.0002658365
    8    5    9    9       -0.0000101727
    8    5   10    9       -0.0001411449
    8    5   11    9       -0.0000091704
    8    5   10   10       -0.0000066131
    8    5   11   10       -0.0000002537
    8    5   11   11       -0.0000028085
    9    5    9    5        0.0064893933
    9    5   10    5        0.0000516805
    9    5   11    5        0.0000034149
    9    5    6    6       -0.0000870124
    9    5    7    6       -0.0000000480
    9    5    8    6       -0.0000008158
    9    5    9    6        0.0000540656
    9    5   10    6        0.0014237534
    9    5   11    6        0.0000925119
    9    5    7    7       -0.0001810742
    9    5    8    7       -0.0000000013
    9    5    9    7        0.0000000547
    9    5   10    7        0.0002280394
    9    5   11    7       -0.0034439658
    9    5    8    8       -0.0000589174
    9    5    9    8       -0.0000032056
    9    5   10    8       -0.0000612978
    9    5   11    8       -0.0000039819
    9    5    9    9        0.0000531611
    9    5   10    9       -0.0017214428
    9    5   11    9       -0.0001118702
    9    5   10   10        0.0000704522
    9    5   11   10        0.0000096318
    9    5   11   11       -0.0000755304
   10    5   10    5        0.0174187324
   10    5   11    5        0.0007542061
   10    5    6    6       -0.0106486122
   10    5    7    6       -0.0000713919
   10    5    8    6        0.0000142998
   10    5    9    6        0.0012640572
   10    5   10    6       -0.0000536975
   10    5   11    6       -0.0000070497
   10    5    7    7       -0.0108144464
   10    5    8    7        0.0000019626
   10    5    9    7        0.0002193699
   10    5   10    7       -0.0000058246
   10    5   11    7        0.0001989264
   10    5    8    8       -0.0099959037
   10    5    9    8       -0.0001093623
   10    5   10    8       -0.0000037005
   10    5   11    8       -0.0000003161
   10    5    9    9       -0.0076758352
   10    5   10    9        0.0003166634
   10    5   11    9        0.0000340617
   10    5   10   10       -0.0159746874
   10    5   11   10        0.0001578891
   10    5   11   11       -0.0167491195
   11    5   11    5        0.0058299971
   11    5    6    6       -0.0006920513
   11    5    7    6        0.0010782254
   11    5    8    6        0.0000009286
   11    5    9    6        0.0000821319
   11    5   10    6       -0.0000069949
   11    5   11    6        0.0000529217
   11    5    7    7       -0.0007028257
   11    5    8    7       -0.0000296140
   11    5    9    7       -0.0033130420
   11    5   10    7       -0.0001089223
   11    5   11    7        0.0000058855
   11    5    8    8       -0.0006496173
   11    5    9    8       -0.0000071053
   11    5   10    8       -0.0000003159
   11    5   11    8        0.0000010843
   11    5    9    9       -0.0004988435
   11    5   10    9        0.0000338435
   11    5   11    9       -0.0001977427
   11    5   10   10       -0.0008277489
   11    5   11   10       -0.0015829930
   11    5   11   11       -0.0012989516
    6    6    6    6        0.1293290247
    6    6    7    6        0.0000000003
    6    6    8    6        0.0000672390
    6    6    9    6        0.0031304117
    6    6   10    6       -0.0000904299
    6    6   11    6       -0.0000059390
    6    6    7    7        0.1189434097
    6    6    8    7       -0.0000000011
    6    6    9    7       -0.0000000033
    6    6   10    7       -0.0000211227
    6    6   11    7        0.0003219763
    6    6    8    8        0.1185929237
    6    6    9    8       -0.0001086340
    6    6   10    8       -0.0000008564
    6    6   11    8       -0.0000000564
    6    6    9    9        0.1134148963
    6    6   10    9        0.0004312204
    6    6   11    9        0.0000282566
    6    6   10   10        0.1207697790
    6    6   11   10        0.0000001855
    6    6   11   11        0.1207669413
    7    6    7    6        0.0045955287
    7    6    8    6       -0.0000000008
    7    6    9    6       -0.0000000023
    7    6   10    6       -0.0000040812
    7    6   11    6        0.0000622201
    7    6    7    7       -0.0000000008
    7    6    8    7        0.0000795195
    7    6    9    7       -0.0030698850
    7    6   10    7       -0.0001525080
    7    6   11    7       -0.0000099961
    7    6    8    8        0.0000000004
    7    6    9    8        0.0000000025
    7    6   10    8        0.0000000325
    7    6   11    8       -0.0000004927
    7    6    9    9        0.0000000010
    7    6   10    9        0.0000109617
    7    6   11    9       -0.0001670941
    7    6   10   10        0.0003381083
    7    6   11   10       -0.0025659879
    7    6   11   11       -0.0003381066
    8    6    8    6        0.0031084611
    8    6    9    6        0.0000113357
    8    6   10    6        0.0000005075
    8    6   11    6        0.0000000334
    8    6    7    7        0.0000368768
    8    6    8    7        0.0000000011
    8    6    9    7        0.0000000021
    8    6   10    7        0.0000000184
    8    6   11    7       -0.0000002804
    8    6    8    8       -0.0000000453
    8    6    9    8        0.0011831895
    8    6   10    8        0.0000452671
    8    6   11    8        0.0000029702
    8    6    9    9        0.0000095080
    8    6   10    9       -0.0000015152
    8    6   11    9       -0.0000000994
    8    6   10   10        0.0000245616
    8    6   11   10       -0.0000000012
    8    6   11   11        0.0000246019
    9    6    9    6        0.0057425889
    9    6   10    6        0.0000365512
    9    6   11    6        0.0000023932
    9    6    7    7       -0.0032235972
    9    6    8    7        0.0000000010
    9    6    9    7        0.0000000010
    9    6   10    7        0.0000032022
    9    6   11    7       -0.0000488084
    9    6    8    8       -0.0006852510
    9    6    9    8        0.0000285978
    9    6   10    8        0.0000006993
    9    6   11    8        0.0000000459
    9    6    9    9       -0.0001194842
    9    6   10    9       -0.0000282813
    9    6   11    9       -0.0000018543
    9    6   10   10       -0.0023058659
    9    6   11   10        0.0000001436
    9    6   11   11       -0.0023080244
   10    6   10    6        0.0027358006
   10    6   11    6        0.0000000923
   10    6    7    7       -0.0001889248
   10    6    8    7        0.0000001127
   10    6    9    7        0.0000028576
   10    6   10    7        0.0004609406
   10    6   11    7       -0.0034977032
   10    6    8    8       -0.0001157485
   10    6    9    8        0.0000020205
   10    6   10    8        0.0000582664
   10    6   11    8        0.0000000040
   10    6    9    9       -0.0001258610
   10    6   10    9       -0.0041100138
   10    6   11    9        0.0000000949
   10    6   10   10       -0.0000346543
   10    6   11   10       -0.0000016067
   10    6   11   11       -0.0000761549
   11    6   11    6        0.0027343757
   11    6    7    7       -0.0000123819
   11    6    8    7       -0.0000017176
   11    6    9    7       -0.0000435578
   11    6   10    7       -0.0034989955
   11    6   11    7       -0.0004609389
   11    6    8    8       -0.0000075937
   11    6    9    8        0.0000001325
   11    6   10    8        0.0000000037
   11    6   11    8        0.0000582376
   11    6    9    9       -0.0000082531
   11    6   10    9        0.0000001721
   11    6   11    9       -0.0041119980
   11    6   10   10       -0.0000108865
   11    6   11   10        0.0000653075
   11    6   11   11        0.0000036399
    7    7    7    7        0.1276104414
    7    7    8    7        0.0000000051
    7    7    9    7        0.0000000011
    7    7   10    7       -0.0000337087
    7    7   11    7        0.0005138309
    7    7    8    8        0.1196491630
    7    7    9    8       -0.0000852174
    7    7   10    8       -0.0000019252
    7    7   11    8       -0.0000001268
    7    7    9    9        0.1127844283
    7    7   10    9        0.0006404987
    7    7   11    9        0.0000419868
    7    7   10   10        0.1231385250
    7    7   11   10        0.0000000072
    7    7   11   11        0.1231384428
    8    7    8    7        0.0075299987
    8    7    9    7       -0.0000321335
    8    7   10    7        0.0000002794
    8    7   11    7        0.0000000184
    8    7    8    8       -0.0000000060
    8    7    9    8       -0.0000000005
    8    7   10    8        0.0000019498
    8    7   11    8       -0.0000297043
    8    7    9    9        0.0000000003
    8    7   10    9       -0.0000002398
    8    7   11    9        0.0000036562
    8    7   10   10        0.0000088943
    8    7   11   10       -0.0000675109
    8    7   11   11       -0.0000088969
    9    7    9    7        0.0053555521
    9    7   10    7        0.0000890807
    9    7   11    7        0.0000058394
    9    7    8    8       -0.0000000004
    9    7    9    8        0.0000000000
    9    7   10    8       -0.0000000756
    9    7   11    8        0.0000011519
    9    7    9    9       -0.0000000012
    9    7   10    9       -0.0000033292
    9    7   11    9        0.0000507378
    9    7   10   10       -0.0004986848
    9    7   11   10        0.0037845875
    9    7   11   11        0.0004986844
   10    7   10    7        0.0096652608
   10    7   11    7       -0.0000001864
   10    7    8    8       -0.0000275989
   10    7    9    8        0.0000000541
   10    7   10    8        0.0000067113
   10    7   11    8       -0.0000509230
   10    7    9    9       -0.0000272309
   10    7   10    9       -0.0013637627
   10    7   11    9        0.0103471870
   10    7   10   10        0.0000077810
   10    7   11   10       -0.0001896632
   10    7   11   11       -0.0000318979
   11    7   11    7        0.0096681669
   11    7    8    8        0.0004207603
   11    7    9    8       -0.0000008248
   11    7   10    8       -0.0000509856
   11    7   11    8       -0.0000067167
   11    7    9    9        0.0004150682
   11    7   10    9        0.0103520004
   11    7   11    9        0.0013637670
   11    7   10   10        0.0002626480
   11    7   11   10       -0.0000022235
   11    7   11   11        0.0001046422
    8    8    8    8        0.1268149864
    8    8    9    8        0.0000008216
    8    8   10    8       -0.0000008051
    8    8   11    8       -0.0000000532
    8    8    9    9        0.1153403905
    8    8   10    9        0.0006182391
    8    8   11    9        0.0000405384
    8    8   10   10        0.1244228085
    8    8   11   10        0.0000002486
    8    8   11   11        0.1244190306
    9    8    9    8        0.0057645250
    9    8   10    8        0.0001226788
    9    8   11    8        0.0000080506
    9    8    9    9       -0.0002551338
    9    8   10    9       -0.0000055769
    9    8   11    9       -0.0000003661
    9    8   10   10       -0.0001676985
    9    8   11   10       -0.0000000098
    9    8   11   11       -0.0001675813
   10    8   10    8        0.0048794483
   10    8   11    8        0.0000003023
   10    8    9    9       -0.0000071382
   10    8   10    9       -0.0001285519
   10    8   11    9       -0.0000000182
   10    8   10   10       -0.0000054322
   10    8   11   10       -0.0000005558
   10    8   11   11        0.0000003828
   11    8   11    8        0.0048748618
   11    8    9    9       -0.0000004687
   11    8   10    9       -0.0000000180
   11    8   11    9       -0.0001283655
   11    8   10   10       -0.0000006994
   11    8   11   10        0.0000025641
   11    8   11   11        0.0000003674
    9    9    9    9        0.1165311366
    9    9   10    9        0.0007404224
    9    9   11    9        0.0000485604
    9    9   10   10        0.1196066864
    9    9   11   10        0.0000005820
    9    9   11   11        0.1195978367
   10    9   10    9        0.0153109626
   10    9   11    9        0.0000006453
   10    9   10   10        0.0004444359
   10    9   11   10        0.0000378474
   10    9   11   11        0.0001835483
   11    9   11    9        0.0153011313
   11    9   10   10        0.0000701038
   11    9   11   10       -0.0003085146
   11    9   11   11       -0.0000289860
   10   10   10   10        0.1381608536
   10   10   11   10       -0.0003893067
   10   10   11   11        0.1310131927
   11   10   11   10        0.0064768903
   11   10   11   11        0.0003892990
   11   11   11   11        0.1381609723
 end_two_electron_integrals


 output epsi filename:./pspw_hf_H2.emovecs

 Total PSPW energy     :  -0.1004261037E+01


=== Spin Contamination ===

 <Sexact^2> =    0.0000000000000000     
 <S^2>      =    0.0000000000000000     



== Center of Charge ==

spin up     (    0.0000,    0.0000,    0.0000 )
spin down   (    0.0000,    0.0000,    0.0000 )
     total  (    0.0000,    0.0000,    0.0000 )
ionic       (    0.0000,    0.0000,    0.0000 )


== Molecular Dipole wrt Center of Mass ==

mu   =  (   -0.0000,   -0.0000,   -0.0000 ) au
|mu| =     0.0000 au,       0.0000 Debye

 output psi filename:./pspw_hf_H2.movecs

 Writing Crystallographic Information File:./H2.cif
   - cell not shifted (nwpw:cif_shift_cell .false.)


== Timing ==

cputime in seconds
  prologue    :   0.625016E+01
  main loop   :   0.248475E+03
  epilogue    :   0.113751E-01
  total       :   0.254737E+03
  cputime/step:   0.192616E+01       (     129 evalulations,      53 linesearches)


Time spent doing                        total          step       percent
  total time                 :   0.254737E+03  0.197471E+01       100.0 %
  i/o time                   :   0.131441E+00  0.101892E-02         0.1 %
  FFTs                       :   0.221859E+03  0.171984E+01        87.1 %
  dot products               :   0.311995E+00  0.241856E-02         0.1 %
  geodesic                   :   0.511307E-01  0.396362E-03         0.0 %
  ffm_dgemm                  :   0.598849E-02  0.464224E-04         0.0 %
  fmf_dgemm                  :   0.250539E-01  0.194216E-03         0.0 %
  mmm_dgemm                  :   0.111030E-02  0.860697E-05         0.0 %
  m_diagonalize              :   0.687577E-03  0.533005E-05         0.0 %
  local pseudopotentials     :   0.104186E-01  0.807645E-04         0.0 %
  non-local pseudopotentials :   0.676567E+00  0.524471E-02         0.3 %
  structure factors          :   0.322375E+00  0.249903E-02         0.1 %
  phase factors              :   0.586900E-05  0.454961E-07         0.0 %
  masking and packing        :   0.326730E+01  0.253279E-01         1.3 %
  queue fft                  :   0.108344E+01  0.839876E-02         0.4 %
  queue fft (serial)         :   0.640971E+00  0.496876E-02         0.3 %
  queue fft (message passing):   0.403839E+00  0.313054E-02         0.2 %
  HFX potential              :   0.180289E+03  0.139759E+01        70.8 %
  non-local psp FFM          :   0.365733E+00  0.283514E-02         0.1 %
  non-local psp FMF          :   0.809518E-01  0.627533E-03         0.0 %
  non-local psp FFM A        :   0.964404E-01  0.747600E-03         0.0 %
  non-local psp FFM B        :   0.669916E-01  0.519315E-03         0.0 %

== HFX Counters ==
  HFX Evalulations         =   129
  Lin ACE HFX Evalulations =     0


     >>>  JOB COMPLETED     AT Wed Apr 30 10:24:50 2025  <<<

 Task  times  cpu:      270.4s     wall:      254.7s
 Summary of allocated global arrays
-----------------------------------
  No active global arrays


MA_summarize_allocated_blocks: starting scan ...
MA_summarize_allocated_blocks: scan completed: 0 heap blocks, 0 stack blocks
MA usage statistics:

	allocation statistics:
					      heap	     stack
					      ----	     -----
	current number of blocks	         0	         0
	maximum number of blocks	       313	        17
	current total bytes		         0	         0
	maximum total bytes		 367819864	  89294088
	maximum total K-bytes		    367820	     89295
	maximum total M-bytes		       368	        90


                                NWChem Input Module
                                -------------------




                                     CITATION
                                     --------
                Please cite the following reference when publishing
                           results obtained with NWChem:

          E. Apra, E. J. Bylaska, W. A. de Jong, N. Govind, K. Kowalski,
       T. P. Straatsma, M. Valiev, H. J. J. van Dam, Y. Alexeev, J. Anchell,
       V. Anisimov, F. W. Aquino, R. Atta-Fynn, J. Autschbach, N. P. Bauman,
     J. C. Becca, D. E. Bernholdt, K. Bhaskaran-Nair, S. Bogatko, P. Borowski,
         J. Boschen, J. Brabec, A. Bruner, E. Cauet, Y. Chen, G. N. Chuev,
      C. J. Cramer, J. Daily, M. J. O. Deegan, T. H. Dunning Jr., M. Dupuis,
   K. G. Dyall, G. I. Fann, S. A. Fischer, A. Fonari, H. Fruchtl, L. Gagliardi,
      J. Garza, N. Gawande, S. Ghosh, K. Glaesemann, A. W. Gotz, J. Hammond,
       V. Helms, E. D. Hermes, K. Hirao, S. Hirata, M. Jacquelin, L. Jensen,
   B. G. Johnson, H. Jonsson, R. A. Kendall, M. Klemm, R. Kobayashi, V. Konkov,
      S. Krishnamoorthy, M. Krishnan, Z. Lin, R. D. Lins, R. J. Littlefield,
      A. J. Logsdail, K. Lopata, W. Ma, A. V. Marenich, J. Martin del Campo,
   D. Mejia-Rodriguez, J. E. Moore, J. M. Mullin, T. Nakajima, D. R. Nascimento,
    J. A. Nichols, P. J. Nichols, J. Nieplocha, A. Otero-de-la-Roza, B. Palmer,
    A. Panyala, T. Pirojsirikul, B. Peng, R. Peverati, J. Pittner, L. Pollack,
   R. M. Richard, P. Sadayappan, G. C. Schatz, W. A. Shelton, D. W. Silverstein,
   D. M. A. Smith, T. A. Soares, D. Song, M. Swart, H. L. Taylor, G. S. Thomas,
            V. Tipparaju, D. G. Truhlar, K. Tsemekhman, T. Van Voorhis,
      A. Vazquez-Mayagoitia, P. Verma, O. Villa, A. Vishnu, K. D. Vogiatzis,
        D. Wang, J. H. Weare, M. J. Williamson, T. L. Windus, K. Wolinski,
        A. T. Wong, Q. Wu, C. Yang, Q. Yu, M. Zacharias, Z. Zhang, Y. Zhao,
                                and R. J. Harrison
                        "NWChem: Past, present, and future
                         J. Chem. Phys. 152, 184102 (2020)
                               doi:10.1063/5.0004997

                                      AUTHORS
                                      -------
  E. Apra, E. J. Bylaska, N. Govind, K. Kowalski, M. Valiev, D. Mejia-Rodriguez,
       A. Kunitsa, N. P. Bauman, A. Panyala, W. A. de Jong, T. P. Straatsma,
   H. J. J. van Dam, D. Wang, T. L. Windus, J. Hammond, J. Autschbach, A. Woods,
    K. Bhaskaran-Nair, J. Brabec, K. Lopata, S. A. Fischer, S. Krishnamoorthy,
     M. Jacquelin, W. Ma, M. Klemm, O. Villa, Y. Chen, V. Anisimov, F. Aquino,
     S. Hirata, M. T. Hackler, E. Hermes, L. Jensen, J. E. Moore, J. C. Becca,
      V. Konjkov, T. Risthaus, M. Malagoli, A. Marenich, A. Otero-de-la-Roza,
        J. Mullin, P. Nichols, R. Peverati, J. Pittner, Y. Zhao, P.-D. Fan,
        A. Fonari, M. J. Williamson, R. J. Harrison, J. R. Rehr, M. Dupuis,
     D. Silverstein, D. M. A. Smith, J. Nieplocha, V. Tipparaju, M. Krishnan,
     B. E. Van Kuiken, A. Vazquez-Mayagoitia, M. Swart, Q. Wu, T. Van Voorhis,
     A. A. Auer, M. Nooijen, L. D. Crosby, E. Brown, G. Cisneros, G. I. Fann,
   H. Fruchtl, J. Garza, K. Hirao, R. A. Kendall, J. A. Nichols, K. Tsemekhman,
    K. Wolinski, J. Anchell, D. E. Bernholdt, P. Borowski, T. Clark, D. Clerc,
   H. Dachsel, M. J. O. Deegan, K. Dyall, D. Elwood, E. Glendening, M. Gutowski,
   A. C. Hess, J. Jaffe, B. G. Johnson, J. Ju, R. Kobayashi, R. Kutteh, Z. Lin,
   R. Littlefield, X. Long, B. Meng, T. Nakajima, S. Niu, L. Pollack, M. Rosing,
   K. Glaesemann, G. Sandrone, M. Stave, H. Taylor, G. Thomas, J. H. van Lenthe,
                               A. T. Wong, Z. Zhang.

 Total times  cpu:      270.5s     wall:      254.8s
