 argument  1 = H2-2.5.nw



============================== echo of input deck ==============================
title "swnc: e theory=pspw4 xc=hf formula=H2 charge=0 mult=1"
#machinejob:expert

echo

start pspw_hf_H2

memory heap 1200 mb stack 1200 mb global 10 mb

charge 0

geometry
H    0.00000    0.00000   -1.25000
H    0.00000    0.00000    1.25000
end

nwpw
  ### pseudopotential block begin ###
  ### pseudopotential block end   ###
  simulation_cell
     SC 15.0000
     boundary_conditions aperiodic
  end

  cutoff 50.0
  mult 1
  xc hf
  lmbfgs
  tolerances 1.0e-9 1.0e-9

  virtual 10
end
set nwpw:cif_filename H2

#set nwpw:CI_maxit_orb 15
#set nwpw:CI_maxit_linesearch 15
set pspw:HFX_screening_radius 14.0


set nwpw:2qintegrals .true.
#set nwpw:3x3_virtual .true.

task pspw energy

================================================================================


                                         
                                         


             Northwest Computational Chemistry Package (NWChem) 7.2.2
             --------------------------------------------------------


                    Environmental Molecular Sciences Laboratory
                       Pacific Northwest National Laboratory
                                Richland, WA 99352

                              Copyright (c) 1994-2022
                       Pacific Northwest National Laboratory
                            Battelle Memorial Institute

             NWChem is an open-source computational chemistry package
                        distributed under the terms of the
                      Educational Community License (ECL) 2.0
             A copy of the license is included with this distribution
                              in the LICENSE.TXT file

                                  ACKNOWLEDGMENT
                                  --------------

            This software and its documentation were developed at the
            EMSL at Pacific Northwest National Laboratory, a multiprogram
            national laboratory, operated for the U.S. Department of Energy
            by Battelle under Contract Number DE-AC05-76RL01830. Support
            for this work was provided by the Department of Energy Office
            of Biological and Environmental Research, Office of Basic
            Energy Sciences, and the Office of Advanced Scientific Computing.


           Job information
           ---------------

    hostname        = LAPTOP-JJQSTSEL
    program         = nwchem
    date            = Wed Apr 30 10:33:34 2025

    compiled        = Fri_Jun_07_07:50:04_2024
    source          = /home/conda/feedstock_root/build_artifacts/nwchem_1717738148552/work
    nwchem branch   = 7.2.2
    nwchem revision = 64ba0f0
    ga revision     = 5.8.0
    use scalapack   = T
    input           = H2-2.5.nw
    prefix          = pspw_hf_H2.
    data base       = ./pspw_hf_H2.db
    status          = startup
    nproc           =        1
    time left       =     -1s



           Memory information
           ------------------

    heap     =  157286400 doubles =   1200.0 Mbytes
    stack    =  157286397 doubles =   1200.0 Mbytes
    global   =    1310720 doubles =     10.0 Mbytes (distinct from heap & stack)
    total    =  315883517 doubles =   2410.0 Mbytes
    verify   = yes
    hardfail = no 


           Directory information
           ---------------------

  0 permanent = .
  0 scratch   = .




                                NWChem Input Module
                                -------------------


               swnc: e theory=pspw4 xc=hf formula=H2 charge=0 mult=1
               -----------------------------------------------------

 Scaling coordinates for geometry "geometry" by  1.889725989
 (inverse scale =  0.529177249)

 ORDER OF PRIMARY AXIS IS BEING SET TO 4
 D4H symmetry detected

          ------
          auto-z
          ------
     1 autoz failed with cvr_scaling = 1.2 changing to 1.3
     2 autoz failed with cvr_scaling = 1.3 changing to 1.4
     3 autoz failed with cvr_scaling = 1.4 changing to 1.5
     4 autoz failed with cvr_scaling = 1.5 changing to 1.6
     5 autoz failed with cvr_scaling = 1.6 changing to 1.7

 AUTOZ failed to generate good internal coordinates.
 Cartesian coordinates will be used in optimizations.



                             Geometry "geometry" -> ""
                             -------------------------

 Output coordinates in angstroms (scale by  1.889725989 to convert to a.u.)

  No.       Tag          Charge          X              Y              Z
 ---- ---------------- ---------- -------------- -------------- --------------
    1 H                    1.0000     0.00000000     0.00000000    -1.25000000
    2 H                    1.0000     0.00000000     0.00000000     1.25000000

      Atomic Mass 
      ----------- 

      H                  1.007825


 Effective nuclear repulsion energy (a.u.)       0.2116708996

            Nuclear Dipole moment (a.u.) 
            ----------------------------
        X                 Y               Z
 ---------------- ---------------- ----------------
     0.0000000000     0.0000000000     0.0000000000

      Symmetry information
      --------------------

 Group name             D4h       
 Group number             28
 Group order              16
 No. of unique centers     1

      Symmetry unique atoms

     1


            XYZ format geometry
            -------------------
     2
 geometry
 H                     0.00000000     0.00000000    -1.25000000
 H                     0.00000000     0.00000000     1.25000000

          ****************************************************
          *                                                  *
          *               NWPW PSPW Calculation              *
          *                                                  *
          * [ (Grassmann/Stiefel manifold implementation)  ] *
          *                                                  *
          *      [ NorthWest Chemistry implementation ]      *
          *                                                  *
          *            version #5.10   06/12/02              *
          *                                                  *
          *    This code was developed by Eric J. Bylaska,   *
          *    and was based upon algorithms and code        *
          *    developed by the group of Prof. John H. Weare *
          *                                                  *
          ****************************************************
     >>>  JOB STARTED       AT Wed Apr 30 10:33:34 2025  <<<
          ================ input data ========================

 input psi filename:./pspw_hf_H2.movecs

 number of processors used:         1
 processor grid           :   1 x   1
 parallel mapping         :2d-hilbert
 parallel mapping         :  balanced
 number of threads        :         1
 parallel io              :       off

 options:
      boundary conditions  = aperiodic   (version4)
      electron spin        = restricted
      exchange-correlation = Hartree-Fock
      - HFX relaxed
      - HFX restricted orbitals :    1
      - HFX free-space coulomb solver


 elements involved in the cluster:
      1: H   valence charge:  1.0000  lmax=  1
             comment    : Parameterized (Chem.Phys.Lett., vol 322, page 447) Hamman psp
             pseudpotential type            :   0
             highest angular component      :   1
             local potential used           :   1
             number of non-local projections:   1
             aperiodic cutoff radius        :  1.000
             cutoff =   0.800   0.800


 total charge:   0.000

 atomic composition:
     H   :    2

 number of electrons: spin up=     1 (   1 per task)  down=     1 (   1 per task) (Fourier space)
 number of orbitals : spin up=     1 (   1 per task)  down=     1 (   1 per task) (Fourier space)

 supercell:
      cell_name:  cell_default                                      
      lattice:    a1=<  15.000   0.000   0.000 >
                  a2=<   0.000  15.000   0.000 >
                  a3=<   0.000   0.000  15.000 >
      reciprocal: b1=<   0.419   0.000   0.000 >
                  b2=<   0.000   0.419   0.000 >
                  b3=<   0.000   0.000   0.419 >
      lattice:    a=      15.000 b=     15.000 c=      15.000
                  alpha=  90.000 beta=  90.000 gamma=  90.000
                  omega=      3375.0

      density cutoff=100.000  fft= 70x 70x 70(    80618 waves    80618 per task)
      wavefnc cutoff= 50.000  fft= 70x 70x 70(    28526 waves    28526 per task)

 technical parameters:
      time step=      5.80     fictitious mass=  400000.0
      tolerance=0.100E-08 (energy)   0.100E-08 (density)
      maximum iterations =      1000 (   10 inner    100 outer )





== Energy Calculation ==


          ============ Grassmann lmbfgs iteration ============
     >>>  ITERATION STARTED AT Wed Apr 30 10:33:41 2025  <<<
    iter.           Energy         DeltaE       DeltaRho 
    ------------------------------------------------------
      10   -0.8678258394E+00   -0.16149E-02    0.88138E-02
     -  10 steepest descent iterations performed
      20   -0.8716483911E+00   -0.78182E-04    0.35373E-04
      30   -0.8718162559E+00   -0.39089E-05    0.29466E-05
      40   -0.8718273354E+00   -0.15716E-06    0.17658E-06
      50   -0.8718278348E+00   -0.11264E-07    0.22536E-08
      60   -0.8718278715E+00   -0.91039E-09    0.15477E-09
  *** tolerance ok. iteration terminated
     >>>  ITERATION ENDED   AT Wed Apr 30 10:34:20 2025  <<<


==  Summary Of Results  ==

 number of electrons: spin up=    1.00000  down=    1.00000 (real space)

 total     energy    :  -0.8718278715E+00 (   -0.43591E+00/ion)
 total orbital energy:  -0.7133853798E+00 (   -0.71339E+00/electron)
 hartree   energy    :   0.7402267825E+00 (    0.74023E+00/electron)
 exc-corr  energy    :   0.0000000000E+00 (    0.00000E+00/electron)
 HF exchange energy  :  -0.3701133912E+00 (   -0.37011E+00/electron)
 ion-ion   energy    :   0.2116708996E+00 (    0.10584E+00/ion)

 kinetic (planewave) :   0.6112860691E+00 (    0.61129E+00/electron)
 V_local (planewave) :  -0.1917596319E+01 (   -0.19176E+01/electron)
 V_nl    (planewave) :  -0.1473019119E+00 (   -0.14730E+00/electron)
 V_Coul  (planewave) :   0.1480453565E+01 (    0.14805E+01/electron)
 V_xc.   (planewave) :   0.0000000000E+00 (    0.00000E+00/electron)
 K.S. HFX energy     :  -0.7402267825E+00 (   -0.74023E+00/electron)
 Virial Coefficient  :  -0.9560902759E+00

 orbital energies:
    -0.3566927E+00 (  -9.706eV)


== Virtual Orbital Calculation ==


 input epsi filename:./pspw_hf_H2.emovecs
     orbital   1 current e=-0.921E-01 (error=0.734E-09) iterations  58(  41 preconditioned, Ep,Sp= 20.0  200.0)
     orbital   2 current e= 0.145E-01 (error=0.980E-09) iterations  72(  39 preconditioned, Ep,Sp= 20.0  200.0)
     orbital   3 current e= 0.822E-01 (error=0.969E-09) iterations  56(  29 preconditioned, Ep,Sp= 20.0  200.0)
     orbital   4 current e= 0.822E-01 (error=0.969E-09) iterations  56(  29 preconditioned, Ep,Sp= 20.0  200.0)
     orbital   5 current e= 0.836E-01 (error=0.958E-09) iterations  88(  39 preconditioned, Ep,Sp= 20.0  200.0)
     orbital   6 current e= 0.881E-01 (error=0.893E-09) iterations  38(   2 preconditioned, Ep,Sp= 20.0  200.0)
     orbital   7 current e= 0.105E+00 (error=0.969E-09) iterations  55(  33 preconditioned, Ep,Sp= 20.0  200.0)
     orbital   8 current e= 0.127E+00 (error=0.823E-09) iterations  92(  65 preconditioned, Ep,Sp= 20.0  200.0)
     orbital   9 current e= 0.167E+00 (error=0.918E-09) iterations  96(  71 preconditioned, Ep,Sp= 20.0  200.0)
     orbital  10 current e= 0.167E+00 (error=0.917E-09) iterations  96(  71 preconditioned, Ep,Sp= 20.0  200.0)

 virtual orbital energies:
     0.1674287E+00 (   4.556eV)
     0.1674287E+00 (   4.556eV)
     0.1269422E+00 (   3.454eV)
     0.1052057E+00 (   2.863eV)
     0.8813878E-01 (   2.398eV)
     0.8355415E-01 (   2.274eV)
     0.8220084E-01 (   2.237eV)
     0.8220084E-01 (   2.237eV)
     0.1451991E-01 (   0.395eV)
    -0.9207043E-01 (  -2.505eV)


 == Generating One-Electron and Two-Electron Integrals ==

 begin_one_electron_integrals
    1    1        -0.7268060811
    2    1         0.0000149068
    3    1         0.0330981770
    4    1         0.0000202430
    5    1         0.0000000006
    6    1         0.0074797474
    7    1        -0.0000000001
    8    1        -0.0000011199
    9    1        -0.0334997295
   10    1        -0.0000076470
   11    1         0.0000000080
    2    2        -0.6526373565
    3    2         0.0001290351
    4    2         0.0000003416
    5    2         0.0000000000
    6    2         0.0001474249
    7    2        -0.0000000004
    8    2         0.0529434370
    9    2        -0.0000599915
   10    2        -0.0000000566
   11    2         0.0000000006
    3    3        -0.2482927783
    4    3        -0.0000010677
    5    3        -0.0000000000
    6    3        -0.0021196993
    7    3         0.0000000001
    8    3        -0.0000195668
    9    3         0.0550177440
   10    3         0.0000025555
   11    3        -0.0000000056
    4    4        -0.2317369553
    5    4         0.0000000000
    6    4         0.0000506379
    7    4        -0.0000000017
    8    4        -0.0000000906
    9    4         0.0000160549
   10    4         0.0757533200
   11    4        -0.0000372185
    5    5        -0.2317370072
    6    5         0.0000000015
    7    5         0.0000559074
    8    5         0.0000000000
    9    5         0.0000000005
   10    5         0.0000372185
   11    5         0.0757534156
    6    6        -0.2085966679
    7    6         0.0000000000
    8    6        -0.0000279667
    9    6         0.0043055441
   10    6        -0.0001451170
   11    6         0.0000000677
    7    7        -0.1830616615
    8    7        -0.0000000000
    9    7         0.0000000001
   10    7        -0.0000000401
   11    7        -0.0000870596
    8    8        -0.1666662113
    9    8         0.0000146875
   10    8         0.0000000446
   11    8        -0.0000000006
    9    9        -0.1370729618
   10    9        -0.0000079887
   11    9         0.0000000131
   10   10        -0.1495690912
   11   10        -0.0000000000
   11   11        -0.1495691001
 end_one_electron_integrals

 begin_two_electron_integrals
    1    1    1    1        0.3701133912
    1    1    2    1       -0.0000149276
    1    1    3    1       -0.0331067697
    1    1    4    1       -0.0000202153
    1    1    5    1       -0.0000000006
    1    1    6    1       -0.0074660895
    1    1    7    1        0.0000000001
    1    1    8    1        0.0000011636
    1    1    9    1        0.0335040839
    1    1   10    1        0.0000076541
    1    1   11    1       -0.0000000080
    1    1    2    2        0.3576164398
    1    1    3    2       -0.0000687826
    1    1    4    2       -0.0000001427
    1    1    5    2       -0.0000000000
    1    1    6    2       -0.0000628573
    1    1    7    2        0.0000000003
    1    1    8    2       -0.0401905252
    1    1    9    2        0.0000234040
    1    1   10    2        0.0000000218
    1    1   11    2       -0.0000000004
    1    1    3    3        0.1340219091
    1    1    4    3       -0.0000014184
    1    1    5    3       -0.0000000001
    1    1    6    3        0.0017416146
    1    1    7    3       -0.0000000001
    1    1    8    3        0.0000137155
    1    1    9    3       -0.0303537758
    1    1   10    3        0.0000016488
    1    1   11    3        0.0000000018
    1    1    4    4        0.1598790381
    1    1    5    4       -0.0000000000
    1    1    6    4       -0.0000263431
    1    1    7    4        0.0000000008
    1    1    8    4        0.0000000491
    1    1    9    4       -0.0000087971
    1    1   10    4       -0.0411735346
    1    1   11    4        0.0000202291
    1    1    5    5        0.1598790684
    1    1    6    5       -0.0000000008
    1    1    7    5       -0.0000264622
    1    1    8    5       -0.0000000000
    1    1    9    5       -0.0000000003
    1    1   10    5       -0.0000202291
    1    1   11    5       -0.0411735896
    1    1    6    6        0.1476505493
    1    1    7    6       -0.0000000000
    1    1    8    6        0.0000171820
    1    1    9    6       -0.0029498916
    1    1   10    6        0.0000769791
    1    1   11    6       -0.0000000358
    1    1    7    7        0.1358786881
    1    1    8    7       -0.0000000001
    1    1    9    7        0.0000000000
    1    1   10    7        0.0000000198
    1    1   11    7        0.0000429959
    1    1    8    8        0.1388975893
    1    1    9    8       -0.0000080917
    1    1   10    8       -0.0000000258
    1    1   11    8        0.0000000003
    1    1    9    9        0.1351856005
    1    1   10    9        0.0000032694
    1    1   11    9       -0.0000000067
    1    1   10   10        0.1624533085
    1    1   11   10        0.0000000000
    1    1   11   11        0.1624533136
    2    1    2    1        0.1546659544
    2    1    3    1       -0.0000109878
    2    1    4    1        0.0000000558
    2    1    5    1        0.0000000000
    2    1    6    1        0.0000215173
    2    1    7    1        0.0000000002
    2    1    8    1       -0.0274387260
    2    1    9    1       -0.0000132186
    2    1   10    1       -0.0000000129
    2    1   11    1       -0.0000000003
    2    1    2    2       -0.0000190501
    2    1    3    2       -0.0169004818
    2    1    4    2        0.0000297103
    2    1    5    2        0.0000000009
    2    1    6    2        0.0133055666
    2    1    7    2        0.0000000000
    2    1    8    2        0.0000148337
    2    1    9    2        0.0172838157
    2    1   10    2       -0.0000067937
    2    1   11    2        0.0000000002
    2    1    3    3        0.0004001183
    2    1    4    3        0.0000011217
    2    1    5    3        0.0000000000
    2    1    6    3        0.0004764245
    2    1    7    3       -0.0000000002
    2    1    8    3        0.0219457461
    2    1    9    3        0.0000117577
    2    1   10    3       -0.0000000341
    2    1   11    3        0.0000000002
    2    1    4    4        0.0003094157
    2    1    5    4        0.0000000000
    2    1    6    4        0.0000010365
    2    1    7    4        0.0000000000
    2    1    8    4        0.0000069144
    2    1    9    4       -0.0000005995
    2    1   10    4        0.0001461616
    2    1   11    4       -0.0000000717
    2    1    5    5        0.0003094131
    2    1    6    5        0.0000000000
    2    1    7    5       -0.0000000575
    2    1    8    5        0.0000000005
    2    1    9    5       -0.0000000000
    2    1   10    5        0.0000000717
    2    1   11    5        0.0001461632
    2    1    6    6        0.0007436721
    2    1    7    6       -0.0000000001
    2    1    8    6        0.0025656311
    2    1    9    6       -0.0002469250
    2    1   10    6       -0.0000005670
    2    1   11    6        0.0000000004
    2    1    7    7        0.0002901514
    2    1    8    7       -0.0000000000
    2    1    9    7        0.0000000001
    2    1   10    7       -0.0000000000
    2    1   11    7       -0.0000000029
    2    1    8    8        0.0000013317
    2    1    9    8       -0.0103820878
    2    1   10    8        0.0000006816
    2    1   11    8        0.0000000008
    2    1    9    9        0.0004686392
    2    1   10    9        0.0000002359
    2    1   11    9       -0.0000000003
    2    1   10   10        0.0002730365
    2    1   11   10        0.0000000000
    2    1   11   11        0.0002730364
    3    1    3    1        0.0052311302
    3    1    4    1       -0.0000039472
    3    1    5    1       -0.0000000001
    3    1    6    1        0.0013457318
    3    1    7    1       -0.0000000000
    3    1    8    1        0.0000079389
    3    1    9    1       -0.0056845326
    3    1   10    1        0.0000058522
    3    1   11    1       -0.0000000019
    3    1    2    2       -0.0306654309
    3    1    3    2        0.0000198594
    3    1    4    2        0.0000000194
    3    1    5    2        0.0000000000
    3    1    6    2        0.0000187369
    3    1    7    2       -0.0000000001
    3    1    8    2        0.0061586342
    3    1    9    2       -0.0000150360
    3    1   10    2        0.0000000003
    3    1   11    2        0.0000000001
    3    1    3    3       -0.0016306211
    3    1    4    3       -0.0000224538
    3    1    5    3       -0.0000000007
    3    1    6    3       -0.0000397638
    3    1    7    3        0.0000000000
    3    1    8    3        0.0000227240
    3    1    9    3        0.0019582115
    3    1   10    3       -0.0000015251
    3    1   11    3        0.0000000004
    3    1    4    4       -0.0029881587
    3    1    5    4        0.0000000000
    3    1    6    4        0.0000079280
    3    1    7    4       -0.0000000004
    3    1    8    4       -0.0000000500
    3    1    9    4        0.0000057383
    3    1   10    4        0.0032503315
    3    1   11    4       -0.0000015969
    3    1    5    5       -0.0029882111
    3    1    6    5        0.0000000002
    3    1    7    5        0.0000132599
    3    1    8    5        0.0000000000
    3    1    9    5        0.0000000002
    3    1   10    5        0.0000015969
    3    1   11    5        0.0032503025
    3    1    6    6       -0.0018584692
    3    1    7    6        0.0000000000
    3    1    8    6        0.0000055665
    3    1    9    6        0.0001447845
    3    1   10    6       -0.0000100289
    3    1   11    6        0.0000000046
    3    1    7    7       -0.0009757554
    3    1    8    7        0.0000000000
    3    1    9    7       -0.0000000000
    3    1   10    7       -0.0000000088
    3    1   11    7       -0.0000190272
    3    1    8    8       -0.0021462794
    3    1    9    8        0.0000034800
    3    1   10    8       -0.0000000169
    3    1   11    8       -0.0000000000
    3    1    9    9       -0.0023847577
    3    1   10    9       -0.0000168376
    3    1   11    9        0.0000000081
    3    1   10   10       -0.0042585860
    3    1   11   10       -0.0000000000
    3    1   11   11       -0.0042586125
    4    1    4    1        0.0058202784
    4    1    5    1       -0.0000000000
    4    1    6    1       -0.0000015985
    4    1    7    1       -0.0000000001
    4    1    8    1        0.0000000119
    4    1    9    1       -0.0000013553
    4    1   10    1       -0.0065989319
    4    1   11    1        0.0000032422
    4    1    2    2       -0.0000076124
    4    1    3    2       -0.0000000022
    4    1    4    2        0.0000052539
    4    1    5    2       -0.0000000000
    4    1    6    2        0.0000000533
    4    1    7    2       -0.0000000000
    4    1    8    2       -0.0000091239
    4    1    9    2       -0.0000000546
    4    1   10    2       -0.0000010455
    4    1   11    2        0.0000000005
    4    1    3    3       -0.0001892111
    4    1    4    3        0.0067337523
    4    1    5    3        0.0000000000
    4    1    6    3        0.0000767465
    4    1    7    3       -0.0000000054
    4    1    8    3       -0.0000001125
    4    1    9    3       -0.0000498460
    4    1   10    3       -0.0003360545
    4    1   11    3        0.0000001651
    4    1    4    4       -0.0000743979
    4    1    5    4       -0.0000000018
    4    1    6    4       -0.0015421148
    4    1    7    4        0.0000001970
    4    1    8    4        0.0000081628
    4    1    9    4       -0.0033883691
    4    1   10    4       -0.0000739069
    4    1   11    4        0.0000000338
    4    1    5    5       -0.0000655060
    4    1    6    5       -0.0000000000
    4    1    7    5       -0.0031608490
    4    1    8    5       -0.0000000000
    4    1    9    5        0.0000000000
    4    1   10    5       -0.0000000363
    4    1   11    5       -0.0000675975
    4    1    6    6       -0.0001364989
    4    1    7    6        0.0000000017
    4    1    8    6        0.0000000577
    4    1    9    6       -0.0000273081
    4    1   10    6        0.0018069780
    4    1   11    6       -0.0000008873
    4    1    7    7       -0.0002517652
    4    1    8    7       -0.0000000000
    4    1    9    7        0.0000000017
    4    1   10    7        0.0000022864
    4    1   11    7        0.0053293933
    4    1    8    8       -0.0002128483
    4    1    9    8       -0.0000001549
    4    1   10    8        0.0000034099
    4    1   11    8       -0.0000000016
    4    1    9    9       -0.0002157353
    4    1   10    9        0.0048132292
    4    1   11    9       -0.0000023648
    4    1   10   10       -0.0001330604
    4    1   11   10       -0.0000000027
    4    1   11   11       -0.0001298363
    5    1    5    1        0.0058202865
    5    1    6    1       -0.0000000000
    5    1    7    1        0.0000029037
    5    1    8    1       -0.0000000000
    5    1    9    1       -0.0000000000
    5    1   10    1       -0.0000032422
    5    1   11    1       -0.0065989468
    5    1    2    2       -0.0000000002
    5    1    3    2       -0.0000000000
    5    1    4    2       -0.0000000000
    5    1    5    2        0.0000052539
    5    1    6    2        0.0000000000
    5    1    7    2        0.0000000407
    5    1    8    2       -0.0000000002
    5    1    9    2       -0.0000000000
    5    1   10    2       -0.0000000005
    5    1   11    2       -0.0000010455
    5    1    3    3       -0.0000000059
    5    1    4    3        0.0000000000
    5    1    5    3        0.0067337105
    5    1    6    3        0.0000000024
    5    1    7    3        0.0001739875
    5    1    8    3       -0.0000000000
    5    1    9    3       -0.0000000016
    5    1   10    3       -0.0000001652
    5    1   11    3       -0.0003362180
    5    1    4    4       -0.0000000054
    5    1    5    4        0.0000502990
    5    1    6    4       -0.0000000000
    5    1    7    4       -0.0031608915
    5    1    8    4       -0.0000000000
    5    1    9    4        0.0000000000
    5    1   10    4        0.0000000346
    5    1   11    4        0.0000864098
    5    1    5    5        0.0000000011
    5    1    6    5       -0.0015421076
    5    1    7    5       -0.0000001970
    5    1    8    5        0.0000081628
    5    1    9    5       -0.0033884528
    5    1   10    5        0.0000914663
    5    1   11    5       -0.0000000411
    5    1    6    6       -0.0000000043
    5    1    7    6       -0.0000560346
    5    1    8    6        0.0000000000
    5    1    9    6       -0.0000000009
    5    1   10    6        0.0000008873
    5    1   11    6        0.0018068093
    5    1    7    7       -0.0000000078
    5    1    8    7        0.0000002071
    5    1    9    7       -0.0000536603
    5    1   10    7        0.0053291432
    5    1   11    7       -0.0000022863
    5    1    8    8       -0.0000000065
    5    1    9    8       -0.0000000000
    5    1   10    8        0.0000000017
    5    1   11    8        0.0000034096
    5    1    9    9       -0.0000000067
    5    1   10    9        0.0000023647
    5    1   11    9        0.0048131036
    5    1   10   10        0.0000001054
    5    1   11   10        0.0001190585
    5    1   11   11       -0.0000001146
    6    1    6    1        0.0031502779
    6    1    7    1       -0.0000000000
    6    1    8    1        0.0000072560
    6    1    9    1       -0.0015900690
    6    1   10    1        0.0000088439
    6    1   11    1       -0.0000000039
    6    1    2    2       -0.0019975715
    6    1    3    2        0.0000160229
    6    1    4    2        0.0000000386
    6    1    5    2        0.0000000000
    6    1    6    2        0.0000259057
    6    1    7    2       -0.0000000000
    6    1    8    2        0.0006462462
    6    1    9    2       -0.0000173727
    6    1   10    2       -0.0000000033
    6    1   11    2        0.0000000000
    6    1    3    3       -0.0008395331
    6    1    4    3        0.0000044113
    6    1    5    3        0.0000000001
    6    1    6    3        0.0029185020
    6    1    7    3       -0.0000000000
    6    1    8    3        0.0000475096
    6    1    9    3        0.0005715691
    6    1   10    3        0.0000005297
    6    1   11    3       -0.0000000003
    6    1    4    4       -0.0017732380
    6    1    5    4       -0.0000000000
    6    1    6    4        0.0000033173
    6    1    7    4       -0.0000000000
    6    1    8    4       -0.0000000273
    6    1    9    4       -0.0000025236
    6    1   10    4        0.0018920995
    6    1   11    4       -0.0000009294
    6    1    5    5       -0.0017732107
    6    1    6    5        0.0000000001
    6    1    7    5        0.0000010631
    6    1    8    5        0.0000000000
    6    1    9    5       -0.0000000001
    6    1   10    5        0.0000009294
    6    1   11    5        0.0018921234
    6    1    6    6        0.0005797177
    6    1    7    6       -0.0000000000
    6    1    8    6        0.0000147998
    6    1    9    6       -0.0026797177
    6    1   10    6       -0.0000074464
    6    1   11    6        0.0000000037
    6    1    7    7       -0.0016066011
    6    1    8    7       -0.0000000000
    6    1    9    7        0.0000000000
    6    1   10    7       -0.0000000016
    6    1   11    7       -0.0000035462
    6    1    8    8       -0.0014455631
    6    1    9    8       -0.0000007771
    6    1   10    8       -0.0000000107
    6    1   11    8        0.0000000000
    6    1    9    9       -0.0008859588
    6    1   10    9       -0.0000000779
    6    1   11    9        0.0000000002
    6    1   10   10       -0.0031692110
    6    1   11   10        0.0000000000
    6    1   11   11       -0.0031692027
    7    1    7    1        0.0005569339
    7    1    8    1       -0.0000000000
    7    1    9    1        0.0000000000
    7    1   10    1       -0.0000000005
    7    1   11    1       -0.0000010477
    7    1    2    2        0.0000000001
    7    1    3    2       -0.0000000000
    7    1    4    2       -0.0000000000
    7    1    5    2        0.0000000242
    7    1    6    2        0.0000000000
    7    1    7    2        0.0000011025
    7    1    8    2       -0.0000000000
    7    1    9    2        0.0000000000
    7    1   10    2       -0.0000000000
    7    1   11    2       -0.0000000102
    7    1    3    3        0.0000000000
    7    1    4    3       -0.0000000007
    7    1    5    3        0.0000223627
    7    1    6    3       -0.0000000000
    7    1    7    3        0.0018989647
    7    1    8    3        0.0000000000
    7    1    9    3       -0.0000000000
    7    1   10    3       -0.0000000000
    7    1   11    3       -0.0000000344
    7    1    4    4        0.0000000398
    7    1    5    4       -0.0006391368
    7    1    6    4        0.0000000001
    7    1    7    4       -0.0000120351
    7    1    8    4       -0.0000000000
    7    1    9    4        0.0000000002
    7    1   10    4        0.0000007140
    7    1   11    4        0.0016642852
    7    1    5    5       -0.0000000398
    7    1    6    5       -0.0000039806
    7    1    7    5       -0.0000000004
    7    1    8    5        0.0000000651
    7    1    9    5       -0.0000058705
    7    1   10    5        0.0016642965
    7    1   11    5       -0.0000007140
    7    1    6    6       -0.0000000000
    7    1    7    6       -0.0005072122
    7    1    8    6       -0.0000000000
    7    1    9    6        0.0000000000
    7    1   10    6        0.0000000001
    7    1   11    6        0.0000001130
    7    1    7    7       -0.0000000000
    7    1    8    7        0.0000034858
    7    1    9    7       -0.0014519950
    7    1   10    7        0.0000125024
    7    1   11    7       -0.0000000057
    7    1    8    8        0.0000000000
    7    1    9    8       -0.0000000000
    7    1   10    8        0.0000000000
    7    1   11    8        0.0000000158
    7    1    9    9        0.0000000000
    7    1   10    9        0.0000000069
    7    1   11    9        0.0000151023
    7    1   10   10       -0.0000008765
    7    1   11   10       -0.0009524242
    7    1   11   11        0.0000008765
    8    1    8    1        0.0059232767
    8    1    9    1       -0.0000029126
    8    1   10    1       -0.0000000071
    8    1   11    1        0.0000000001
    8    1    2    2        0.0000041351
    8    1    3    2        0.0043510420
    8    1    4    2       -0.0000048804
    8    1    5    2       -0.0000000001
    8    1    6    2       -0.0012349199
    8    1    7    2       -0.0000000000
    8    1    8    2       -0.0000012987
    8    1    9    2       -0.0046228110
    8    1   10    2        0.0000020820
    8    1   11    2       -0.0000000003
    8    1    3    3       -0.0000027324
    8    1    4    3       -0.0000001308
    8    1    5    3       -0.0000000000
    8    1    6    3       -0.0000053440
    8    1    7    3        0.0000000000
    8    1    8    3       -0.0007355034
    8    1    9    3        0.0000105805
    8    1   10    3       -0.0000000710
    8    1   11    3        0.0000000000
    8    1    4    4       -0.0000015636
    8    1    5    4       -0.0000000000
    8    1    6    4       -0.0000001540
    8    1    7    4        0.0000000000
    8    1    8    4       -0.0000087828
    8    1    9    4       -0.0000000208
    8    1   10    4        0.0000033285
    8    1   11    4       -0.0000000016
    8    1    5    5       -0.0000015631
    8    1    6    5       -0.0000000000
    8    1    7    5        0.0000000507
    8    1    8    5       -0.0000000003
    8    1    9    5        0.0000000000
    8    1   10    5        0.0000000016
    8    1   11    5        0.0000033282
    8    1    6    6       -0.0000141366
    8    1    7    6        0.0000000000
    8    1    8    6       -0.0001793389
    8    1    9    6        0.0000126514
    8    1   10    6       -0.0000000325
    8    1   11    6        0.0000000000
    8    1    7    7        0.0000017040
    8    1    8    7        0.0000000000
    8    1    9    7       -0.0000000000
    8    1   10    7       -0.0000000000
    8    1   11    7       -0.0000000329
    8    1    8    8       -0.0000000348
    8    1    9    8        0.0015156383
    8    1   10    8       -0.0000004303
    8    1   11    8       -0.0000000000
    8    1    9    9       -0.0000015316
    8    1   10    9       -0.0000001170
    8    1   11    9        0.0000000001
    8    1   10   10        0.0000039204
    8    1   11   10       -0.0000000000
    8    1   11   11        0.0000039200
    9    1    9    1        0.0063560246
    9    1   10    1       -0.0000014700
    9    1   11    1       -0.0000000002
    9    1    2    2        0.0305775268
    9    1    3    2       -0.0000163823
    9    1    4    2       -0.0000000635
    9    1    5    2       -0.0000000000
    9    1    6    2       -0.0000213678
    9    1    7    2        0.0000000001
    9    1    8    2       -0.0065586639
    9    1    9    2        0.0000126676
    9    1   10    2        0.0000000188
    9    1   11    2       -0.0000000001
    9    1    3    3        0.0013816535
    9    1    4    3        0.0000054116
    9    1    5    3        0.0000000002
    9    1    6    3       -0.0000545084
    9    1    7    3       -0.0000000000
    9    1    8    3       -0.0000166737
    9    1    9    3       -0.0014149988
    9    1   10    3       -0.0000027861
    9    1   11    3        0.0000000015
    9    1    4    4        0.0021206420
    9    1    5    4        0.0000000000
    9    1    6    4       -0.0000058596
    9    1    7    4        0.0000000002
    9    1    8    4       -0.0000000690
    9    1    9    4       -0.0000044821
    9    1   10    4       -0.0024541680
    9    1   11    4        0.0000012057
    9    1    5    5        0.0021205723
    9    1    6    5       -0.0000000002
    9    1    7    5       -0.0000070875
    9    1    8    5       -0.0000000000
    9    1    9    5       -0.0000000001
    9    1   10    5       -0.0000012058
    9    1   11    5       -0.0024542008
    9    1    6    6        0.0008376010
    9    1    7    6        0.0000000000
    9    1    8    6       -0.0000047405
    9    1    9    6        0.0000039744
    9    1   10    6        0.0000077680
    9    1   11    6       -0.0000000036
    9    1    7    7        0.0003666791
    9    1    8    7       -0.0000000000
    9    1    9    7        0.0000000000
    9    1   10    7        0.0000000041
    9    1   11    7        0.0000087992
    9    1    8    8        0.0019992568
    9    1    9    8        0.0000014233
    9    1   10    8       -0.0000000247
    9    1   11    8        0.0000000000
    9    1    9    9        0.0020023688
    9    1   10    9        0.0000045580
    9    1   11    9       -0.0000000024
    9    1   10   10        0.0034909971
    9    1   11   10       -0.0000000000
    9    1   11   11        0.0034909660
   10    1   10    1        0.0079088236
   10    1   11    1       -0.0000000000
   10    1    2    2        0.0000040483
   10    1    3    2        0.0000000140
   10    1    4    2       -0.0000004930
   10    1    5    2       -0.0000000003
   10    1    6    2       -0.0000000154
   10    1    7    2       -0.0000000000
   10    1    8    2        0.0000092770
   10    1    9    2        0.0000000166
   10    1   10    2       -0.0000012837
   10    1   11    2       -0.0000000000
   10    1    3    3        0.0001658559
   10    1    4    3       -0.0057040105
   10    1    5    3       -0.0000028026
   10    1    6    3       -0.0000671068
   10    1    7    3       -0.0000000734
   10    1    8    3       -0.0000000868
   10    1    9    3        0.0000315591
   10    1   10    3        0.0010592080
   10    1   11    3       -0.0000000001
   10    1    4    4        0.0000540035
   10    1    5    4       -0.0000000203
   10    1    6    4        0.0019527885
   10    1    7    4        0.0000015777
   10    1    8    4        0.0000028540
   10    1    9    4        0.0035389057
   10    1   10    4        0.0000622627
   10    1   11    4       -0.0000000671
   10    1    5    5        0.0000701447
   10    1    6    5        0.0000009594
   10    1    7    5        0.0036778104
   10    1    8    5        0.0000000014
   10    1    9    5        0.0000017387
   10    1   10    5       -0.0000000039
   10    1   11    5        0.0000646330
   10    1    6    6        0.0001212148
   10    1    7    6        0.0000000253
   10    1    8    6       -0.0000000162
   10    1    9    6        0.0000253839
   10    1   10    6       -0.0023242837
   10    1   11    6       -0.0000000002
   10    1    7    7        0.0002324006
   10    1    8    7        0.0000000000
   10    1    9    7        0.0000000262
   10    1   10    7       -0.0000047995
   10    1   11    7       -0.0052151058
   10    1    8    8        0.0001860229
   10    1    9    8       -0.0000000385
   10    1   10    8        0.0000003358
   10    1   11    8       -0.0000000000
   10    1    9    9        0.0001821496
   10    1   10    9       -0.0045728309
   10    1   11    9       -0.0000000001
   10    1   10   10        0.0001084856
   10    1   11   10       -0.0000000455
   10    1   11   11        0.0001114587
   11    1   11    1        0.0079088202
   11    1    2    2       -0.0000000061
   11    1    3    2        0.0000000000
   11    1    4    2        0.0000000003
   11    1    5    2       -0.0000004930
   11    1    6    2        0.0000000000
   11    1    7    2       -0.0000000245
   11    1    8    2       -0.0000000034
   11    1    9    2       -0.0000000001
   11    1   10    2        0.0000000000
   11    1   11    2       -0.0000012839
   11    1    3    3       -0.0000000765
   11    1    4    3        0.0000028025
   11    1    5    3       -0.0057042100
   11    1    6    3        0.0000000308
   11    1    7    3       -0.0001595051
   11    1    8    3        0.0000000000
   11    1    9    3       -0.0000000143
   11    1   10    3       -0.0000000001
   11    1   11    3        0.0010590036
   11    1    4    4       -0.0000000223
   11    1    5    4       -0.0000429247
   11    1    6    4       -0.0000009593
   11    1    7    4        0.0036777017
   11    1    8    4       -0.0000000014
   11    1    9    4       -0.0000017387
   11    1   10    4       -0.0000000620
   11    1   11    4       -0.0000781557
   11    1    5    5       -0.0000000351
   11    1    6    5        0.0019529087
   11    1    7    5       -0.0000015777
   11    1    8    5        0.0000028535
   11    1    9    5        0.0035388157
   11    1   10    5       -0.0000774087
   11    1   11    5        0.0000000032
   11    1    6    6       -0.0000000558
   11    1    7    6        0.0000550350
   11    1    8    6        0.0000000000
   11    1    9    6       -0.0000000116
   11    1   10    6        0.0000000005
   11    1   11    6       -0.0023239913
   11    1    7    7       -0.0000001070
   11    1    8    7        0.0000000496
   11    1    9    7        0.0000569490
   11    1   10    7       -0.0052150795
   11    1   11    7        0.0000047995
   11    1    8    8       -0.0000000859
   11    1    9    8        0.0000000000
   11    1   10    8       -0.0000000000
   11    1   11    8        0.0000003344
   11    1    9    9       -0.0000000840
   11    1   10    9       -0.0000000001
   11    1   11    9       -0.0045730175
   11    1   10   10       -0.0000001450
   11    1   11   10       -0.0001029822
   11    1   11   11        0.0000000443
    2    2    2    2        0.3577035900
    2    2    3    2       -0.0000665291
    2    2    4    2       -0.0000001375
    2    2    5    2       -0.0000000000
    2    2    6    2       -0.0000601559
    2    2    7    2        0.0000000003
    2    2    8    2       -0.0397267070
    2    2    9    2        0.0000204739
    2    2   10    2        0.0000000206
    2    2   11    2       -0.0000000004
    2    2    3    3        0.1331239230
    2    2    4    3        0.0000025641
    2    2    5    3        0.0000000001
    2    2    6    3        0.0038202719
    2    2    7    3       -0.0000000001
    2    2    8    3        0.0000138095
    2    2    9    3       -0.0294818297
    2    2   10    3        0.0000010684
    2    2   11    3        0.0000000020
    2    2    4    4        0.1576973888
    2    2    5    4       -0.0000000000
    2    2    6    4       -0.0000205610
    2    2    7    4        0.0000000008
    2    2    8    4        0.0000000441
    2    2    9    4       -0.0000138122
    2    2   10    4       -0.0383972620
    2    2   11    4        0.0000188653
    2    2    5    5        0.1576974050
    2    2    6    5       -0.0000000006
    2    2    7    5       -0.0000254003
    2    2    8    5       -0.0000000000
    2    2    9    5       -0.0000000004
    2    2   10    5       -0.0000188653
    2    2   11    5       -0.0383973053
    2    2    6    6        0.1478811269
    2    2    7    6       -0.0000000000
    2    2    8    6        0.0000169120
    2    2    9    6       -0.0051362473
    2    2   10    6        0.0000694836
    2    2   11    6       -0.0000000321
    2    2    7    7        0.1344362301
    2    2    8    7       -0.0000000001
    2    2    9    7        0.0000000000
    2    2   10    7        0.0000000185
    2    2   11    7        0.0000402238
    2    2    8    8        0.1379265910
    2    2    9    8       -0.0000084141
    2    2   10    8       -0.0000000250
    2    2   11    8        0.0000000003
    2    2    9    9        0.1339961379
    2    2   10    9        0.0000034597
    2    2   11    9       -0.0000000066
    2    2   10   10        0.1580914795
    2    2   11   10       -0.0000000000
    2    2   11   11        0.1580914792
    3    2    3    2        0.0036707592
    3    2    4    2       -0.0000031894
    3    2    5    2       -0.0000000001
    3    2    6    2        0.0003144897
    3    2    7    2       -0.0000000000
    3    2    8    2        0.0000123165
    3    2    9    2       -0.0039744207
    3    2   10    2        0.0000025502
    3    2   11    2       -0.0000000006
    3    2    3    3        0.0000569763
    3    2    4    3       -0.0000001520
    3    2    5    3       -0.0000000000
    3    2    6    3        0.0000737422
    3    2    7    3       -0.0000000000
    3    2    8    3        0.0019567807
    3    2    9    3        0.0000213816
    3    2   10    3       -0.0000001600
    3    2   11    3        0.0000000001
    3    2    4    4        0.0000390765
    3    2    5    4       -0.0000000000
    3    2    6    4       -0.0000000718
    3    2    7    4       -0.0000000000
    3    2    8    4       -0.0000132956
    3    2    9    4       -0.0000001460
    3    2   10    4        0.0000372932
    3    2   11    4       -0.0000000183
    3    2    5    5        0.0000390763
    3    2    6    5       -0.0000000000
    3    2    7    5        0.0000001334
    3    2    8    5       -0.0000000004
    3    2    9    5       -0.0000000000
    3    2   10    5        0.0000000183
    3    2   11    5        0.0000372926
    3    2    6    6        0.0000991402
    3    2    7    6       -0.0000000000
    3    2    8    6        0.0003023477
    3    2    9    6       -0.0000255649
    3    2   10    6       -0.0000001859
    3    2   11    6        0.0000000001
    3    2    7    7        0.0000449603
    3    2    8    7        0.0000000000
    3    2    9    7       -0.0000000000
    3    2   10    7       -0.0000000001
    3    2   11    7       -0.0000001346
    3    2    8    8       -0.0000071547
    3    2    9    8        0.0008305917
    3    2   10    8       -0.0000012825
    3    2   11    8        0.0000000004
    3    2    9    9        0.0000689234
    3    2   10    9       -0.0000002560
    3    2   11    9        0.0000000001
    3    2   10   10        0.0000384636
    3    2   11   10       -0.0000000000
    3    2   11   11        0.0000384625
    4    2    4    2        0.0038146992
    4    2    5    2       -0.0000000000
    4    2    6    2        0.0000015568
    4    2    7    2       -0.0000000000
    4    2    8    2        0.0000000121
    4    2    9    2       -0.0000021845
    4    2   10    2       -0.0037050935
    4    2   11    2        0.0000018204
    4    2    3    3       -0.0000010049
    4    2    4    3        0.0000518922
    4    2    5    3       -0.0000000000
    4    2    6    3       -0.0000003188
    4    2    7    3       -0.0000000000
    4    2    8    3       -0.0000578464
    4    2    9    3       -0.0000013811
    4    2   10    3        0.0000254703
    4    2   11    3       -0.0000000125
    4    2    4    4        0.0000000903
    4    2    5    4       -0.0000000000
    4    2    6    4        0.0000563986
    4    2    7    4        0.0000000010
    4    2    8    4        0.0036731941
    4    2    9    4        0.0000023070
    4    2   10    4       -0.0000006060
    4    2   11    4        0.0000000003
    4    2    5    5       -0.0000000690
    4    2    6    5       -0.0000000000
    4    2    7    5       -0.0000161236
    4    2    8    5       -0.0000000000
    4    2    9    5        0.0000000000
    4    2   10    5       -0.0000000003
    4    2   11    5       -0.0000004964
    4    2    6    6       -0.0000002148
    4    2    7    6       -0.0000000000
    4    2    8    6        0.0000106322
    4    2    9    6       -0.0000007622
    4    2   10    6        0.0000124772
    4    2   11    6       -0.0000000061
    4    2    7    7       -0.0000013348
    4    2    8    7       -0.0000000021
    4    2    9    7       -0.0000000000
    4    2   10    7        0.0000000079
    4    2   11    7        0.0000183894
    4    2    8    8       -0.0000002166
    4    2    9    8       -0.0000290166
    4    2   10    8       -0.0000587286
    4    2   11    8        0.0000000289
    4    2    9    9       -0.0000022427
    4    2   10    9        0.0000351459
    4    2   11    9       -0.0000000173
    4    2   10   10       -0.0000012737
    4    2   11   10       -0.0000000000
    4    2   11   11       -0.0000011474
    5    2    5    2        0.0038146993
    5    2    6    2        0.0000000000
    5    2    7    2        0.0000008484
    5    2    8    2       -0.0000000000
    5    2    9    2       -0.0000000001
    5    2   10    2       -0.0000018205
    5    2   11    2       -0.0037051002
    5    2    3    3       -0.0000000000
    5    2    4    3       -0.0000000000
    5    2    5    3        0.0000518932
    5    2    6    3       -0.0000000000
    5    2    7    3        0.0000011784
    5    2    8    3       -0.0000000018
    5    2    9    3       -0.0000000000
    5    2   10    3        0.0000000125
    5    2   11    3        0.0000254688
    5    2    4    4       -0.0000000000
    5    2    5    4        0.0000004656
    5    2    6    4       -0.0000000000
    5    2    7    4       -0.0000161219
    5    2    8    4        0.0000000000
    5    2    9    4        0.0000000000
    5    2   10    4        0.0000000003
    5    2   11    4        0.0000007242
    5    2    5    5        0.0000000000
    5    2    6    5        0.0000563990
    5    2    7    5       -0.0000000010
    5    2    8    5        0.0036731953
    5    2    9    5        0.0000023073
    5    2   10    5        0.0000007519
    5    2   11    5       -0.0000000003
    5    2    6    6       -0.0000000000
    5    2    7    6        0.0000007654
    5    2    8    6        0.0000000003
    5    2    9    6       -0.0000000000
    5    2   10    6        0.0000000061
    5    2   11    6        0.0000124748
    5    2    7    7       -0.0000000000
    5    2    8    7        0.0000662351
    5    2    9    7        0.0000005811
    5    2   10    7        0.0000183876
    5    2   11    7       -0.0000000079
    5    2    8    8       -0.0000000000
    5    2    9    8       -0.0000000009
    5    2   10    8       -0.0000000290
    5    2   11    8       -0.0000588366
    5    2    9    9       -0.0000000001
    5    2   10    9        0.0000000173
    5    2   11    9        0.0000351419
    5    2   10   10        0.0000000013
    5    2   11   10        0.0000014693
    5    2   11   11       -0.0000000014
    6    2    6    2        0.0041234673
    6    2    7    2       -0.0000000000
    6    2    8    2        0.0000139621
    6    2    9    2       -0.0008074522
    6    2   10    2        0.0000055193
    6    2   11    2       -0.0000000025
    6    2    3    3        0.0001346210
    6    2    4    3        0.0000003243
    6    2    5    3        0.0000000000
    6    2    6    3        0.0001810573
    6    2    7    3       -0.0000000000
    6    2    8    3        0.0045475407
    6    2    9    3        0.0000025188
    6    2   10    3       -0.0000000610
    6    2   11    3        0.0000000001
    6    2    4    4        0.0001039436
    6    2    5    4       -0.0000000000
    6    2    6    4        0.0000002780
    6    2    7    4       -0.0000000000
    6    2    8    4       -0.0000021051
    6    2    9    4       -0.0000002501
    6    2   10    4        0.0000564001
    6    2   11    4       -0.0000000277
    6    2    5    5        0.0001039437
    6    2    6    5        0.0000000000
    6    2    7    5        0.0000000206
    6    2    8    5       -0.0000000000
    6    2    9    5       -0.0000000000
    6    2   10    5        0.0000000277
    6    2   11    5        0.0000564009
    6    2    6    6        0.0002799844
    6    2    7    6       -0.0000000000
    6    2    8    6        0.0014180172
    6    2    9    6       -0.0001035710
    6    2   10    6       -0.0000002435
    6    2   11    6        0.0000000002
    6    2    7    7        0.0000970285
    6    2    8    7        0.0000000000
    6    2    9    7        0.0000000000
    6    2   10    7       -0.0000000000
    6    2   11    7       -0.0000000313
    6    2    8    8       -0.0000077420
    6    2    9    8       -0.0010846244
    6    2   10    8        0.0000008707
    6    2   11    8       -0.0000000004
    6    2    9    9        0.0001586955
    6    2   10    9        0.0000000352
    6    2   11    9       -0.0000000001
    6    2   10   10        0.0000827235
    6    2   11   10        0.0000000000
    6    2   11   11        0.0000827237
    7    2    7    2        0.0004896772
    7    2    8    2       -0.0000000001
    7    2    9    2        0.0000000000
    7    2   10    2        0.0000000005
    7    2   11    2        0.0000011273
    7    2    3    3        0.0000000000
    7    2    4    3       -0.0000000000
    7    2    5    3        0.0000003232
    7    2    6    3       -0.0000000000
    7    2    7    3        0.0000175908
    7    2    8    3       -0.0000000000
    7    2    9    3       -0.0000000000
    7    2   10    3        0.0000000001
    7    2   11    3        0.0000001297
    7    2    4    4        0.0000000002
    7    2    5    4       -0.0000024439
    7    2    6    4       -0.0000000000
    7    2    7    4       -0.0000001131
    7    2    8    4       -0.0000000004
    7    2    9    4       -0.0000000000
    7    2   10    4        0.0000000035
    7    2   11    4        0.0000081617
    7    2    5    5       -0.0000000001
    7    2    6    5        0.0000002168
    7    2    7    5       -0.0000000000
    7    2    8    5        0.0000137352
    7    2    9    5        0.0000000656
    7    2   10    5        0.0000081618
    7    2   11    5       -0.0000000035
    7    2    6    6        0.0000000000
    7    2    7    6        0.0000162448
    7    2    8    6       -0.0000000000
    7    2    9    6        0.0000000000
    7    2   10    6        0.0000000000
    7    2   11    6        0.0000000546
    7    2    7    7       -0.0000000000
    7    2    8    7        0.0016187001
    7    2    9    7       -0.0000006655
    7    2   10    7        0.0000001066
    7    2   11    7       -0.0000000000
    7    2    8    8        0.0000000000
    7    2    9    8       -0.0000000000
    7    2   10    8       -0.0000000002
    7    2   11    8       -0.0000003889
    7    2    9    9        0.0000000000
    7    2   10    9        0.0000000001
    7    2   11    9        0.0000002424
    7    2   10   10        0.0000000090
    7    2   11   10        0.0000097167
    7    2   11   11       -0.0000000089
    8    2    8    2        0.0078897516
    8    2    9    2       -0.0000053299
    8    2   10    2       -0.0000000028
    8    2   11    2        0.0000000001
    8    2    3    3       -0.0018824669
    8    2    4    3       -0.0000382973
    8    2    5    3       -0.0000000011
    8    2    6    3       -0.0003112277
    8    2    7    3        0.0000000000
    8    2    8    3        0.0000050819
    8    2    9    3        0.0026120199
    8    2   10    3       -0.0000039184
    8    2   11    3        0.0000000014
    8    2    4    4       -0.0036088851
    8    2    5    4        0.0000000000
    8    2    6    4        0.0000085034
    8    2    7    4       -0.0000000007
    8    2    8    4       -0.0000000454
    8    2    9    4        0.0000081764
    8    2   10    4        0.0039955679
    8    2   11    4       -0.0000019631
    8    2    5    5       -0.0036089975
    8    2    6    5        0.0000000003
    8    2    7    5        0.0000206594
    8    2    8    5       -0.0000000000
    8    2    9    5        0.0000000002
    8    2   10    5        0.0000019630
    8    2   11    5        0.0039954972
    8    2    6    6       -0.0029955060
    8    2    7    6        0.0000000000
    8    2    8    6       -0.0000018941
    8    2    9    6        0.0005043904
    8    2   10    6       -0.0000120759
    8    2   11    6        0.0000000055
    8    2    7    7       -0.0010276665
    8    2    8    7        0.0000000000
    8    2    9    7       -0.0000000000
    8    2   10    7       -0.0000000133
    8    2   11    7       -0.0000290429
    8    2    8    8       -0.0022866665
    8    2    9    8        0.0000008736
    8    2   10    8       -0.0000000132
    8    2   11    8       -0.0000000000
    8    2    9    9       -0.0029650785
    8    2   10    9       -0.0000280365
    8    2   11    9        0.0000000135
    8    2   10   10       -0.0048529969
    8    2   11   10       -0.0000000000
    8    2   11   11       -0.0048530594
    9    2    9    2        0.0045472871
    9    2   10    2        0.0000002683
    9    2   11    2       -0.0000000008
    9    2    3    3       -0.0000501592
    9    2    4    3       -0.0000002817
    9    2    5    3       -0.0000000000
    9    2    6    3       -0.0000696637
    9    2    7    3        0.0000000000
    9    2    8    3       -0.0011335861
    9    2    9    3        0.0000009377
    9    2   10    3       -0.0000000894
    9    2   11    3        0.0000000000
    9    2    4    4       -0.0000420819
    9    2    5    4        0.0000000000
    9    2    6    4       -0.0000002175
    9    2    7    4       -0.0000000000
    9    2    8    4       -0.0000032119
    9    2    9    4        0.0000000300
    9    2   10    4       -0.0000194574
    9    2   11    4        0.0000000096
    9    2    5    5       -0.0000420835
    9    2    6    5       -0.0000000000
    9    2    7    5        0.0000000247
    9    2    8    5       -0.0000000001
    9    2    9    5        0.0000000000
    9    2   10    5       -0.0000000095
    9    2   11    5       -0.0000194596
    9    2    6    6       -0.0001127129
    9    2    7    6        0.0000000000
    9    2    8    6       -0.0004495569
    9    2    9    6        0.0000407918
    9    2   10    6        0.0000000460
    9    2   11    6       -0.0000000000
    9    2    7    7       -0.0000401658
    9    2    8    7       -0.0000000000
    9    2    9    7        0.0000000000
    9    2   10    7       -0.0000000000
    9    2   11    7       -0.0000000484
    9    2    8    8        0.0000018446
    9    2    9    8       -0.0004031980
    9    2   10    8       -0.0000038954
    9    2   11    8        0.0000000020
    9    2    9    9       -0.0000575483
    9    2   10    9       -0.0000001830
    9    2   11    9        0.0000000001
    9    2   10   10       -0.0000318421
    9    2   11   10       -0.0000000000
    9    2   11   11       -0.0000318443
   10    2   10    2        0.0040619790
   10    2   11    2       -0.0000000000
   10    2    3    3        0.0000004663
   10    2    4    3       -0.0000192439
   10    2    5    3       -0.0000000095
   10    2    6    3        0.0000003432
   10    2    7    3       -0.0000000002
   10    2    8    3        0.0000366452
   10    2    9    3        0.0000005379
   10    2   10    3       -0.0000051228
   10    2   11    3       -0.0000000000
   10    2    4    4       -0.0000001816
   10    2    5    4       -0.0000000001
   10    2    6    4       -0.0000281811
   10    2    7    4        0.0000000050
   10    2    8    4       -0.0020354221
   10    2    9    4        0.0000032486
   10    2   10    4        0.0000001642
   10    2   11    4       -0.0000000002
   10    2    5    5        0.0000002415
   10    2    6    5       -0.0000000138
   10    2    7    5        0.0000115236
   10    2    8    5       -0.0000010002
   10    2    9    5        0.0000000016
   10    2   10    5        0.0000000001
   10    2   11    5        0.0000003855
   10    2    6    6        0.0000002307
   10    2    7    6       -0.0000000002
   10    2    8    6       -0.0000040652
   10    2    9    6        0.0000002913
   10    2   10    6       -0.0000014693
   10    2   11    6       -0.0000000000
   10    2    7    7        0.0000006890
   10    2    8    7       -0.0000000196
   10    2    9    7       -0.0000000001
   10    2   10    7       -0.0000000029
   10    2   11    7       -0.0000031291
   10    2    8    8       -0.0000000481
   10    2    9    8        0.0000064227
   10    2   10    8        0.0007942977
   10    2   11    8       -0.0000000001
   10    2    9    9        0.0000008253
   10    2   10    9       -0.0000086810
   10    2   11    9       -0.0000000000
   10    2   10   10        0.0000004767
   10    2   11   10       -0.0000000002
   10    2   11   11        0.0000006821
   11    2   11    2        0.0040619663
   11    2    3    3       -0.0000000002
   11    2    4    3        0.0000000095
   11    2    5    3       -0.0000192480
   11    2    6    3       -0.0000000001
   11    2    7    3       -0.0000005351
   11    2    8    3       -0.0000000169
   11    2    9    3       -0.0000000002
   11    2   10    3        0.0000000000
   11    2   11    3       -0.0000051291
   11    2    4    4        0.0000000001
   11    2    5    4       -0.0000001919
   11    2    6    4        0.0000000138
   11    2    7    4        0.0000115204
   11    2    8    4        0.0000010001
   11    2    9    4       -0.0000000016
   11    2   10    4       -0.0000000002
   11    2   11    4       -0.0000003098
   11    2    5    5       -0.0000000001
   11    2    6    5       -0.0000281822
   11    2    7    5       -0.0000000049
   11    2    8    5       -0.0020355874
   11    2    9    5        0.0000032434
   11    2   10    5       -0.0000002734
   11    2   11    5       -0.0000000000
   11    2    6    6       -0.0000000001
   11    2    7    6       -0.0000004564
   11    2    8    6        0.0000000019
   11    2    9    6       -0.0000000001
   11    2   10    6        0.0000000000
   11    2   11    6       -0.0000014701
   11    2    7    7       -0.0000000003
   11    2    8    7       -0.0000425827
   11    2    9    7       -0.0000003077
   11    2   10    7       -0.0000031322
   11    2   11    7        0.0000000029
   11    2    8    8       -0.0000000000
   11    2    9    8       -0.0000000028
   11    2   10    8       -0.0000000001
   11    2   11    8        0.0007940843
   11    2    9    9       -0.0000000004
   11    2   10    9        0.0000000000
   11    2   11    9       -0.0000086895
   11    2   10   10       -0.0000000008
   11    2   11   10       -0.0000006321
   11    2   11   11        0.0000000003
    3    3    3    3        0.1157582373
    3    3    4    3       -0.0006960466
    3    3    5    3       -0.0000000217
    3    3    6    3       -0.0011945723
    3    3    7    3       -0.0000000000
    3    3    8    3        0.0004734831
    3    3    9    3       -0.0071600779
    3    3   10    3       -0.0001352986
    3    3   11    3        0.0000000625
    3    3    4    4        0.1216339331
    3    3    5    4        0.0000000002
    3    3    6    4        0.0001276972
    3    3    7    4       -0.0000000083
    3    3    8    4       -0.0000040933
    3    3    9    4        0.0000725092
    3    3   10    4       -0.0063332418
    3    3   11    4        0.0000031116
    3    3    5    5        0.1216282040
    3    3    6    5        0.0000000040
    3    3    7    5        0.0002662383
    3    3    8    5       -0.0000000001
    3    3    9    5        0.0000000023
    3    3   10    5       -0.0000031128
    3    3   11    5       -0.0063360869
    3    3    6    6        0.1182941651
    3    3    7    6        0.0000000000
    3    3    8    6        0.0000991690
    3    3    9    6        0.0004398748
    3    3   10    6       -0.0000542715
    3    3   11    6        0.0000000248
    3    3    7    7        0.1175341071
    3    3    8    7       -0.0000000000
    3    3    9    7       -0.0000000000
    3    3   10    7       -0.0000001908
    3    3   11    7       -0.0004146982
    3    3    8    8        0.1177537314
    3    3    9    8        0.0000550974
    3    3   10    8       -0.0000016498
    3    3   11    8        0.0000000008
    3    3    9    9        0.1121215247
    3    3   10    9       -0.0005121994
    3    3   11    9        0.0000002345
    3    3   10   10        0.1189518434
    3    3   11   10       -0.0000000012
    3    3   11   11        0.1189492159
    4    3    4    3        0.0214682351
    4    3    5    3        0.0000000001
    4    3    6    3        0.0002657192
    4    3    7    3       -0.0000000185
    4    3    8    3       -0.0000033936
    4    3    9    3       -0.0003037024
    4    3   10    3        0.0050168834
    4    3   11    3       -0.0000024647
    4    3    4    4       -0.0004176142
    4    3    5    4       -0.0000000182
    4    3    6    4       -0.0023134489
    4    3    7    4        0.0000003165
    4    3    8    4        0.0001424873
    4    3    9    4       -0.0041304583
    4    3   10    4       -0.0003627229
    4    3   11    4        0.0000001651
    4    3    5    5       -0.0000336828
    4    3    6    5       -0.0000000001
    4    3    7    5       -0.0050757005
    4    3    8    5       -0.0000000000
    4    3    9    5        0.0000000001
    4    3   10    5       -0.0000001211
    4    3   11    5       -0.0002143482
    4    3    6    6       -0.0005018366
    4    3    7    6        0.0000000050
    4    3    8    6        0.0000005254
    4    3    9    6       -0.0000598207
    4    3   10    6        0.0019530286
    4    3   11    6       -0.0000009583
    4    3    7    7       -0.0008180329
    4    3    8    7       -0.0000000001
    4    3    9    7        0.0000000037
    4    3   10    7        0.0000058001
    4    3   11    7        0.0135189202
    4    3    8    8       -0.0007819639
    4    3    9    8       -0.0000032285
    4    3   10    8        0.0000616910
    4    3   11    8       -0.0000000302
    4    3    9    9       -0.0008727382
    4    3   10    9        0.0139491288
    4    3   11    9       -0.0000068533
    4    3   10   10       -0.0005371105
    4    3   11   10        0.0000000418
    4    3   11   11       -0.0004132385
    5    3    5    3        0.0214639817
    5    3    6    3        0.0000000083
    5    3    7    3        0.0005923914
    5    3    8    3       -0.0000000001
    5    3    9    3       -0.0000000095
    5    3   10    3        0.0000024618
    5    3   11    3        0.0050101564
    5    3    4    4       -0.0000000255
    5    3    5    4        0.0001996060
    5    3    6    4       -0.0000000001
    5    3    7    4       -0.0050783060
    5    3    8    4       -0.0000000000
    5    3    9    4        0.0000000001
    5    3   10    4        0.0000001105
    5    3   11    4        0.0002888976
    5    3    5    5        0.0000000114
    5    3    6    5       -0.0023111323
    5    3    7    5       -0.0000003165
    5    3    8    5        0.0001424706
    5    3    9    5       -0.0041338743
    5    3   10    5        0.0003588208
    5    3   11    5       -0.0000001623
    5    3    6    6       -0.0000000157
    5    3    7    6       -0.0001601893
    5    3    8    6        0.0000000000
    5    3    9    6       -0.0000000019
    5    3   10    6        0.0000009589
    5    3   11    6        0.0019545609
    5    3    7    7       -0.0000000255
    5    3    8    7        0.0000038746
    5    3    9    7       -0.0001199920
    5    3   10    7        0.0135145361
    5    3   11    7       -0.0000057979
    5    3    8    8       -0.0000000240
    5    3    9    8       -0.0000000001
    5    3   10    8        0.0000000303
    5    3   11    8        0.0000616432
    5    3    9    9       -0.0000000272
    5    3   10    9        0.0000068506
    5    3   11    9        0.0139430750
    5    3   10   10        0.0000004139
    5    3   11   10        0.0004679252
    5    3   11   11       -0.0000004448
    6    3    6    3        0.0113810945
    6    3    7    3       -0.0000000000
    6    3    8    3        0.0004877306
    6    3    9    3        0.0002321003
    6    3   10    3        0.0000360086
    6    3   11    3       -0.0000000165
    6    3    4    4       -0.0008628500
    6    3    5    4       -0.0000000001
    6    3    6    4       -0.0001451060
    6    3    7    4        0.0000000026
    6    3    8    4       -0.0000024566
    6    3    9    4       -0.0000650839
    6    3   10    4        0.0007126953
    6    3   11    4       -0.0000003495
    6    3    5    5       -0.0008588330
    6    3    6    5       -0.0000000045
    6    3    7    5       -0.0000837896
    6    3    8    5       -0.0000000001
    6    3    9    5       -0.0000000020
    6    3   10    5        0.0000003501
    6    3   11    5        0.0007140963
    6    3    6    6        0.0000439009
    6    3    7    6       -0.0000000000
    6    3    8    6        0.0001192763
    6    3    9    6       -0.0057370533
    6    3   10    6        0.0000170766
    6    3   11    6       -0.0000000079
    6    3    7    7       -0.0015289849
    6    3    8    7        0.0000000000
    6    3    9    7       -0.0000000000
    6    3   10    7        0.0000000759
    6    3   11    7        0.0001648652
    6    3    8    8       -0.0039768035
    6    3    9    8        0.0000152440
    6    3   10    8       -0.0000006573
    6    3   11    8        0.0000000004
    6    3    9    9       -0.0006380127
    6    3   10    9        0.0001765747
    6    3   11    9       -0.0000000810
    6    3   10   10       -0.0014722386
    6    3   11   10        0.0000000006
    6    3   11   11       -0.0014710108
    7    3    7    3        0.0125687999
    7    3    8    3       -0.0000000001
    7    3    9    3       -0.0000000000
    7    3   10    3        0.0000000144
    7    3   11    3        0.0000312657
    7    3    4    4        0.0000000713
    7    3    5    4       -0.0011436121
    7    3    6    4        0.0000000030
    7    3    7    4       -0.0003005230
    7    3    8    4       -0.0000000001
    7    3    9    4        0.0000000041
    7    3   10    4        0.0000033266
    7    3   11    4        0.0077540062
    7    3    5    5       -0.0000000713
    7    3    6    5       -0.0000950378
    7    3    7    5       -0.0000000094
    7    3    8    5        0.0000035692
    7    3    9    5       -0.0001315082
    7    3   10    5        0.0077542758
    7    3   11    5       -0.0000033267
    7    3    6    6       -0.0000000000
    7    3    7    6       -0.0008677385
    7    3    8    6       -0.0000000000
    7    3    9    6        0.0000000000
    7    3   10    6        0.0000000330
    7    3   11    6        0.0000717623
    7    3    7    7       -0.0000000000
    7    3    8    7        0.0000860733
    7    3    9    7       -0.0066157314
    7    3   10    7        0.0003790421
    7    3   11    7       -0.0000001750
    7    3    8    8        0.0000000000
    7    3    9    8       -0.0000000000
    7    3   10    8        0.0000000004
    7    3   11    8        0.0000008219
    7    3    9    9        0.0000000000
    7    3   10    9        0.0000001918
    7    3   11    9        0.0004169014
    7    3   10   10        0.0000007560
    7    3   11   10        0.0008212886
    7    3   11   11       -0.0000007560
    8    3    8    3        0.0238763618
    8    3    9    3        0.0001778233
    8    3   10    3       -0.0000033004
    8    3   11    3        0.0000000015
    8    3    4    4        0.0003480002
    8    3    5    4       -0.0000000000
    8    3    6    4       -0.0000036061
    8    3    7    4       -0.0000000000
    8    3    8    4       -0.0002818871
    8    3    9    4       -0.0000026334
    8    3   10    4        0.0002276676
    8    3   11    4       -0.0000001117
    8    3    5    5        0.0003479858
    8    3    6    5       -0.0000000001
    8    3    7    5        0.0000014840
    8    3    8    5       -0.0000000085
    8    3    9    5       -0.0000000001
    8    3   10    5        0.0000001118
    8    3   11    5        0.0002276318
    8    3    6    6        0.0006665698
    8    3    7    6       -0.0000000000
    8    3    8    6       -0.0002449983
    8    3    9    6       -0.0001043602
    8    3   10    6       -0.0000022581
    8    3   11    6        0.0000000011
    8    3    7    7        0.0003685789
    8    3    8    7        0.0000000000
    8    3    9    7       -0.0000000000
    8    3   10    7       -0.0000000006
    8    3   11    7       -0.0000013699
    8    3    8    8        0.0000034651
    8    3    9    8        0.0017241872
    8    3   10    8       -0.0000745985
    8    3   11    8        0.0000000343
    8    3    9    9        0.0006159908
    8    3   10    9       -0.0000047390
    8    3   11    9        0.0000000020
    8    3   10   10        0.0004123060
    8    3   11   10       -0.0000000000
    8    3   11   11        0.0004122590
    9    3    9    3        0.0108154473
    9    3   10    3       -0.0001917603
    9    3   11    3        0.0000000881
    9    3    4    4       -0.0132332418
    9    3    5    4        0.0000000003
    9    3    6    4        0.0000128719
    9    3    7    4       -0.0000000009
    9    3    8    4       -0.0000055870
    9    3    9    4       -0.0000916519
    9    3   10    4        0.0091199361
    9    3   11    4       -0.0000044806
    9    3    5    5       -0.0132420749
    9    3    6    5        0.0000000004
    9    3    7    5        0.0000298154
    9    3    8    5       -0.0000000002
    9    3    9    5       -0.0000000029
    9    3   10    5        0.0000044788
    9    3   11    5        0.0091157235
    9    3    6    6       -0.0133994212
    9    3    7    6        0.0000000000
    9    3    8    6        0.0000008981
    9    3    9    6        0.0001436754
    9    3   10    6       -0.0000065508
    9    3   11    6        0.0000000033
    9    3    7    7       -0.0127063036
    9    3    8    7       -0.0000000000
    9    3    9    7        0.0000000000
    9    3   10    7       -0.0000000605
    9    3   11    7       -0.0001315351
    9    3    8    8       -0.0073322635
    9    3    9    8        0.0001068101
    9    3   10    8       -0.0000028638
    9    3   11    8        0.0000000012
    9    3    9    9       -0.0038567887
    9    3   10    9       -0.0002625074
    9    3   11    9        0.0000001224
    9    3   10   10       -0.0105189565
    9    3   11   10       -0.0000000020
    9    3   11   11       -0.0105232646
   10    3   10    3        0.0073862181
   10    3   11    3       -0.0000000045
   10    3    4    4       -0.0003125743
   10    3    5    4        0.0000000013
   10    3    6    4       -0.0000097529
   10    3    7    4        0.0000016879
   10    3    8    4        0.0001077729
   10    3    9    4        0.0037727015
   10    3   10    4       -0.0001681880
   10    3   11    4        0.0000000835
   10    3    5    5        0.0002542612
   10    3    6    5       -0.0000000039
   10    3    7    5        0.0039381194
   10    3    8    5        0.0000000529
   10    3    9    5        0.0000018512
   10    3   10    5        0.0000000659
   10    3   11    5        0.0000530050
   10    3    6    6       -0.0000830227
   10    3    7    6        0.0000000028
   10    3    8    6        0.0000003702
   10    3    9    6        0.0000343873
   10    3   10    6       -0.0003570098
   10    3   11    6        0.0000000015
   10    3    7    7       -0.0000209198
   10    3    8    7        0.0000000010
   10    3    9    7        0.0000000275
   10    3   10    7        0.0000020876
   10    3   11    7        0.0022711667
   10    3    8    8       -0.0001492832
   10    3    9    8       -0.0000031418
   10    3   10    8        0.0000813704
   10    3   11    8       -0.0000000000
   10    3    9    9       -0.0002933814
   10    3   10    9        0.0035132350
   10    3   11    9       -0.0000000044
   10    3   10   10       -0.0001940155
   10    3   11   10        0.0000001384
   10    3   11   11        0.0000020320
   11    3   11    3        0.0073763382
   11    3    4    4        0.0000001419
   11    3    5    4        0.0000411712
   11    3    6    4        0.0000000052
   11    3    7    4        0.0039344107
   11    3    8    4       -0.0000000529
   11    3    9    4       -0.0000018534
   11    3   10    4        0.0000000816
   11    3   11    4        0.0000171386
   11    3    5    5       -0.0000001138
   11    3    6    5       -0.0000067361
   11    3    7    5       -0.0000016897
   11    3    8    5        0.0001077140
   11    3    9    5        0.0037675209
   11    3   10    5        0.0001015236
   11    3   11    5       -0.0000000712
   11    3    6    6        0.0000000385
   11    3    7    6        0.0000060241
   11    3    8    6       -0.0000000001
   11    3    9    6       -0.0000000157
   11    3   10    6        0.0000000011
   11    3   11    6       -0.0003540925
   11    3    7    7        0.0000000097
   11    3    8    7        0.0000022305
   11    3    9    7        0.0000597211
   11    3   10    7        0.0022653595
   11    3   11    7       -0.0000020876
   11    3    8    8        0.0000000690
   11    3    9    8        0.0000000014
   11    3   10    8       -0.0000000000
   11    3   11    8        0.0000812620
   11    3    9    9        0.0000001360
   11    3   10    9       -0.0000000044
   11    3   11    9        0.0035036553
   11    3   10   10        0.0000001860
   11    3   11   10        0.0001042707
   11    3   11   11       -0.0000000956
    4    4    4    4        0.1469422525
    4    4    5    4        0.0000007074
    4    4    6    4        0.0001440233
    4    4    7    4        0.0000000068
    4    4    8    4       -0.0000013912
    4    4    9    4       -0.0000675571
    4    4   10    4       -0.0131893343
    4    4   11    4        0.0000066331
    4    4    5    5        0.1215134756
    4    4    6    5        0.0000000063
    4    4    7    5       -0.0000577140
    4    4    8    5       -0.0000000001
    4    4    9    5       -0.0000000011
    4    4   10    5       -0.0000074239
    4    4   11    5       -0.0154222427
    4    4    6    6        0.1278744262
    4    4    7    6        0.0000000139
    4    4    8    6        0.0000822646
    4    4    9    6        0.0005048422
    4    4   10    6        0.0000885412
    4    4   11    6       -0.0000000425
    4    4    7    7        0.1246327564
    4    4    8    7        0.0000000003
    4    4    9    7       -0.0000000934
    4    4   10    7       -0.0000001590
    4    4   11    7       -0.0003293784
    4    4    8    8        0.1238232865
    4    4    9    8        0.0000243732
    4    4   10    8       -0.0000022513
    4    4   11    8        0.0000000011
    4    4    9    9        0.1172760908
    4    4   10    9       -0.0003547233
    4    4   11    9        0.0000001521
    4    4   10   10        0.1333355765
    4    4   11   10       -0.0000030719
    4    4   11   11        0.1269435796
    5    4    5    4        0.0013672076
    5    4    6    4        0.0000000068
    5    4    7    4       -0.0000799871
    5    4    8    4       -0.0000000001
    5    4    9    4       -0.0000000059
    5    4   10    4       -0.0000005064
    5    4   11    4       -0.0013425275
    5    4    5    5       -0.0000007074
    5    4    6    5       -0.0000291978
    5    4    7    5       -0.0000000113
    5    4    8    5        0.0000014522
    5    4    9    5       -0.0000167258
    5    4   10    5       -0.0013423989
    5    4   11    5        0.0000005063
    5    4    6    6        0.0000000002
    5    4    7    6       -0.0002227118
    5    4    8    6       -0.0000000000
    5    4    9    6       -0.0000000001
[...]
    8    5    8    8        0.0000000000
    8    5    9    8       -0.0000000051
    8    5   10    8        0.0000017966
    8    5   11    8        0.0036564332
    8    5    9    9       -0.0000000003
    8    5   10    9        0.0000000670
    8    5   11    9        0.0001363090
    8    5   10   10        0.0000000045
    8    5   11   10        0.0000051372
    8    5   11   11       -0.0000000049
    9    5    9    5        0.0057559032
    9    5   10    5       -0.0000332781
    9    5   11    5        0.0000000163
    9    5    6    6        0.0000000023
    9    5    7    6        0.0000676571
    9    5    8    6        0.0000000000
    9    5    9    6        0.0000000015
    9    5   10    6       -0.0000004182
    9    5   11    6       -0.0008518841
    9    5    7    7        0.0000000064
    9    5    8    7        0.0000014439
    9    5    9    7        0.0000982568
    9    5   10    7       -0.0038958265
    9    5   11    7        0.0000016715
    9    5    8    8        0.0000000026
    9    5    9    8       -0.0000000001
    9    5   10    8        0.0000000258
    9    5   11    8        0.0000525571
    9    5    9    9       -0.0000000009
    9    5   10    9       -0.0000006889
    9    5   11    9       -0.0014024775
    9    5   10   10       -0.0000000232
    9    5   11   10       -0.0000244518
    9    5   11   11        0.0000000267
   10    5   10    5        0.0069117450
   10    5   11    5        0.0000041499
   10    5    6    6       -0.0000057623
   10    5    7    6       -0.0012394274
   10    5    8    6        0.0000000168
   10    5    9    6       -0.0000001348
   10    5   10    6       -0.0000000185
   10    5   11    6        0.0000179167
   10    5    7    7       -0.0000049707
   10    5    8    7        0.0000393707
   10    5    9    7       -0.0043712987
   10    5   10    7        0.0002269951
   10    5   11    7       -0.0000001610
   10    5    8    8       -0.0000033662
   10    5    9    8        0.0000000263
   10    5   10    8        0.0000000011
   10    5   11    8        0.0000012626
   10    5    9    9       -0.0000032566
   10    5   10    9        0.0000000614
   10    5   11    9        0.0002516963
   10    5   10   10       -0.0000078700
   10    5   11   10       -0.0008875044
   10    5   11   11       -0.0000057632
   11    5   11    5        0.0149152872
   11    5    6    6       -0.0117284883
   11    5    7    6        0.0000005317
   11    5    8    6        0.0000342457
   11    5    9    6       -0.0002751471
   11    5   10    6       -0.0000551897
   11    5   11    6        0.0000000189
   11    5    7    7       -0.0101173410
   11    5    8    7       -0.0000000169
   11    5    9    7        0.0000018754
   11    5   10    7       -0.0000001482
   11    5   11    7       -0.0001053842
   11    5    8    8       -0.0068522107
   11    5    9    8        0.0000535483
   11    5   10    8        0.0000013617
   11    5   11    8       -0.0000000013
   11    5    9    9       -0.0066289749
   11    5   10    9       -0.0000962467
   11    5   11    9       -0.0000000630
   11    5   10   10       -0.0144264684
   11    5   11   10        0.0000008886
   11    5   11   11       -0.0133226706
    6    6    6    6        0.1302004068
    6    6    7    6       -0.0000000000
    6    6    8    6        0.0001795496
    6    6    9    6       -0.0031756931
    6    6   10    6       -0.0000199888
    6    6   11    6        0.0000000095
    6    6    7    7        0.1202591822
    6    6    8    7        0.0000000000
    6    6    9    7        0.0000000000
    6    6   10    7       -0.0000001381
    6    6   11    7       -0.0003000357
    6    6    8    8        0.1181975136
    6    6    9    8       -0.0000195641
    6    6   10    8       -0.0000005725
    6    6   11    8        0.0000000004
    6    6    9    9        0.1138439469
    6    6   10    9       -0.0003467736
    6    6   11    9        0.0000001573
    6    6   10   10        0.1223413661
    6    6   11   10       -0.0000000008
    6    6   11   11        0.1223395721
    7    6    7    6        0.0050864886
    7    6    8    6        0.0000000000
    7    6    9    6        0.0000000000
    7    6   10    6       -0.0000000200
    7    6   11    6       -0.0000434555
    7    6    7    7        0.0000000000
    7    6    8    7        0.0000881911
    7    6    9    7        0.0029266091
    7    6   10    7       -0.0001325718
    7    6   11    7        0.0000000603
    7    6    8    8        0.0000000000
    7    6    9    8        0.0000000000
    7    6   10    8        0.0000000002
    7    6   11    8        0.0000003513
    7    6    9    9       -0.0000000000
    7    6   10    9       -0.0000000581
    7    6   11    9       -0.0001261580
    7    6   10   10        0.0000020051
    7    6   11   10        0.0021790658
    7    6   11   11       -0.0000020050
    8    6    8    6        0.0031396990
    8    6    9    6       -0.0000530157
    8    6   10    6        0.0000000650
    8    6   11    6       -0.0000000000
    8    6    7    7        0.0000825913
    8    6    8    7        0.0000000000
    8    6    9    7        0.0000000000
    8    6   10    7        0.0000000001
    8    6   11    7        0.0000001505
    8    6    8    8        0.0000006644
    8    6    9    8       -0.0009871629
    8    6   10    8        0.0000252876
    8    6   11    8       -0.0000000117
    8    6    9    9        0.0000957259
    8    6   10    9        0.0000006050
    8    6   11    9       -0.0000000003
    8    6   10   10        0.0000723016
    8    6   11   10        0.0000000000
    8    6   11   11        0.0000723160
    9    6    9    6        0.0063129338
    9    6   10    6       -0.0000380860
    9    6   11    6        0.0000000170
    9    6    7    7        0.0030081031
    9    6    8    7        0.0000000000
    9    6    9    7       -0.0000000000
    9    6   10    7       -0.0000000266
    9    6   11    7       -0.0000577640
    9    6    8    8        0.0012481241
    9    6    9    8        0.0000628010
    9    6   10    8       -0.0000009691
    9    6   11    8        0.0000000004
    9    6    9    9        0.0006755380
    9    6   10    9       -0.0000516697
    9    6   11    9        0.0000000238
    9    6   10   10        0.0022553310
    9    6   11   10        0.0000000005
    9    6   11   11        0.0022564604
   10    6   10    6        0.0034376129
   10    6   11    6       -0.0000000011
   10    6    7    7       -0.0001113716
   10    6    8    7        0.0000000004
   10    6    9    7       -0.0000000202
   10    6   10    7        0.0000025571
   10    6   11    7        0.0027789158
   10    6    8    8       -0.0000538521
   10    6    9    8       -0.0000016752
   10    6   10    8        0.0000511879
   10    6   11    8       -0.0000000000
   10    6    9    9       -0.0000782492
   10    6   10    9        0.0029369875
   10    6   11    9       -0.0000000001
   10    6   10   10       -0.0000099381
   10    6   11   10        0.0000000120
   10    6   11   11       -0.0000311077
   11    6   11    6        0.0034353099
   11    6    7    7        0.0000000503
   11    6    8    7        0.0000009500
   11    6    9    7       -0.0000439587
   11    6   10    7        0.0027801225
   11    6   11    7       -0.0000025571
   11    6    8    8        0.0000000246
   11    6    9    8        0.0000000008
   11    6   10    8       -0.0000000000
   11    6   11    8        0.0000511352
   11    6    9    9        0.0000000359
   11    6   10    9        0.0000000013
   11    6   11    9        0.0029383234
   11    6   10   10        0.0000000481
   11    6   11   10        0.0000479833
   11    6   11   11       -0.0000000310
    7    7    7    7        0.1274479267
    7    7    8    7       -0.0000000000
    7    7    9    7       -0.0000000000
    7    7   10    7       -0.0000002555
    7    7   11    7       -0.0005553103
    7    7    8    8        0.1197259690
    7    7    9    8        0.0000229609
    7    7   10    8       -0.0000008984
    7    7   11    8        0.0000000005
    7    7    9    9        0.1120861434
    7    7   10    9       -0.0005837199
    7    7   11    9        0.0000002668
    7    7   10   10        0.1223056303
    7    7   11   10       -0.0000000001
    7    7   11   11        0.1223052915
    8    7    8    7        0.0089255204
    8    7    9    7        0.0000127741
    8    7   10    7        0.0000009300
    8    7   11    7       -0.0000000004
    8    7    8    8        0.0000000001
    8    7    9    8       -0.0000000000
    8    7   10    8        0.0000000016
    8    7   11    8        0.0000034207
    8    7    9    9       -0.0000000000
    8    7   10    9        0.0000000015
    8    7   11    9        0.0000032541
    8    7   10   10        0.0000000583
    8    7   11   10        0.0000634413
    8    7   11   11       -0.0000000584
    9    7    9    7        0.0060641465
    9    7   10    7       -0.0001237002
    9    7   11    7        0.0000000568
    9    7    8    8       -0.0000000000
    9    7    9    8       -0.0000000000
    9    7   10    8        0.0000000003
    9    7   11    8        0.0000007138
    9    7    9    9       -0.0000000000
    9    7   10    9       -0.0000000411
    9    7   11    9       -0.0000893215
    9    7   10   10        0.0000024755
    9    7   11   10        0.0026900610
    9    7   11   11       -0.0000024755
   10    7   10    7        0.0110331020
   10    7   11    7        0.0000000019
   10    7    8    8       -0.0000002139
   10    7    9    8       -0.0000000005
   10    7   10    8        0.0000000397
   10    7   11    8        0.0000431896
   10    7    9    9       -0.0000002289
   10    7   10    9        0.0000089451
   10    7   11    9        0.0097167319
   10    7   10   10        0.0000001012
   10    7   11   10        0.0002675692
   10    7   11   11       -0.0000003386
   11    7   11    7        0.0110372494
   11    7    8    8       -0.0004652878
   11    7    9    8       -0.0000011476
   11    7   10    8        0.0000432498
   11    7   11    8       -0.0000000397
   11    7    9    9       -0.0004974128
   11    7   10    9        0.0097224595
   11    7   11    9       -0.0000089452
   11    7   10   10       -0.0003151264
   11    7   11   10       -0.0000000702
   11    7   11   11       -0.0001974967
    8    8    8    8        0.1227292164
    8    8    9    8       -0.0000003357
    8    8   10    8       -0.0000001644
    8    8   11    8        0.0000000001
    8    8    9    9        0.1134444722
    8    8   10    9       -0.0005685765
    8    8   11    9        0.0000002606
    8    8   10   10        0.1212315703
    8    8   11   10       -0.0000000014
    8    8   11   11        0.1212285454
    9    8    9    8        0.0061290014
    9    8   10    8       -0.0001247937
    9    8   11    8        0.0000000575
    9    8    9    9        0.0001551501
    9    8   10    9       -0.0000047470
    9    8   11    9        0.0000000022
    9    8   10   10        0.0000860948
    9    8   11   10       -0.0000000000
    9    8   11   11        0.0000860051
   10    8   10    8        0.0056989406
   10    8   11    8       -0.0000000025
   10    8    9    9       -0.0000061259
   10    8   10    9        0.0000970863
   10    8   11    9       -0.0000000001
   10    8   10   10       -0.0000038750
   10    8   11   10        0.0000000029
   10    8   11   11        0.0000004816
   11    8   11    8        0.0056934843
   11    8    9    9        0.0000000029
   11    8   10    9       -0.0000000000
   11    8   11    9        0.0000969026
   11    8   10   10        0.0000000036
   11    8   11   10        0.0000018729
   11    8   11   11       -0.0000000019
    9    9    9    9        0.1156496841
    9    9   10    9       -0.0007424443
    9    9   11    9        0.0000003411
    9    9   10   10        0.1171918500
    9    9   11   10       -0.0000000040
    9    9   11   11        0.1171832400
   10    9   10    9        0.0125163308
   10    9   11    9       -0.0000000049
   10    9   10   10       -0.0004562623
   10    9   11   10        0.0000002592
   10    9   11   11       -0.0002359522
   11    9   11    9        0.0125057895
   11    9   10   10        0.0000005245
   11    9   11   10        0.0003436988
   11    9   11   11       -0.0000002103
   10   10   10   10        0.1320345935
   10   10   11   10        0.0000033999
   10   10   11   11        0.1279737198
   11   10   11   10        0.0057246776
   11   10   11   11       -0.0000033999
   11   11   11   11        0.1320345267
 end_two_electron_integrals


 output epsi filename:./pspw_hf_H2.emovecs

 Total PSPW energy     :  -0.8718278715E+00


=== Spin Contamination ===

 <Sexact^2> =    0.0000000000000000     
 <S^2>      =    0.0000000000000000     



== Center of Charge ==

spin up     (    0.0000,    0.0000,    0.0001 )
spin down   (    0.0000,    0.0000,    0.0001 )
     total  (    0.0000,    0.0000,    0.0001 )
ionic       (    0.0000,    0.0000,    0.0000 )


== Molecular Dipole wrt Center of Mass ==

mu   =  (   -0.0000,   -0.0000,   -0.0002 ) au
|mu| =     0.0002 au,       0.0006 Debye

 output psi filename:./pspw_hf_H2.movecs

 Writing Crystallographic Information File:./H2.cif
   - cell not shifted (nwpw:cif_shift_cell .false.)


== Timing ==

cputime in seconds
  prologue    :   0.548228E+01
  main loop   :   0.257021E+03
  epilogue    :   0.605513E-02
  total       :   0.262509E+03
  cputime/step:   0.182284E+01       (     141 evalulations,      59 linesearches)


Time spent doing                        total          step       percent
  total time                 :   0.262509E+03  0.186177E+01       100.0 %
  i/o time                   :   0.764325E-01  0.542075E-03         0.0 %
  FFTs                       :   0.229846E+03  0.163011E+01        87.6 %
  dot products               :   0.330040E+00  0.234071E-02         0.1 %
  geodesic                   :   0.612623E-01  0.434484E-03         0.0 %
  ffm_dgemm                  :   0.777257E-02  0.551246E-04         0.0 %
  fmf_dgemm                  :   0.300784E-01  0.213322E-03         0.0 %
  mmm_dgemm                  :   0.127964E-02  0.907547E-05         0.0 %
  m_diagonalize              :   0.714982E-03  0.507079E-05         0.0 %
  local pseudopotentials     :   0.105892E-01  0.751005E-04         0.0 %
  non-local pseudopotentials :   0.704815E+00  0.499869E-02         0.3 %
  structure factors          :   0.329660E+00  0.233802E-02         0.1 %
  phase factors              :   0.699100E-05  0.495816E-07         0.0 %
  masking and packing        :   0.328507E+01  0.232984E-01         1.3 %
  queue fft                  :   0.126264E+01  0.895489E-02         0.5 %
  queue fft (serial)         :   0.735197E+00  0.521416E-02         0.3 %
  queue fft (message passing):   0.480779E+00  0.340978E-02         0.2 %
  HFX potential              :   0.187030E+03  0.132646E+01        71.2 %
  non-local psp FFM          :   0.378089E+00  0.268148E-02         0.1 %
  non-local psp FMF          :   0.857581E-01  0.608213E-03         0.0 %
  non-local psp FFM A        :   0.101290E+00  0.718370E-03         0.0 %
  non-local psp FFM B        :   0.708360E-01  0.502383E-03         0.0 %

== HFX Counters ==
  HFX Evalulations         =   141
  Lin ACE HFX Evalulations =     0


     >>>  JOB COMPLETED     AT Wed Apr 30 10:38:12 2025  <<<

 Task  times  cpu:      277.0s     wall:      262.5s
 Summary of allocated global arrays
-----------------------------------
  No active global arrays


MA_summarize_allocated_blocks: starting scan ...
MA_summarize_allocated_blocks: scan completed: 0 heap blocks, 0 stack blocks
MA usage statistics:

	allocation statistics:
					      heap	     stack
					      ----	     -----
	current number of blocks	         0	         0
	maximum number of blocks	       313	        17
	current total bytes		         0	         0
	maximum total bytes		 367819864	  89294088
	maximum total K-bytes		    367820	     89295
	maximum total M-bytes		       368	        90


                                NWChem Input Module
                                -------------------




                                     CITATION
                                     --------
                Please cite the following reference when publishing
                           results obtained with NWChem:

          E. Apra, E. J. Bylaska, W. A. de Jong, N. Govind, K. Kowalski,
       T. P. Straatsma, M. Valiev, H. J. J. van Dam, Y. Alexeev, J. Anchell,
       V. Anisimov, F. W. Aquino, R. Atta-Fynn, J. Autschbach, N. P. Bauman,
     J. C. Becca, D. E. Bernholdt, K. Bhaskaran-Nair, S. Bogatko, P. Borowski,
         J. Boschen, J. Brabec, A. Bruner, E. Cauet, Y. Chen, G. N. Chuev,
      C. J. Cramer, J. Daily, M. J. O. Deegan, T. H. Dunning Jr., M. Dupuis,
   K. G. Dyall, G. I. Fann, S. A. Fischer, A. Fonari, H. Fruchtl, L. Gagliardi,
      J. Garza, N. Gawande, S. Ghosh, K. Glaesemann, A. W. Gotz, J. Hammond,
       V. Helms, E. D. Hermes, K. Hirao, S. Hirata, M. Jacquelin, L. Jensen,
   B. G. Johnson, H. Jonsson, R. A. Kendall, M. Klemm, R. Kobayashi, V. Konkov,
      S. Krishnamoorthy, M. Krishnan, Z. Lin, R. D. Lins, R. J. Littlefield,
      A. J. Logsdail, K. Lopata, W. Ma, A. V. Marenich, J. Martin del Campo,
   D. Mejia-Rodriguez, J. E. Moore, J. M. Mullin, T. Nakajima, D. R. Nascimento,
    J. A. Nichols, P. J. Nichols, J. Nieplocha, A. Otero-de-la-Roza, B. Palmer,
    A. Panyala, T. Pirojsirikul, B. Peng, R. Peverati, J. Pittner, L. Pollack,
   R. M. Richard, P. Sadayappan, G. C. Schatz, W. A. Shelton, D. W. Silverstein,
   D. M. A. Smith, T. A. Soares, D. Song, M. Swart, H. L. Taylor, G. S. Thomas,
            V. Tipparaju, D. G. Truhlar, K. Tsemekhman, T. Van Voorhis,
      A. Vazquez-Mayagoitia, P. Verma, O. Villa, A. Vishnu, K. D. Vogiatzis,
        D. Wang, J. H. Weare, M. J. Williamson, T. L. Windus, K. Wolinski,
        A. T. Wong, Q. Wu, C. Yang, Q. Yu, M. Zacharias, Z. Zhang, Y. Zhao,
                                and R. J. Harrison
                        "NWChem: Past, present, and future
                         J. Chem. Phys. 152, 184102 (2020)
                               doi:10.1063/5.0004997

                                      AUTHORS
                                      -------
  E. Apra, E. J. Bylaska, N. Govind, K. Kowalski, M. Valiev, D. Mejia-Rodriguez,
       A. Kunitsa, N. P. Bauman, A. Panyala, W. A. de Jong, T. P. Straatsma,
   H. J. J. van Dam, D. Wang, T. L. Windus, J. Hammond, J. Autschbach, A. Woods,
    K. Bhaskaran-Nair, J. Brabec, K. Lopata, S. A. Fischer, S. Krishnamoorthy,
     M. Jacquelin, W. Ma, M. Klemm, O. Villa, Y. Chen, V. Anisimov, F. Aquino,
     S. Hirata, M. T. Hackler, E. Hermes, L. Jensen, J. E. Moore, J. C. Becca,
      V. Konjkov, T. Risthaus, M. Malagoli, A. Marenich, A. Otero-de-la-Roza,
        J. Mullin, P. Nichols, R. Peverati, J. Pittner, Y. Zhao, P.-D. Fan,
        A. Fonari, M. J. Williamson, R. J. Harrison, J. R. Rehr, M. Dupuis,
     D. Silverstein, D. M. A. Smith, J. Nieplocha, V. Tipparaju, M. Krishnan,
     B. E. Van Kuiken, A. Vazquez-Mayagoitia, M. Swart, Q. Wu, T. Van Voorhis,
     A. A. Auer, M. Nooijen, L. D. Crosby, E. Brown, G. Cisneros, G. I. Fann,
   H. Fruchtl, J. Garza, K. Hirao, R. A. Kendall, J. A. Nichols, K. Tsemekhman,
    K. Wolinski, J. Anchell, D. E. Bernholdt, P. Borowski, T. Clark, D. Clerc,
   H. Dachsel, M. J. O. Deegan, K. Dyall, D. Elwood, E. Glendening, M. Gutowski,
   A. C. Hess, J. Jaffe, B. G. Johnson, J. Ju, R. Kobayashi, R. Kutteh, Z. Lin,
   R. Littlefield, X. Long, B. Meng, T. Nakajima, S. Niu, L. Pollack, M. Rosing,
   K. Glaesemann, G. Sandrone, M. Stave, H. Taylor, G. Thomas, J. H. van Lenthe,
                               A. T. Wong, Z. Zhang.

 Total times  cpu:      277.1s     wall:      262.5s
