 argument  1 = H2-2.0.nw



============================== echo of input deck ==============================
title "swnc: e theory=pspw4 xc=hf formula=H2 charge=0 mult=1"
#machinejob:expert

echo

start pspw_hf_H2

memory heap 1200 mb stack 1200 mb global 10 mb

charge 0

geometry
H    0.00000    0.00000   -1.00000
H    0.00000    0.00000    1.00000
end

nwpw
  ### pseudopotential block begin ###
  ### pseudopotential block end   ###
  simulation_cell
     SC 15.0000
     boundary_conditions aperiodic
  end

  cutoff 50.0
  mult 1
  xc hf
  lmbfgs
  tolerances 1.0e-9 1.0e-9

  virtual 10
end
set nwpw:cif_filename H2

#set nwpw:CI_maxit_orb 15
#set nwpw:CI_maxit_linesearch 15
set pspw:HFX_screening_radius 14.0


set nwpw:2qintegrals .true.
#set nwpw:3x3_virtual .true.

task pspw energy

================================================================================


                                         
                                         


             Northwest Computational Chemistry Package (NWChem) 7.2.2
             --------------------------------------------------------


                    Environmental Molecular Sciences Laboratory
                       Pacific Northwest National Laboratory
                                Richland, WA 99352

                              Copyright (c) 1994-2022
                       Pacific Northwest National Laboratory
                            Battelle Memorial Institute

             NWChem is an open-source computational chemistry package
                        distributed under the terms of the
                      Educational Community License (ECL) 2.0
             A copy of the license is included with this distribution
                              in the LICENSE.TXT file

                                  ACKNOWLEDGMENT
                                  --------------

            This software and its documentation were developed at the
            EMSL at Pacific Northwest National Laboratory, a multiprogram
            national laboratory, operated for the U.S. Department of Energy
            by Battelle under Contract Number DE-AC05-76RL01830. Support
            for this work was provided by the Department of Energy Office
            of Biological and Environmental Research, Office of Basic
            Energy Sciences, and the Office of Advanced Scientific Computing.


           Job information
           ---------------

    hostname        = LAPTOP-JJQSTSEL
    program         = nwchem
    date            = Wed Apr 30 10:27:40 2025

    compiled        = Fri_Jun_07_07:50:04_2024
    source          = /home/conda/feedstock_root/build_artifacts/nwchem_1717738148552/work
    nwchem branch   = 7.2.2
    nwchem revision = 64ba0f0
    ga revision     = 5.8.0
    use scalapack   = T
    input           = H2-2.0.nw
    prefix          = pspw_hf_H2.
    data base       = ./pspw_hf_H2.db
    status          = startup
    nproc           =        1
    time left       =     -1s



           Memory information
           ------------------

    heap     =  157286400 doubles =   1200.0 Mbytes
    stack    =  157286397 doubles =   1200.0 Mbytes
    global   =    1310720 doubles =     10.0 Mbytes (distinct from heap & stack)
    total    =  315883517 doubles =   2410.0 Mbytes
    verify   = yes
    hardfail = no 


           Directory information
           ---------------------

  0 permanent = .
  0 scratch   = .




                                NWChem Input Module
                                -------------------


               swnc: e theory=pspw4 xc=hf formula=H2 charge=0 mult=1
               -----------------------------------------------------

 Scaling coordinates for geometry "geometry" by  1.889725989
 (inverse scale =  0.529177249)

 ORDER OF PRIMARY AXIS IS BEING SET TO 4
 D4H symmetry detected

          ------
          auto-z
          ------
     1 autoz failed with cvr_scaling = 1.2 changing to 1.3
     2 autoz failed with cvr_scaling = 1.3 changing to 1.4
     3 autoz failed with cvr_scaling = 1.4 changing to 1.5
     4 autoz failed with cvr_scaling = 1.5 changing to 1.6
     5 autoz failed with cvr_scaling = 1.6 changing to 1.7

 AUTOZ failed to generate good internal coordinates.
 Cartesian coordinates will be used in optimizations.



                             Geometry "geometry" -> ""
                             -------------------------

 Output coordinates in angstroms (scale by  1.889725989 to convert to a.u.)

  No.       Tag          Charge          X              Y              Z
 ---- ---------------- ---------- -------------- -------------- --------------
    1 H                    1.0000     0.00000000     0.00000000    -1.00000000
    2 H                    1.0000     0.00000000     0.00000000     1.00000000

      Atomic Mass 
      ----------- 

      H                  1.007825


 Effective nuclear repulsion energy (a.u.)       0.2645886245

            Nuclear Dipole moment (a.u.) 
            ----------------------------
        X                 Y               Z
 ---------------- ---------------- ----------------
     0.0000000000     0.0000000000     0.0000000000

      Symmetry information
      --------------------

 Group name             D4h       
 Group number             28
 Group order              16
 No. of unique centers     1

      Symmetry unique atoms

     1


            XYZ format geometry
            -------------------
     2
 geometry
 H                     0.00000000     0.00000000    -1.00000000
 H                     0.00000000     0.00000000     1.00000000

          ****************************************************
          *                                                  *
          *               NWPW PSPW Calculation              *
          *                                                  *
          * [ (Grassmann/Stiefel manifold implementation)  ] *
          *                                                  *
          *      [ NorthWest Chemistry implementation ]      *
          *                                                  *
          *            version #5.10   06/12/02              *
          *                                                  *
          *    This code was developed by Eric J. Bylaska,   *
          *    and was based upon algorithms and code        *
          *    developed by the group of Prof. John H. Weare *
          *                                                  *
          ****************************************************
     >>>  JOB STARTED       AT Wed Apr 30 10:27:40 2025  <<<
          ================ input data ========================

 input psi filename:./pspw_hf_H2.movecs

 number of processors used:         1
 processor grid           :   1 x   1
 parallel mapping         :2d-hilbert
 parallel mapping         :  balanced
 number of threads        :         1
 parallel io              :       off

 options:
      boundary conditions  = aperiodic   (version4)
      electron spin        = restricted
      exchange-correlation = Hartree-Fock
      - HFX relaxed
      - HFX restricted orbitals :    1
      - HFX free-space coulomb solver


 elements involved in the cluster:
      1: H   valence charge:  1.0000  lmax=  1
             comment    : Parameterized (Chem.Phys.Lett., vol 322, page 447) Hamman psp
             pseudpotential type            :   0
             highest angular component      :   1
             local potential used           :   1
             number of non-local projections:   1
             aperiodic cutoff radius        :  1.000
             cutoff =   0.800   0.800


 total charge:   0.000

 atomic composition:
     H   :    2

 number of electrons: spin up=     1 (   1 per task)  down=     1 (   1 per task) (Fourier space)
 number of orbitals : spin up=     1 (   1 per task)  down=     1 (   1 per task) (Fourier space)

 supercell:
      cell_name:  cell_default                                      
      lattice:    a1=<  15.000   0.000   0.000 >
                  a2=<   0.000  15.000   0.000 >
                  a3=<   0.000   0.000  15.000 >
      reciprocal: b1=<   0.419   0.000   0.000 >
                  b2=<   0.000   0.419   0.000 >
                  b3=<   0.000   0.000   0.419 >
      lattice:    a=      15.000 b=     15.000 c=      15.000
                  alpha=  90.000 beta=  90.000 gamma=  90.000
                  omega=      3375.0

      density cutoff=100.000  fft= 70x 70x 70(    80618 waves    80618 per task)
      wavefnc cutoff= 50.000  fft= 70x 70x 70(    28526 waves    28526 per task)

 technical parameters:
      time step=      5.80     fictitious mass=  400000.0
      tolerance=0.100E-08 (energy)   0.100E-08 (density)
      maximum iterations =      1000 (   10 inner    100 outer )





== Energy Calculation ==


          ============ Grassmann lmbfgs iteration ============
     >>>  ITERATION STARTED AT Wed Apr 30 10:27:45 2025  <<<
    iter.           Energy         DeltaE       DeltaRho 
    ------------------------------------------------------
      10   -0.9222995116E+00   -0.14169E-02    0.12124E-01
     -  10 steepest descent iterations performed
      20   -0.9258003896E+00   -0.60044E-04    0.41744E-04
      30   -0.9259292879E+00   -0.32586E-05    0.22546E-05
      40   -0.9259371830E+00   -0.11391E-06    0.10909E-06
      50   -0.9259375661E+00   -0.59916E-08    0.61514E-09
      60   -0.9259375833E+00   -0.73452E-09    0.51692E-10
  *** tolerance ok. iteration terminated
     >>>  ITERATION ENDED   AT Wed Apr 30 10:28:38 2025  <<<


==  Summary Of Results  ==

 number of electrons: spin up=    1.00000  down=    1.00000 (real space)

 total     energy    :  -0.9259375833E+00 (   -0.46297E+00/ion)
 total orbital energy:  -0.7793360348E+00 (   -0.77934E+00/electron)
 hartree   energy    :   0.8223803459E+00 (    0.82238E+00/electron)
 exc-corr  energy    :   0.0000000000E+00 (    0.00000E+00/electron)
 HF exchange energy  :  -0.4111901730E+00 (   -0.41119E+00/electron)
 ion-ion   energy    :   0.2645886245E+00 (    0.13229E+00/ion)

 kinetic (planewave) :   0.6284987493E+00 (    0.62850E+00/electron)
 V_local (planewave) :  -0.2076685384E+01 (   -0.20767E+01/electron)
 V_nl    (planewave) :  -0.1535297457E+00 (   -0.15353E+00/electron)
 V_Coul  (planewave) :   0.1644760692E+01 (    0.16448E+01/electron)
 V_xc.   (planewave) :   0.0000000000E+00 (    0.00000E+00/electron)
 K.S. HFX energy     :  -0.8223803459E+00 (   -0.82238E+00/electron)
 Virial Coefficient  :  -0.9315124952E+00

 orbital energies:
    -0.3896680E+00 ( -10.603eV)


== Virtual Orbital Calculation ==


 input epsi filename:./pspw_hf_H2.emovecs
     orbital   1 current e=-0.446E-01 (error=0.840E-09) iterations  66(  48 preconditioned, Ep,Sp= 20.0  200.0)
     orbital   2 current e= 0.121E-01 (error=0.894E-09) iterations  65(  38 preconditioned, Ep,Sp= 20.0  200.0)
     orbital   3 current e= 0.830E-01 (error=0.790E-09) iterations  54(  29 preconditioned, Ep,Sp= 20.0  200.0)
     orbital   4 current e= 0.830E-01 (error=0.790E-09) iterations  54(  29 preconditioned, Ep,Sp= 20.0  200.0)
     orbital   5 current e= 0.849E-01 (error=0.841E-09) iterations  73(  35 preconditioned, Ep,Sp= 20.0  200.0)
     orbital   6 current e= 0.882E-01 (error=0.756E-09) iterations  39(   4 preconditioned, Ep,Sp= 20.0  200.0)
     orbital   7 current e= 0.106E+00 (error=0.901E-09) iterations  65(  42 preconditioned, Ep,Sp= 20.0  200.0)
     orbital   8 current e= 0.123E+00 (error=0.866E-09) iterations  89(  53 preconditioned, Ep,Sp= 20.0  200.0)
     orbital   9 current e= 0.167E+00 (error=0.797E-09) iterations  97(  72 preconditioned, Ep,Sp= 20.0  200.0)
     orbital  10 current e= 0.167E+00 (error=0.797E-09) iterations  97(  72 preconditioned, Ep,Sp= 20.0  200.0)

 virtual orbital energies:
     0.1672435E+00 (   4.551eV)
     0.1672435E+00 (   4.551eV)
     0.1230349E+00 (   3.348eV)
     0.1061341E+00 (   2.888eV)
     0.8817988E-01 (   2.400eV)
     0.8486948E-01 (   2.309eV)
     0.8303097E-01 (   2.259eV)
     0.8303097E-01 (   2.259eV)
     0.1214256E-01 (   0.330eV)
    -0.4458129E-01 (  -1.213eV)


 == Generating One-Electron and Two-Electron Integrals ==

 begin_one_electron_integrals
    1    1        -0.8008581904
    2    1        -0.0000140306
    3    1        -0.0331191825
    4    1         0.0000000060
    5    1         0.0000108315
    6    1         0.0068042185
    7    1        -0.0000000003
    8    1         0.0000012214
    9    1        -0.0356285582
   10    1         0.0000053615
   11    1        -0.0000000254
    2    2        -0.6468944742
    3    2         0.0001447744
    4    2        -0.0000000001
    5    2        -0.0000001200
    6    2        -0.0000855848
    7    2        -0.0000000034
    8    2         0.0753198144
    9    2         0.0000237470
   10    2        -0.0000000124
   11    2        -0.0000000010
    3    3        -0.2544226962
    4    3         0.0000000008
    5    3         0.0000015665
    6    3         0.0036650614
    7    3        -0.0000000004
    8    3        -0.0000270772
    9    3        -0.0577445503
   10    3         0.0000014811
   11    3         0.0000000062
    4    4        -0.2345741982
    5    4         0.0000000000
    6    4         0.0000000239
    7    4        -0.0000428710
    8    4         0.0000000000
    9    4         0.0000000040
   10    4         0.0006558216
   11    4         0.0833293941
    5    5        -0.2345741774
    6    5         0.0000423229
    7    5         0.0000000246
    8    5         0.0000000381
    9    5         0.0000079587
   10    5        -0.0833293629
   11    5         0.0006558214
    6    6        -0.2019136190
    7    6         0.0000000003
    8    6         0.0000209348
    9    6         0.0030144579
   10    6         0.0000999503
   11    6        -0.0000008438
    7    7        -0.1851814520
    8    7         0.0000000007
    9    7         0.0000000003
   10    7         0.0000005937
   11    7         0.0000703208
    8    8        -0.1751769336
    9    8        -0.0000109156
   10    8         0.0000000118
   11    8         0.0000000009
    9    9        -0.1450514266
   10    9         0.0000056359
   11    9        -0.0000000073
   10   10        -0.1633563896
   11   10         0.0000000000
   11   11        -0.1633563898
 end_one_electron_integrals

 begin_two_electron_integrals
    1    1    1    1        0.4111901730
    1    1    2    1        0.0000140320
    1    1    3    1        0.0331234368
    1    1    4    1       -0.0000000060
    1    1    5    1       -0.0000108173
    1    1    6    1       -0.0067917937
    1    1    7    1        0.0000000003
    1    1    8    1       -0.0000012402
    1    1    9    1        0.0356313247
    1    1   10    1       -0.0000053653
    1    1   11    1        0.0000000254
    1    1    2    2        0.3677017594
    1    1    3    2       -0.0000846635
    1    1    4    2        0.0000000000
    1    1    5    2        0.0000000536
    1    1    6    2        0.0000384098
    1    1    7    2        0.0000000025
    1    1    8    2       -0.0536145256
    1    1    9    2       -0.0000102111
    1    1   10    2        0.0000000038
    1    1   11    2        0.0000000008
    1    1    3    3        0.1355700870
    1    1    4    3        0.0000000005
    1    1    5    3        0.0000007256
    1    1    6    3       -0.0023804066
    1    1    7    3        0.0000000002
    1    1    8    3        0.0000185748
    1    1    9    3        0.0314912674
    1    1   10    3        0.0000014064
    1    1   11    3       -0.0000000227
    1    1    4    4        0.1613799716
    1    1    5    4       -0.0000000000
    1    1    6    4       -0.0000000124
    1    1    7    4        0.0000205275
    1    1    8    4       -0.0000000000
    1    1    9    4       -0.0000000019
    1    1   10    4       -0.0003535932
    1    1   11    4       -0.0449279217
    1    1    5    5        0.1613799591
    1    1    6    5       -0.0000219269
    1    1    7    5       -0.0000000118
    1    1    8    5       -0.0000000197
    1    1    9    5       -0.0000039534
    1    1   10    5        0.0449279027
    1    1   11    5       -0.0003535931
    1    1    6    6        0.1442491140
    1    1    7    6       -0.0000000001
    1    1    8    6       -0.0000116507
    1    1    9    6       -0.0021551508
    1    1   10    6       -0.0000523613
    1    1   11    6        0.0000004424
    1    1    7    7        0.1368964016
    1    1    8    7       -0.0000000008
    1    1    9    7       -0.0000000000
    1    1   10    7       -0.0000002940
    1    1   11    7       -0.0000348199
    1    1    8    8        0.1448749073
    1    1    9    8        0.0000059444
    1    1   10    8       -0.0000000071
    1    1   11    8       -0.0000000005
    1    1    9    9        0.1371081839
    1    1   10    9       -0.0000020648
    1    1   11    9       -0.0000000047
    1    1   10   10        0.1696145599
    1    1   11   10       -0.0000000000
    1    1   11   11        0.1696145604
    2    1    2    1        0.1330903301
    2    1    3    1       -0.0000295679
    2    1    4    1       -0.0000000000
    2    1    5    1       -0.0000000127
    2    1    6    1       -0.0000086634
    2    1    7    1        0.0000000015
    2    1    8    1       -0.0319098344
    2    1    9    1        0.0000033303
    2    1   10    1       -0.0000000047
    2    1   11    1        0.0000000005
    2    1    2    2        0.0000133980
    2    1    3    2        0.0086157906
    2    1    4    2        0.0000000099
    2    1    5    2        0.0000174184
    2    1    6    2        0.0126424824
    2    1    7    2       -0.0000000001
    2    1    8    2       -0.0000131740
    2    1    9    2        0.0094598568
    2    1   10    2        0.0000033660
    2    1   11    2       -0.0000000340
    2    1    3    3       -0.0003372369
    2    1    4    3        0.0000000003
    2    1    5    3        0.0000005492
    2    1    6    3        0.0003888328
    2    1    7    3        0.0000000008
    2    1    8    3       -0.0187385810
    2    1    9    3        0.0000403555
    2    1   10    3        0.0000000212
    2    1   11    3        0.0000000000
    2    1    4    4       -0.0002521016
    2    1    5    4       -0.0000000000
    2    1    6    4       -0.0000000003
    2    1    7    4       -0.0000000330
    2    1    8    4        0.0000000007
    2    1    9    4        0.0000000001
    2    1   10    4       -0.0000012505
    2    1   11    4       -0.0001589399
    2    1    5    5       -0.0002521024
    2    1    6    5       -0.0000004861
    2    1    7    5        0.0000000000
    2    1    8    5        0.0000023709
    2    1    9    5        0.0000002398
    2    1   10    5        0.0001589392
    2    1   11    5       -0.0000012505
    2    1    6    6       -0.0005944819
    2    1    7    6       -0.0000000005
    2    1    8    6        0.0016051167
    2    1    9    6        0.0001615427
    2    1   10    6       -0.0000003333
    2    1   11    6        0.0000000027
    2    1    7    7       -0.0002398229
    2    1    8    7       -0.0000000001
    2    1    9    7        0.0000000006
    2    1   10    7       -0.0000000002
    2    1   11    7       -0.0000000270
    2    1    8    8        0.0000004265
    2    1    9    8       -0.0084954813
    2    1   10    8       -0.0000002346
    2    1   11    8        0.0000000062
    2    1    9    9       -0.0003749806
    2    1   10    9        0.0000000930
    2    1   11    9       -0.0000000005
    2    1   10   10       -0.0002442105
    2    1   11   10       -0.0000000000
    2    1   11   11       -0.0002442104
    3    1    3    1        0.0045749136
    3    1    4    1        0.0000000018
    3    1    5    1        0.0000030367
    3    1    6    1       -0.0010857912
    3    1    7    1        0.0000000000
    3    1    8    1        0.0000102447
    3    1    9    1        0.0052403008
    3    1   10    1        0.0000042926
    3    1   11    1       -0.0000000393
    3    1    2    2        0.0262316603
    3    1    3    2       -0.0000181726
    3    1    4    2       -0.0000000000
    3    1    5    2       -0.0000000048
    3    1    6    2        0.0000086986
    3    1    7    2        0.0000000003
    3    1    8    2       -0.0067189287
    3    1    9    2       -0.0000102891
    3    1   10    2       -0.0000000027
    3    1   11    2        0.0000000001
    3    1    3    3        0.0012875610
    3    1    4    3       -0.0000000091
    3    1    5    3       -0.0000158934
    3    1    6    3        0.0000097258
    3    1    7    3        0.0000000000
    3    1    8    3       -0.0000096635
    3    1    9    3        0.0015942260
    3    1   10    3        0.0000003481
    3    1   11    3       -0.0000000039
    3    1    4    4        0.0024231486
    3    1    5    4       -0.0000000000
    3    1    6    4       -0.0000000033
    3    1    7    4        0.0000091673
    3    1    8    4       -0.0000000000
    3    1    9    4       -0.0000000022
    3    1   10    4       -0.0000227759
    3    1   11    4       -0.0028939492
    3    1    5    5        0.0024231177
    3    1    6    5       -0.0000058435
    3    1    7    5       -0.0000000053
    3    1    8    5       -0.0000000312
    3    1    9    5       -0.0000039332
    3    1   10    5        0.0028939656
    3    1   11    5       -0.0000227760
    3    1    6    6        0.0010730454
    3    1    7    6       -0.0000000000
    3    1    8    6        0.0000028681
    3    1    9    6       -0.0000534075
    3    1   10    6       -0.0000068629
    3    1   11    6        0.0000000580
    3    1    7    7        0.0007641665
    3    1    8    7       -0.0000000001
    3    1    9    7        0.0000000000
    3    1   10    7       -0.0000001088
    3    1   11    7       -0.0000128829
    3    1    8    8        0.0024284102
    3    1    9    8        0.0000043427
    3    1   10    8        0.0000000122
    3    1   11    8       -0.0000000001
    3    1    9    9        0.0020157762
    3    1   10    9       -0.0000122416
    3    1   11    9        0.0000001020
    3    1   10   10        0.0040248380
    3    1   11   10        0.0000000001
    3    1   11   11        0.0040248523
    4    1    4    1        0.0051547731
    4    1    5    1       -0.0000000000
    4    1    6    1       -0.0000000008
    4    1    7    1       -0.0000017503
    4    1    8    1       -0.0000000000
    4    1    9    1        0.0000000001
    4    1   10    1       -0.0000514075
    4    1   11    1       -0.0065318867
    4    1    2    2       -0.0000000021
    4    1    3    2       -0.0000000000
    4    1    4    2       -0.0000043584
    4    1    5    2        0.0000000000
    4    1    6    2       -0.0000000000
    4    1    7    2        0.0000000517
    4    1    8    2       -0.0000000082
    4    1    9    2        0.0000000000
    4    1   10    2        0.0000000056
    4    1   11    2        0.0000007039
    4    1    3    3       -0.0000000896
    4    1    4    3       -0.0060873212
    4    1    5    3       -0.0000000000
    4    1    6    3       -0.0000000446
    4    1    7    3        0.0001508772
    4    1    8    3       -0.0000000000
    4    1    9    3        0.0000000233
    4    1   10    3        0.0000057042
    4    1   11    3        0.0007247679
    4    1    4    4        0.0000000224
    4    1    5    4        0.0000473295
    4    1    6    4       -0.0013919405
    4    1    7    4        0.0000031946
    4    1    8    4       -0.0000046559
    4    1    9    4       -0.0031882793
    4    1   10    4       -0.0000720349
    4    1   11    4        0.0000006162
    4    1    5    5       -0.0000000894
    4    1    6    5        0.0000000000
    4    1    7    5        0.0027904009
    4    1    8    5        0.0000000001
    4    1    9    5        0.0000000000
    4    1   10    5        0.0000006568
    4    1   11    5        0.0000687297
    4    1    6    6       -0.0000000753
    4    1    7    6        0.0000575515
    4    1    8    6       -0.0000000000
    4    1    9    6       -0.0000000135
    4    1   10    6        0.0000144141
    4    1   11    6        0.0018320190
    4    1    7    7       -0.0000001261
    4    1    8    7        0.0000001201
    4    1    9    7        0.0000407465
    4    1   10    7        0.0045968238
    4    1   11    7       -0.0000414433
    4    1    8    8       -0.0000001052
    4    1    9    8        0.0000000001
    4    1   10    8       -0.0000000190
    4    1   11    8       -0.0000024278
    4    1    9    9       -0.0000001028
    4    1   10    9        0.0000366143
    4    1   11    9        0.0046522629
    4    1   10   10       -0.0000016108
    4    1   11   10       -0.0000920132
    4    1   11   11        0.0000014941
    5    1    5    1        0.0051547685
    5    1    6    1       -0.0000014265
    5    1    7    1        0.0000000010
    5    1    8    1       -0.0000000025
    5    1    9    1        0.0000001212
    5    1   10    1        0.0065318799
    5    1   11    1       -0.0000514075
    5    1    2    2       -0.0000038488
    5    1    3    2       -0.0000000320
    5    1    4    2        0.0000000000
    5    1    5    2       -0.0000043584
    5    1    6    2       -0.0000000326
    5    1    7    2       -0.0000000000
    5    1    8    2       -0.0000140266
    5    1    9    2        0.0000000314
    5    1   10    2       -0.0000007039
    5    1   11    2        0.0000000056
    5    1    3    3       -0.0001565006
    5    1    4    3       -0.0000000000
    5    1    5    3       -0.0060873433
    5    1    6    3       -0.0000778524
    5    1    7    3       -0.0000000864
    5    1    8    3       -0.0000000817
    5    1    9    3        0.0000406896
    5    1   10    3       -0.0007246643
    5    1   11    3        0.0000057032
    5    1    4    4       -0.0000556371
    5    1    5    4       -0.0000000305
    5    1    6    4        0.0000000000
    5    1    7    4        0.0027903781
    5    1    8    4        0.0000000001
    5    1    9    4        0.0000000000
    5    1   10    4       -0.0000004070
    5    1   11    4       -0.0000572564
    5    1    5    5       -0.0000615429
    5    1    6    5       -0.0013919592
    5    1    7    5       -0.0000031946
    5    1    8    5       -0.0000046560
    5    1    9    5       -0.0031882181
    5    1   10    5        0.0000614709
    5    1   11    5       -0.0000005241
    5    1    6    6       -0.0001314047
    5    1    7    6       -0.0000000329
    5    1    8    6       -0.0000000361
    5    1    9    6       -0.0000234966
    5    1   10    6       -0.0018320708
    5    1   11    6        0.0000144145
    5    1    7    7       -0.0002203870
    5    1    8    7       -0.0000000001
    5    1    9    7       -0.0000000233
    5    1   10    7       -0.0000414446
    5    1   11    7       -0.0045969905
    5    1    8    8       -0.0001832665
    5    1    9    8        0.0000000919
    5    1   10    8        0.0000024280
    5    1   11    8       -0.0000000192
    5    1    9    9       -0.0001794850
    5    1   10    9       -0.0046523353
    5    1   11    9        0.0000366149
    5    1   10   10       -0.0000994846
    5    1   11   10        0.0000000668
    5    1   11   11       -0.0000980289
    6    1    6    1        0.0017151280
    6    1    7    1       -0.0000000000
    6    1    8    1       -0.0000031133
    6    1    9    1       -0.0012768726
    6    1   10    1       -0.0000047720
    6    1   11    1        0.0000000409
    6    1    2    2       -0.0011081843
    6    1    3    2        0.0000120016
    6    1    4    2       -0.0000000000
    6    1    5    2       -0.0000000113
    6    1    6    2       -0.0000153647
    6    1    7    2       -0.0000000001
    6    1    8    2        0.0005808751
    6    1    9    2        0.0000108705
    6    1   10    2        0.0000000003
    6    1   11    2       -0.0000000000
    6    1    3    3       -0.0003992342
    6    1    4    3       -0.0000000033
    6    1    5    3       -0.0000057072
    6    1    6    3       -0.0022958403
    6    1    7    3        0.0000000000
    6    1    8    3        0.0000273169
    6    1    9    3       -0.0003780633
    6    1   10    3        0.0000003772
    6    1   11    3       -0.0000000030
    6    1    4    4       -0.0011006770
    6    1    5    4       -0.0000000000
    6    1    6    4       -0.0000000000
    6    1    7    4        0.0000012690
    6    1    8    4        0.0000000000
    6    1    9    4       -0.0000000010
    6    1   10    4        0.0000119885
    6    1   11    4        0.0015234996
    6    1    5    5       -0.0011007071
    6    1    6    5       -0.0000000032
    6    1    7    5       -0.0000000007
    6    1    8    5        0.0000000178
    6    1    9    5       -0.0000017354
    6    1   10    5       -0.0015234856
    6    1   11    5        0.0000119883
    6    1    6    6        0.0007458145
    6    1    7    6       -0.0000000000
    6    1    8    6       -0.0000078948
    6    1    9    6       -0.0019866863
    6    1   10    6        0.0000028694
    6    1   11    6       -0.0000000236
    6    1    7    7       -0.0010470825
    6    1    8    7       -0.0000000000
    6    1    9    7        0.0000000000
    6    1   10    7       -0.0000000063
    6    1   11    7       -0.0000007477
    6    1    8    8       -0.0009688340
    6    1    9    8       -0.0000010571
    6    1   10    8       -0.0000000061
    6    1   11    8        0.0000000001
    6    1    9    9       -0.0005804055
    6    1   10    9       -0.0000024805
    6    1   11    9        0.0000000213
    6    1   10   10       -0.0023030640
    6    1   11   10        0.0000000001
    6    1   11   11       -0.0023030530
    7    1    7    1        0.0004314717
    7    1    8    1       -0.0000000004
    7    1    9    1        0.0000000000
    7    1   10    1        0.0000000056
    7    1   11    1        0.0000006678
    7    1    2    2        0.0000000001
    7    1    3    2        0.0000000002
    7    1    4    2        0.0000000182
    7    1    5    2       -0.0000000000
    7    1    6    2        0.0000000000
    7    1    7    2       -0.0000009910
    7    1    8    2       -0.0000000000
    7    1    9    2        0.0000000002
    7    1   10    2       -0.0000000000
    7    1   11    2       -0.0000000055
    7    1    3    3        0.0000000000
    7    1    4    3        0.0000167673
    7    1    5    3       -0.0000000096
    7    1    6    3        0.0000000000
    7    1    7    3       -0.0015683333
    7    1    8    3       -0.0000000001
    7    1    9    3        0.0000000000
    7    1   10    3       -0.0000000040
    7    1   11    3       -0.0000004685
    7    1    4    4        0.0000006185
    7    1    5    4        0.0005402506
    7    1    6    4        0.0000035418
    7    1    7    4       -0.0000000051
    7    1    8    4        0.0000000382
    7    1    9    4        0.0000042170
    7    1   10    4        0.0013751024
    7    1   11    4       -0.0000123974
    7    1    5    5       -0.0000006185
    7    1    6    5       -0.0000000020
    7    1    7    5       -0.0000088660
    7    1    8    5       -0.0000000000
    7    1    9    5       -0.0000000024
    7    1   10    5       -0.0000123973
    7    1   11    5       -0.0013750975
    7    1    6    6       -0.0000000000
    7    1    7    6       -0.0004490423
    7    1    8    6       -0.0000000000
    7    1    9    6        0.0000000000
    7    1   10    6       -0.0000000152
    7    1   11    6       -0.0000018030
    7    1    7    7        0.0000000000
    7    1    8    7       -0.0000020524
    7    1    9    7       -0.0011772440
    7    1   10    7       -0.0000092728
    7    1   11    7        0.0000000784
    7    1    8    8        0.0000000000
    7    1    9    8       -0.0000000001
    7    1   10    8        0.0000000001
    7    1   11    8        0.0000000112
    7    1    9    9        0.0000000000
    7    1   10    9       -0.0000000999
    7    1   11    9       -0.0000118286
    7    1   10   10       -0.0000171117
    7    1   11   10       -0.0010133389
    7    1   11   11        0.0000171118
    8    1    8    1        0.0084387613
    8    1    9    1        0.0000015973
    8    1   10    1       -0.0000000024
    8    1   11    1       -0.0000000001
    8    1    2    2       -0.0000037744
    8    1    3    2       -0.0034862873
    8    1    4    2       -0.0000000026
    8    1    5    2       -0.0000044570
    8    1    6    2       -0.0019207374
    8    1    7    2        0.0000000000
    8    1    8    2        0.0000018276
    8    1    9    2       -0.0037835346
    8    1   10    2       -0.0000015031
    8    1   11    2        0.0000000150
    8    1    3    3        0.0000237315
    8    1    4    3       -0.0000000001
    8    1    5    3       -0.0000001209
    8    1    6    3       -0.0000280936
    8    1    7    3       -0.0000000001
    8    1    8    3        0.0019048466
    8    1    9    3        0.0000047588
    8    1   10    3        0.0000000591
    8    1   11    3       -0.0000000005
    8    1    4    4        0.0000168248
    8    1    5    4        0.0000000000
    8    1    6    4        0.0000000001
    8    1    7    4        0.0000000361
    8    1    8    4       -0.0000000034
    8    1    9    4        0.0000000000
    8    1   10    4        0.0000000625
    8    1   11    4        0.0000079443
    8    1    5    5        0.0000168250
    8    1    6    5        0.0000001232
    8    1    7    5       -0.0000000000
    8    1    8    5       -0.0000060027
    8    1    9    5        0.0000000184
    8    1   10    5       -0.0000079441
    8    1   11    5        0.0000000625
    8    1    6    6        0.0000470237
    8    1    7    6        0.0000000001
    8    1    8    6       -0.0001966553
    8    1    9    6       -0.0000176666
    8    1   10    6       -0.0000000107
    8    1   11    6        0.0000000001
    8    1    7    7        0.0000138649
    8    1    8    7        0.0000000000
    8    1    9    7       -0.0000000002
    8    1   10    7       -0.0000000001
    8    1   11    7       -0.0000000132
    8    1    8    8       -0.0000001152
    8    1    9    8        0.0018591650
    8    1   10    8        0.0000003906
    8    1   11    8       -0.0000000044
    8    1    9    9        0.0000233287
    8    1   10    9       -0.0000000885
    8    1   11    9        0.0000000007
    8    1   10   10        0.0000124596
    8    1   11   10       -0.0000000000
    8    1   11   11        0.0000124598
    9    1    9    1        0.0061300143
    9    1   10    1        0.0000015097
    9    1   11    1       -0.0000000164
    9    1    2    2        0.0274262970
    9    1    3    2       -0.0000146496
    9    1    4    2        0.0000000000
    9    1    5    2        0.0000000249
    9    1    6    2        0.0000108900
    9    1    7    2        0.0000000004
    9    1    8    2       -0.0074089373
    9    1    9    2       -0.0000072603
    9    1   10    2        0.0000000066
    9    1   11    2        0.0000000001
    9    1    3    3        0.0011139381
    9    1    4    3       -0.0000000029
    9    1    5    3       -0.0000049713
    9    1    6    3        0.0000186528
    9    1    7    3        0.0000000000
    9    1    8    3       -0.0000060092
    9    1    9    3        0.0012499378
    9    1   10    3       -0.0000020466
    9    1   11    3        0.0000000164
    9    1    4    4        0.0018255224
    9    1    5    4        0.0000000000
    9    1    6    4       -0.0000000024
    9    1    7    4        0.0000052495
    9    1    8    4        0.0000000000
    9    1    9    4       -0.0000000019
    9    1   10    4       -0.0000184421
    9    1   11    4       -0.0023433005
    9    1    5    5        0.0018255642
    9    1    6    5       -0.0000042312
    9    1    7    5       -0.0000000030
    9    1    8    5        0.0000000395
    9    1    9    5       -0.0000033972
    9    1   10    5        0.0023432859
    9    1   11    5       -0.0000184420
    9    1    6    6        0.0004275604
    9    1    7    6       -0.0000000000
    9    1    8    6        0.0000019572
    9    1    9    6       -0.0000288911
    9    1   10    6       -0.0000052477
    9    1   11    6        0.0000000443
    9    1    7    7        0.0003031056
    9    1    8    7       -0.0000000001
    9    1    9    7        0.0000000000
    9    1   10    7       -0.0000000584
    9    1   11    7       -0.0000069188
    9    1    8    8        0.0024452473
    9    1    9    8       -0.0000000907
    9    1   10    8       -0.0000000151
    9    1   11    8        0.0000000001
    9    1    9    9        0.0017815073
    9    1   10    9       -0.0000042498
    9    1   11    9        0.0000000348
    9    1   10   10        0.0034815105
    9    1   11   10       -0.0000000002
    9    1   11   11        0.0034814892
   10    1   10    1        0.0086291972
   10    1   11    1       -0.0000000000
   10    1    2    2       -0.0000039060
   10    1    3    2       -0.0000000306
   10    1    4    2        0.0000000086
   10    1    5    2       -0.0000010844
   10    1    6    2       -0.0000000192
   10    1    7    2       -0.0000000003
   10    1    8    2       -0.0000146685
   10    1    9    2        0.0000000113
   10    1   10    2        0.0000004821
   10    1   11    2        0.0000000000
   10    1    3    3       -0.0001563535
   10    1    4    3        0.0000464377
   10    1    5    3       -0.0059002511
   10    1    6    3       -0.0000785242
   10    1    7    3       -0.0000013120
   10    1    8    3        0.0000000762
   10    1    9    3        0.0000308479
   10    1   10    3       -0.0013557064
   10    1   11    3        0.0000000009
   10    1    4    4       -0.0000649298
   10    1    5    4       -0.0000003881
   10    1    6    4        0.0000148599
   10    1    7    4        0.0034908309
   10    1    8    4       -0.0000000200
   10    1    9    4        0.0000288674
   10    1   10    4        0.0000001188
   10    1   11    4       -0.0000594059
   10    1    5    5       -0.0000535958
   10    1    6    5       -0.0018881238
   10    1    7    5       -0.0000314702
   10    1    8    5        0.0000025517
   10    1    9    5       -0.0036679658
   10    1   10    5        0.0000595566
   10    1   11    5       -0.0000010523
   10    1    6    6       -0.0001331719
   10    1    7    6       -0.0000005343
   10    1    8    6       -0.0000000010
   10    1    9    6       -0.0000262826
   10    1   10    6       -0.0023978648
   10    1   11    6       -0.0000000027
   10    1    7    7       -0.0002292285
   10    1    8    7        0.0000000004
   10    1    9    7       -0.0000004133
   10    1   10    7       -0.0000861886
   10    1   11    7       -0.0051038650
   10    1    8    8       -0.0001823905
   10    1    9    8       -0.0000000366
   10    1   10    8       -0.0000001881
   10    1   11    8       -0.0000000001
   10    1    9    9       -0.0001739915
   10    1   10    9       -0.0049928380
   10    1   11    9       -0.0000000013
   10    1   10   10       -0.0000925059
   10    1   11   10        0.0000007276
   10    1   11   11       -0.0000964629
   11    1   11    1        0.0086291968
   11    1    2    2        0.0000000180
   11    1    3    2        0.0000000003
   11    1    4    2        0.0000010844
   11    1    5    2        0.0000000085
   11    1    6    2        0.0000000002
   11    1    7    2       -0.0000000369
   11    1    8    2        0.0000001282
   11    1    9    2       -0.0000000000
   11    1   10    2       -0.0000000000
   11    1   11    2        0.0000004823
   11    1    3    3        0.0000013195
   11    1    4    3        0.0059003908
   11    1    5    3        0.0000464365
   11    1    6    3        0.0000006630
   11    1    7    3       -0.0001553962
   11    1    8    3       -0.0000000007
   11    1    9    3       -0.0000002611
   11    1   10    3        0.0000000010
   11    1   11    3       -0.0013555956
   11    1    4    4        0.0000004940
   11    1    5    4       -0.0000467358
   11    1    6    4        0.0018882168
   11    1    7    4       -0.0000314708
   11    1    8    4       -0.0000025514
   11    1    9    4        0.0036679200
   11    1   10    4        0.0000694390
   11    1   11    4       -0.0000001252
   11    1    5    5        0.0000005053
   11    1    6    5        0.0000148590
   11    1    7    5       -0.0034907504
   11    1    8    5       -0.0000000201
   11    1    9    5        0.0000288679
   11    1   10    5       -0.0000011288
   11    1   11    5       -0.0000693071
   11    1    6    6        0.0000011243
   11    1    7    6       -0.0000632958
   11    1    8    6        0.0000000000
   11    1    9    6        0.0000002220
   11    1   10    6        0.0000000051
   11    1   11    6       -0.0023977179
   11    1    7    7        0.0000019352
   11    1    8    7        0.0000000527
   11    1    9    7       -0.0000489626
   11    1   10    7       -0.0051038246
   11    1   11    7        0.0000861885
   11    1    8    8        0.0000015389
   11    1    9    8        0.0000000003
   11    1   10    8       -0.0000000001
   11    1   11    8       -0.0000001873
   11    1    9    9        0.0000014682
   11    1   10    9       -0.0000000008
   11    1   11    9       -0.0049929645
   11    1   10   10        0.0000022969
   11    1   11   10        0.0000898453
   11    1   11   11       -0.0000007000
    2    2    2    2        0.3506364362
    2    2    3    2       -0.0000754614
    2    2    4    2        0.0000000000
    2    2    5    2        0.0000000488
    2    2    6    2        0.0000313666
    2    2    7    2        0.0000000020
    2    2    8    2       -0.0482070306
    2    2    9    2       -0.0000054402
    2    2   10    2        0.0000000040
    2    2   11    2        0.0000000006
    2    2    3    3        0.1339691335
    2    2    4    3        0.0000000008
    2    2    5    3        0.0000012557
    2    2    6    3       -0.0052476199
    2    2    7    3        0.0000000002
    2    2    8    3        0.0000209406
    2    2    9    3        0.0295027006
    2    2   10    3        0.0000005806
    2    2   11    3       -0.0000000145
    2    2    4    4        0.1578497576
    2    2    5    4        0.0000000000
    2    2    6    4       -0.0000000087
    2    2    7    4        0.0000170641
    2    2    8    4       -0.0000000000
    2    2    9    4       -0.0000000037
    2    2   10    4       -0.0003137195
    2    2   11    4       -0.0398611642
    2    2    5    5        0.1578497584
    2    2    6    5       -0.0000154574
    2    2    7    5       -0.0000000098
    2    2    8    5       -0.0000000082
    2    2    9    5       -0.0000070013
    2    2   10    5        0.0398611471
    2    2   11    5       -0.0003137194
    2    2    6    6        0.1447952305
    2    2    7    6       -0.0000000002
    2    2    8    6       -0.0000113721
    2    2    9    6       -0.0049065099
    2    2   10    6       -0.0000438335
    2    2   11    6        0.0000003714
    2    2    7    7        0.1350064204
    2    2    8    7       -0.0000000007
    2    2    9    7       -0.0000000000
    2    2   10    7       -0.0000002415
    2    2   11    7       -0.0000286016
    2    2    8    8        0.1422306361
    2    2    9    8        0.0000059547
    2    2   10    8       -0.0000000084
    2    2   11    8       -0.0000000005
    2    2    9    9        0.1344624110
    2    2   10    9        0.0000008041
    2    2   11    9       -0.0000000273
    2    2   10   10        0.1620307314
    2    2   11   10       -0.0000000000
    2    2   11   11        0.1620307262
    3    2    3    2        0.0033229323
    3    2    4    2        0.0000000027
    3    2    5    2        0.0000045970
    3    2    6    2       -0.0015718769
    3    2    7    2        0.0000000000
    3    2    8    2        0.0000184853
    3    2    9    2        0.0034185498
    3    2   10    2        0.0000032324
    3    2   11    2       -0.0000000292
    3    2    3    3        0.0001098056
    3    2    4    3        0.0000000002
    3    2    5    3        0.0000003236
    3    2    6    3       -0.0001312531
    3    2    7    3       -0.0000000001
    3    2    8    3        0.0043815794
    3    2    9    3       -0.0000386939
    3    2   10    3       -0.0000002945
    3    2   11    3        0.0000000025
    3    2    4    4        0.0000762971
    3    2    5    4        0.0000000000
    3    2    6    4       -0.0000000001
    3    2    7    4       -0.0000001982
    3    2    8    4        0.0000000119
    3    2    9    4       -0.0000000001
    3    2   10    4        0.0000005746
    3    2   11    4        0.0000730310
    3    2    5    5        0.0000762985
    3    2    6    5       -0.0000001465
    3    2    7    5        0.0000000001
    3    2    8    5        0.0000204749
    3    2    9    5       -0.0000002358
    3    2   10    5       -0.0000730326
    3    2   11    5        0.0000005747
    3    2    6    6        0.0001833402
    3    2    7    6        0.0000000001
    3    2    8    6       -0.0004821523
    3    2    9    6       -0.0000399910
    3    2   10    6        0.0000002928
    3    2   11    6       -0.0000000024
    3    2    7    7        0.0000830554
    3    2    8    7        0.0000000000
    3    2    9    7       -0.0000000000
    3    2   10    7        0.0000000015
    3    2   11    7        0.0000001777
    3    2    8    8       -0.0000090457
    3    2    9    8       -0.0004787784
    3    2   10    8       -0.0000030932
    3    2   11    8        0.0000000266
    3    2    9    9        0.0001289420
    3    2   10    9        0.0000004507
    3    2   11    9       -0.0000000038
    3    2   10   10        0.0000805287
    3    2   11   10       -0.0000000000
    3    2   11   11        0.0000805263
    4    2    4    2        0.0041814107
    4    2    5    2       -0.0000000000
    4    2    6    2        0.0000000012
    4    2    7    2       -0.0000051670
    4    2    8    2        0.0000000000
    4    2    9    2       -0.0000000019
    4    2   10    2       -0.0000304615
    4    2   11    2       -0.0038703171
    4    2    3    3        0.0000000007
    4    2    4    3        0.0000594268
    4    2    5    3       -0.0000000000
    4    2    6    3       -0.0000000002
    4    2    7    3       -0.0000013630
    4    2    8    3        0.0000000408
    4    2    9    3       -0.0000000010
    4    2   10    3        0.0000002914
    4    2   11    3        0.0000370365
    4    2    4    4       -0.0000000005
    4    2    5    4       -0.0000004934
    4    2    6    4       -0.0000590595
    4    2    7    4       -0.0000000200
    4    2    8    4        0.0039790017
    4    2    9    4       -0.0000105937
    4    2   10    4        0.0000008852
    4    2   11    4       -0.0000000076
    4    2    5    5        0.0000000007
    4    2    6    5        0.0000000000
    4    2    7    5       -0.0000173594
    4    2    8    5        0.0000000000
    4    2    9    5       -0.0000000000
    4    2   10    5       -0.0000000082
    4    2   11    5       -0.0000008540
    4    2    6    6        0.0000000002
    4    2    7    6        0.0000007871
    4    2    8    6        0.0000000114
    4    2    9    6        0.0000000004
    4    2   10    6       -0.0000001817
    4    2   11    6       -0.0000230914
    4    2    7    7        0.0000000010
    4    2    8    7       -0.0000770501
    4    2    9    7        0.0000008474
    4    2   10    7       -0.0000176178
    4    2   11    7        0.0000001589
    4    2    8    8        0.0000000001
    4    2    9    8       -0.0000000204
    4    2   10    8        0.0000025373
    4    2   11    8        0.0003224816
    4    2    9    9        0.0000000017
    4    2   10    9       -0.0000003395
    4    2   11    9       -0.0000431288
    4    2   10   10        0.0000000301
    4    2   11   10        0.0000017277
    4    2   11   11       -0.0000000283
    5    2    5    2        0.0041814099
    5    2    6    2        0.0000020718
    5    2    7    2        0.0000000030
    5    2    8    2        0.0000000255
    5    2    9    2       -0.0000034687
    5    2   10    2        0.0038703037
    5    2   11    2       -0.0000304614
    5    2    3    3        0.0000012643
    5    2    4    3       -0.0000000000
    5    2    5    3        0.0000594274
    5    2    6    3       -0.0000003755
    5    2    7    3        0.0000000008
    5    2    8    3        0.0000710231
    5    2    9    3       -0.0000016763
    5    2   10    3       -0.0000370404
    5    2   11    3        0.0000002914
    5    2    4    4        0.0000001631
    5    2    5    4        0.0000000003
    5    2    6    4        0.0000000000
    5    2    7    4       -0.0000173595
    5    2    8    4        0.0000000000
    5    2    9    4       -0.0000000000
    5    2   10    4        0.0000000042
    5    2   11    4        0.0000006088
    5    2    5    5        0.0000002191
    5    2    6    5       -0.0000590589
    5    2    7    5        0.0000000197
    5    2    8    5        0.0039790701
    5    2    9    5       -0.0000105960
    5    2   10    5       -0.0000008054
    5    2   11    5        0.0000000069
    5    2    6    6        0.0000004044
    5    2    7    6       -0.0000000005
    5    2    8    6        0.0000200119
    5    2    9    6        0.0000006768
    5    2   10    6        0.0000230934
    5    2   11    6       -0.0000001817
    5    2    7    7        0.0000016792
    5    2    8    7        0.0000000441
    5    2    9    7       -0.0000000005
    5    2   10    7        0.0000001589
    5    2   11    7        0.0000176211
    5    2    8    8        0.0000002643
    5    2    9    8       -0.0000357224
    5    2   10    8       -0.0003226678
    5    2   11    8        0.0000025390
    5    2    9    9        0.0000029565
    5    2   10    9        0.0000431364
    5    2   11    9       -0.0000003395
    5    2   10   10        0.0000016633
    5    2   11   10       -0.0000000032
    5    2   11   11        0.0000014080
    6    2    6    2        0.0044288110
    6    2    7    2       -0.0000000001
    6    2    8    2       -0.0000103915
    6    2    9    2       -0.0018497831
    6    2   10    2       -0.0000029535
    6    2   11    2        0.0000000259
    6    2    3    3       -0.0001515572
    6    2    4    3        0.0000000002
    6    2    5    3        0.0000002868
    6    2    6    3        0.0001944068
    6    2    7    3        0.0000000002
    6    2    8    3       -0.0048722063
    6    2    9    3        0.0000138880
    6    2   10    3        0.0000000163
    6    2   11    3       -0.0000000001
    6    2    4    4       -0.0001142924
    6    2    5    4        0.0000000000
    6    2    6    4       -0.0000000001
    6    2    7    4       -0.0000000076
    6    2    8    4        0.0000000012
    6    2    9    4        0.0000000001
    6    2   10    4       -0.0000005991
    6    2   11    4       -0.0000761493
    6    2    5    5       -0.0001142911
    6    2    6    5       -0.0000001635
    6    2    7    5        0.0000000000
    6    2    8    5        0.0000024154
    6    2    9    5        0.0000001310
    6    2   10    5        0.0000761480
    6    2   11    5       -0.0000005992
    6    2    6    6       -0.0002943367
    6    2    7    6       -0.0000000002
    6    2    8    6        0.0014852763
    6    2    9    6        0.0000903547
    6    2   10    6       -0.0000001669
    6    2   11    6        0.0000000013
    6    2    7    7       -0.0001071636
    6    2    8    7       -0.0000000000
    6    2    9    7        0.0000000001
    6    2   10    7        0.0000000002
    6    2   11    7        0.0000000185
    6    2    8    8        0.0000056919
    6    2    9    8       -0.0009232940
    6    2   10    8       -0.0000010633
    6    2   11    8        0.0000000091
    6    2    9    9       -0.0001664467
    6    2   10    9        0.0000000935
    6    2   11    9       -0.0000000007
    6    2   10   10       -0.0001017500
    6    2   11   10       -0.0000000000
    6    2   11   11       -0.0001017511
    7    2    7    2        0.0006905949
    7    2    8    2       -0.0000000005
    7    2    9    2        0.0000000000
    7    2   10    2        0.0000000123
    7    2   11    2        0.0000014529
    7    2    3    3        0.0000000001
    7    2    4    3       -0.0000005287
    7    2    5    3        0.0000000003
    7    2    6    3        0.0000000001
    7    2    7    3        0.0000225943
    7    2    8    3        0.0000000001
    7    2    9    3        0.0000000001
    7    2   10    3       -0.0000000022
    7    2   11    3       -0.0000002558
    7    2    4    4       -0.0000000028
    7    2    5    4       -0.0000026158
    7    2    6    4        0.0000003352
    7    2    7    4        0.0000000001
    7    2    8    4       -0.0000224903
    7    2    9    4        0.0000001487
    7    2   10    4       -0.0000096129
    7    2   11    4        0.0000000864
    7    2    5    5        0.0000000032
    7    2    6    5       -0.0000000002
    7    2    7    5        0.0000002181
    7    2    8    5        0.0000000129
    7    2    9    5       -0.0000000001
    7    2   10    5        0.0000000869
    7    2   11    5        0.0000096129
    7    2    6    6        0.0000000000
    7    2    7    6       -0.0000192291
    7    2    8    6       -0.0000000000
    7    2    9    6        0.0000000001
    7    2   10    6        0.0000000013
    7    2   11    6        0.0000001527
    7    2    7    7        0.0000000000
    7    2    8    7        0.0020117291
    7    2    9    7       -0.0000023139
    7    2   10    7        0.0000001421
    7    2   11    7       -0.0000000012
    7    2    8    8        0.0000000003
    7    2    9    8        0.0000000000
    7    2   10    8       -0.0000000002
    7    2   11    8       -0.0000000203
    7    2    9    9        0.0000000001
    7    2   10    9        0.0000000036
    7    2   11    9        0.0000004309
    7    2   10   10       -0.0000002233
    7    2   11   10       -0.0000132425
    7    2   11   11        0.0000002239
    8    2    8    2        0.0116812222
    8    2    9    2        0.0000042292
    8    2   10    2        0.0000000042
    8    2   11    2       -0.0000000002
    8    2    3    3       -0.0023926005
    8    2    4    3        0.0000000350
    8    2    5    3        0.0000608058
    8    2    6    3        0.0005235517
    8    2    7    3       -0.0000000000
    8    2    8    3        0.0000044967
    8    2    9    3       -0.0033516609
    8    2   10    3       -0.0000052793
    8    2   11    3        0.0000000463
    8    2    4    4       -0.0049698351
    8    2    5    4        0.0000000001
    8    2    6    4        0.0000000080
    8    2    7    4       -0.0000299204
    8    2    8    4        0.0000000000
    8    2    9    4        0.0000000061
    8    2   10    4        0.0000442160
    8    2   11    4        0.0056181236
    8    2    5    5       -0.0049696069
    8    2    6    5        0.0000139662
    8    2    7    5        0.0000000170
    8    2    8    5        0.0000000705
    8    2    9    5        0.0000105088
    8    2   10    5       -0.0056182371
    8    2   11    5        0.0000442170
    8    2    6    6       -0.0034868059
    8    2    7    6        0.0000000000
    8    2    8    6        0.0000019306
    8    2    9    6        0.0006142043
    8    2   10    6        0.0000158104
    8    2   11    6       -0.0000001338
    8    2    7    7       -0.0015934148
    8    2    8    7        0.0000000002
    8    2    9    7       -0.0000000000
    8    2   10    7        0.0000003459
    8    2   11    7        0.0000409812
    8    2    8    8       -0.0039915480
    8    2    9    8       -0.0000014348
    8    2   10    8       -0.0000000254
    8    2   11    8        0.0000000003
    8    2    9    9       -0.0038052480
    8    2   10    9        0.0000452237
    8    2   11    9       -0.0000003794
    8    2   10   10       -0.0072180662
    8    2   11   10       -0.0000000010
    8    2   11   11       -0.0072181820
    9    2    9    2        0.0039095078
    9    2   10    2       -0.0000003043
    9    2   11    2        0.0000000003
    9    2    3    3        0.0000815623
    9    2    4    3       -0.0000000002
    9    2    5    3       -0.0000003676
    9    2    6    3       -0.0001036657
    9    2    7    3       -0.0000000001
    9    2    8    3        0.0025804355
    9    2    9    3       -0.0000020270
    9    2   10    3        0.0000001839
    9    2   11    3       -0.0000000016
    9    2    4    4        0.0000657390
    9    2    5    4       -0.0000000000
    9    2    6    4        0.0000000001
    9    2    7    4        0.0000000479
    9    2    8    4       -0.0000000035
    9    2    9    4        0.0000000000
    9    2   10    4        0.0000002834
    9    2   11    4        0.0000360148
    9    2    5    5        0.0000657355
    9    2    6    5        0.0000002476
    9    2    7    5       -0.0000000000
    9    2    8    5       -0.0000064146
    9    2    9    5        0.0000000725
    9    2   10    5       -0.0000360110
    9    2   11    5        0.0000002833
    9    2    6    6        0.0001653384
    9    2    7    6        0.0000000001
    9    2    8    6       -0.0006339632
    9    2    9    6       -0.0000496999
    9    2   10    6        0.0000000093
    9    2   11    6       -0.0000000000
    9    2    7    7        0.0000622605
    9    2    8    7       -0.0000000000
    9    2    9    7       -0.0000000000
    9    2   10    7       -0.0000000005
    9    2   11    7       -0.0000000650
    9    2    8    8        0.0000002802
    9    2    9    8        0.0001477595
    9    2   10    8        0.0000061290
    9    2   11    8       -0.0000000513
    9    2    9    9        0.0000864715
    9    2   10    9       -0.0000003137
    9    2   11    9        0.0000000026
    9    2   10   10        0.0000561443
    9    2   11   10        0.0000000000
    9    2   11   11        0.0000561490
   10    2   10    2        0.0043463762
   10    2   11    2       -0.0000000002
   10    2    3    3        0.0000003904
   10    2    4    3       -0.0000001157
   10    2    5    3        0.0000146789
   10    2    6    3       -0.0000002770
   10    2    7    3        0.0000000041
   10    2    8    3        0.0000347504
   10    2    9    3       -0.0000004501
   10    2   10    3       -0.0000045708
   10    2   11    3       -0.0000000001
   10    2    4    4        0.0000003118
   10    2    5    4        0.0000000009
   10    2    6    4        0.0000001766
   10    2    7    4       -0.0000115193
   10    2    8    4       -0.0000135615
   10    2    9    4       -0.0000000199
   10    2   10    4        0.0000000017
   10    2   11    4        0.0000004298
   10    2    5    5       -0.0000001804
   10    2    6    5       -0.0000224312
   10    2    7    5        0.0000001038
   10    2    8    5        0.0017227590
   10    2    9    5        0.0000025389
   10    2   10    5       -0.0000000567
   10    2   11    5        0.0000000026
   10    2    6    6        0.0000001648
   10    2    7    6       -0.0000000032
   10    2    8    6        0.0000073751
   10    2    9    6        0.0000002377
   10    2   10    6        0.0000037067
   10    2   11    6        0.0000000001
   10    2    7    7        0.0000006548
   10    2    8    7        0.0000003636
   10    2    9    7       -0.0000000028
   10    2   10    7       -0.0000000092
   10    2   11    7       -0.0000005495
   10    2    8    8       -0.0000000564
   10    2    9    8       -0.0000043650
   10    2   10    8        0.0006636058
   10    2   11    8       -0.0000000029
   10    2    9    9        0.0000006765
   10    2   10    9        0.0000040617
   10    2   11    9        0.0000000002
   10    2   10   10        0.0000003264
   10    2   11   10       -0.0000000013
   10    2   11   11        0.0000007238
   11    2   11    2        0.0043463545
   11    2    3    3       -0.0000000033
   11    2    4    3       -0.0000146840
   11    2    5    3       -0.0000001156
   11    2    6    3        0.0000000024
   11    2    7    3        0.0000004834
   11    2    8    3       -0.0000002944
   11    2    9    3        0.0000000038
   11    2   10    3       -0.0000000000
   11    2   11    3       -0.0000045798
   11    2    4    4       -0.0000000025
   11    2    5    4        0.0000001422
   11    2    6    4        0.0000224317
   11    2    7    4        0.0000001039
   11    2    8    4       -0.0017229870
   11    2    9    4       -0.0000025317
   11    2   10    4       -0.0000002253
   11    2   11    4       -0.0000000016
   11    2    5    5        0.0000000014
   11    2    6    5        0.0000001766
   11    2    7    5        0.0000115157
   11    2    8    5       -0.0000135594
   11    2    9    5       -0.0000000200
   11    2   10    5        0.0000000031
   11    2   11    5        0.0000002861
   11    2    6    6       -0.0000000015
   11    2    7    6       -0.0000003832
   11    2    8    6       -0.0000000620
   11    2    9    6       -0.0000000020
   11    2   10    6       -0.0000000000
   11    2   11    6        0.0000037080
   11    2    7    7       -0.0000000055
   11    2    8    7        0.0000430726
   11    2    9    7       -0.0000003329
   11    2   10    7       -0.0000005447
   11    2   11    7        0.0000000092
   11    2    8    8        0.0000000005
   11    2    9    8        0.0000000370
   11    2   10    8       -0.0000000022
   11    2   11    8        0.0006633027
   11    2    9    9       -0.0000000057
   11    2   10    9        0.0000000001
   11    2   11    9        0.0000040753
   11    2   10   10       -0.0000000120
   11    2   11   10       -0.0000005502
   11    2   11   11        0.0000000032
    3    3    3    3        0.1164441872
    3    3    4    3        0.0000003824
    3    3    5    3        0.0006680767
    3    3    6    3        0.0001657342
    3    3    7    3        0.0000000001
    3    3    8    3        0.0004738915
    3    3    9    3        0.0077433249
    3    3   10    3       -0.0001061891
    3    3   11    3        0.0000008956
    3    3    4    4        0.1222873819
    3    3    5    4        0.0000000031
    3    3    6    4        0.0000000757
    3    3    7    4       -0.0002543662
    3    3    8    4        0.0000000023
    3    3    9    4        0.0000000372
    3    3   10    4       -0.0000553258
    3    3   11    4       -0.0070296171
    3    3    5    5        0.1222927338
    3    3    6    5        0.0001322714
    3    3    7    5        0.0000001456
    3    3    8    5        0.0000039901
    3    3    9    5        0.0000649419
    3    3   10    5        0.0070273350
    3    3   11    5       -0.0000553052
    3    3    6    6        0.1187311516
    3    3    7    6       -0.0000000000
    3    3    8    6       -0.0000866907
    3    3    9    6        0.0001804490
    3    3   10    6        0.0000820457
    3    3   11    6       -0.0000006924
    3    3    7    7        0.1180451493
    3    3    8    7       -0.0000000001
    3    3    9    7       -0.0000000001
    3    3   10    7        0.0000031540
    3    3   11    7        0.0003735539
    3    3    8    8        0.1181095678
    3    3    9    8       -0.0000783830
    3    3   10    8       -0.0000017102
    3    3   11    8        0.0000000144
    3    3    9    9        0.1125633404
    3    3   10    9        0.0005047980
    3    3   11    9       -0.0000042669
    3    3   10   10        0.1197043833
    3    3   11   10       -0.0000000219
    3    3   11   11        0.1197018004
    4    3    4    3        0.0221936491
    4    3    5    3        0.0000000023
    4    3    6    3        0.0000001785
    4    3    7    3       -0.0005937119
    4    3    8    3        0.0000000021
    4    3    9    3       -0.0000001685
    4    3   10    3        0.0000335425
    4    3   11    3        0.0042623510
    4    3    4    4       -0.0000002205
    4    3    5    4       -0.0002111014
    4    3    6    4        0.0023857500
    4    3    7    4       -0.0000059067
    4    3    8    4        0.0001420343
    4    3    9    4        0.0041726577
    4    3   10    4        0.0003333016
    4    3   11    4       -0.0000028506
    4    3    5    5        0.0000004823
    4    3    6    5        0.0000000016
    4    3    7    5       -0.0051606530
    4    3    8    5       -0.0000000001
    4    3    9    5       -0.0000000018
    4    3   10    5       -0.0000026820
    4    3   11    5       -0.0002720739
    4    3    6    6        0.0000003146
    4    3    7    6       -0.0001844336
    4    3    8    6        0.0000000005
    4    3    9    6        0.0000000295
    4    3   10    6       -0.0000233993
    4    3   11    6       -0.0029749556
    4    3    7    7        0.0000004755
    4    3    8    7       -0.0000039049
    4    3    9    7       -0.0000863491
    4    3   10    7       -0.0129196587
    4    3   11    7        0.0001164831
    4    3    8    8        0.0000004500
    4    3    9    8       -0.0000000019
    4    3   10    8        0.0000005319
    4    3   11    8        0.0000676509
    4    3    9    9        0.0000004859
    4    3   10    9       -0.0001176601
    4    3   11    9       -0.0149504881
    4    3   10   10        0.0000075378
    4    3   11   10        0.0004292224
    4    3   11   11       -0.0000070365
    5    3    5    3        0.0221977613
    5    3    6    3        0.0003117278
    5    3    7    3        0.0000003399
    5    3    8    3        0.0000037534
    5    3    9    3       -0.0002942223
    5    3   10    3       -0.0042682949
    5    3   11    3        0.0000335962
    5    3    4    4        0.0000369860
    5    3    5    4        0.0000003402
    5    3    6    4        0.0000000016
    5    3    7    4       -0.0051580231
    5    3    8    4       -0.0000000001
    5    3    9    4       -0.0000000018
    5    3   10    4        0.0000014013
    5    3   11    4        0.0002115409
    5    3    5    5        0.0004202520
    5    3    6    5        0.0023885392
    5    3    7    5        0.0000059067
    5    3    8    5        0.0001420562
    5    3    9    5        0.0041694095
    5    3   10    5       -0.0003388399
    5    3   11    5        0.0000028938
    5    3    6    6        0.0005495495
    5    3    7    6        0.0000001055
    5    3    8    6        0.0000008131
    5    3    9    6        0.0000515688
    5    3   10    6        0.0029729876
    5    3   11    6       -0.0000233814
    5    3    7    7        0.0008306248
    5    3    8    7        0.0000000022
    5    3    9    7        0.0000000493
    5    3   10    7        0.0001165142
    5    3   11    7        0.0129235634
    5    3    8    8        0.0007841199
    5    3    9    8       -0.0000033330
    5    3   10    8       -0.0000676975
    5    3   11    8        0.0000005330
    5    3    9    9        0.0008484781
    5    3   10    9        0.0149562287
    5    3   11    9       -0.0001177119
    5    3   10   10        0.0005054817
    5    3   11   10       -0.0000014653
    5    3   11   11        0.0003613293
    6    3    6    3        0.0122267641
    6    3    7    3        0.0000000000
    6    3    8    3       -0.0004753192
    6    3    9    3       -0.0000132702
    6    3   10    3       -0.0000307972
    6    3   11    3        0.0000002602
    6    3    4    4        0.0000476369
    6    3    5    4        0.0000000027
    6    3    6    4        0.0000000890
    6    3    7    4       -0.0000963661
    6    3    8    4       -0.0000000012
    6    3    9    4        0.0000000387
    6    3   10    4       -0.0000106980
    6    3   11    4       -0.0013602904
    6    3    5    5        0.0000524119
    6    3    6    5        0.0001554217
    6    3    7    5        0.0000000551
    6    3    8    5       -0.0000020486
    6    3    9    5        0.0000676375
    6    3   10    5        0.0013588501
    6    3   11    5       -0.0000106850
    6    3    6    6       -0.0011183136
    6    3    7    6        0.0000000000
    6    3    8    6        0.0001068963
    6    3    9    6        0.0060735547
    6    3   10    6        0.0000345520
    6    3   11    6       -0.0000002907
    6    3    7    7        0.0007912042
    6    3    8    7        0.0000000000
    6    3    9    7       -0.0000000000
    6    3   10    7        0.0000015908
    6    3   11    7        0.0001884286
    6    3    8    8        0.0035305667
    6    3    9    8        0.0000366313
    6    3   10    8        0.0000005633
    6    3   11    8       -0.0000000047
    6    3    9    9        0.0002203475
    6    3   10    9        0.0002218599
    6    3   11    9       -0.0000018733
    6    3   10   10        0.0007230499
    6    3   11   10       -0.0000000143
    6    3   11   11        0.0007213653
    7    3    7    3        0.0126682858
    7    3    8    3       -0.0000000004
    7    3    9    3        0.0000000000
    7    3   10    3       -0.0000001637
    7    3   11    3       -0.0000193969
    7    3    4    4       -0.0000012285
    7    3    5    4       -0.0010731114
    7    3    6    4       -0.0000975250
    7    3    7    4        0.0000001689
    7    3    8    4       -0.0000035089
    7    3    9    4       -0.0001206589
    7    3   10    4       -0.0073436793
    7    3   11    4        0.0000662090
    7    3    5    5        0.0000012286
    7    3    6    5        0.0000000558
    7    3    7    5        0.0002951520
    7    3    8    5        0.0000000020
    7    3    9    5        0.0000000690
    7    3   10    5        0.0000662077
    7    3   11    5        0.0073435103
    7    3    6    6        0.0000000001
    7    3    7    6        0.0007873201
    7    3    8    6        0.0000000001
    7    3    9    6       -0.0000000000
    7    3   10    6        0.0000008566
    7    3   11    6        0.0001015137
    7    3    7    7        0.0000000002
    7    3    8    7        0.0000861845
    7    3    9    7        0.0058406866
    7    3   10    7        0.0003573246
    7    3   11    7       -0.0000030146
    7    3    8    8        0.0000000000
    7    3    9    8        0.0000000002
    7    3   10    8       -0.0000000082
    7    3   11    8       -0.0000009696
    7    3    9    9       -0.0000000001
    7    3   10    9        0.0000036342
    7    3   11    9        0.0004304525
    7    3   10   10       -0.0000060771
    7    3   11   10       -0.0003597796
    7    3   11   11        0.0000060771
    8    3    8    3        0.0232455904
    8    3    9    3       -0.0002125487
    8    3   10    3       -0.0000037631
    8    3   11    3        0.0000000318
    8    3    4    4        0.0003455406
    8    3    5    4       -0.0000000000
    8    3    6    4       -0.0000000021
    8    3    7    4       -0.0000014433
    8    3    8    4        0.0000001576
    8    3    9    4       -0.0000000017
    8    3   10    4        0.0000021471
    8    3   11    4        0.0002728907
    8    3    5    5        0.0003455629
    8    3    6    5       -0.0000036146
    8    3    7    5        0.0000000008
    8    3    8    5        0.0002736170
    8    3    9    5       -0.0000029573
    8    3   10    5       -0.0002729307
    8    3   11    5        0.0000021478
    8    3    6    6        0.0006431516
    8    3    7    6        0.0000000003
    8    3    8    6        0.0009040755
    8    3    9    6       -0.0000731518
    8    3   10    6        0.0000023948
    8    3   11    6       -0.0000000201
    8    3    7    7        0.0003674723
    8    3    8    7        0.0000000000
    8    3    9    7        0.0000000001
    8    3   10    7        0.0000000084
    8    3   11    7        0.0000009921
    8    3    8    8        0.0000024105
    8    3    9    8       -0.0025469716
    8    3   10    8       -0.0000769248
    8    3   11    8        0.0000006499
    8    3    9    9        0.0006186757
    8    3   10    9        0.0000050636
    8    3   11    9       -0.0000000429
    8    3   10   10        0.0004417626
    8    3   11   10       -0.0000000005
    8    3   11   11        0.0004417083
    9    3    9    3        0.0108862316
    9    3   10    3        0.0001733777
    9    3   11    3       -0.0000014644
    9    3    4    4        0.0134182492
    9    3    5    4       -0.0000000046
    9    3    6    4       -0.0000000083
    9    3    7    4        0.0000346519
    9    3    8    4       -0.0000000033
    9    3    9    4        0.0000000532
    9    3   10    4       -0.0000759197
    9    3   11    4       -0.0096467200
    9    3    5    5        0.0134102622
    9    3    6    5       -0.0000144773
    9    3    7    5       -0.0000000199
    9    3    8    5       -0.0000057539
    9    3    9    5        0.0000926910
    9    3   10    5        0.0096502579
    9    3   11    5       -0.0000759517
    9    3    6    6        0.0133574244
    9    3    7    6       -0.0000000000
    9    3    8    6       -0.0000004881
    9    3    9    6        0.0000709092
    9    3   10    6       -0.0000102945
    9    3   11    6        0.0000000865
    9    3    7    7        0.0124872707
    9    3    8    7        0.0000000001
    9    3    9    7       -0.0000000001
    9    3   10    7       -0.0000009478
    9    3   11    7       -0.0001122570
    9    3    8    8        0.0077730510
    9    3    9    8        0.0001159543
    9    3   10    8        0.0000030003
    9    3   11    8       -0.0000000255
    9    3    9    9        0.0043023529
    9    3   10    9       -0.0002584903
    9    3   11    9        0.0000021758
    9    3   10   10        0.0110145016
    9    3   11   10        0.0000000368
    9    3   11   11        0.0110188592
   10    3   10    3        0.0070752381
   10    3   11    3       -0.0000000685
   10    3    4    4        0.0002330144
   10    3    5    4       -0.0000005852
   10    3    6    4       -0.0000039922
   10    3    7    4       -0.0038484814
   10    3    8    4        0.0000009750
   10    3    9    4       -0.0000334105
   10    3   10    4        0.0000012003
   10    3   11    4        0.0000464532
   10    3    5    5       -0.0002812205
   10    3    6    5        0.0005043741
   10    3    7    5        0.0000346686
   10    3    8    5       -0.0001239836
   10    3    9    5        0.0042501406
   10    3   10    5        0.0001457572
   10    3   11    5       -0.0000013853
   10    3    6    6       -0.0000694475
   10    3    7    6        0.0000001639
   10    3    8    6       -0.0000007788
   10    3    9    6        0.0000452362
   10    3   10    6        0.0003317756
   10    3   11    6       -0.0000000246
   10    3    7    7       -0.0000022121
   10    3    8    7       -0.0000000232
   10    3    9    7        0.0000005849
   10    3   10    7       -0.0000257816
   10    3   11    7       -0.0015290777
   10    3    8    8       -0.0001248822
   10    3    9    8        0.0000035043
   10    3   10    8        0.0000882080
   10    3   11    8       -0.0000000009
   10    3    9    9       -0.0002580552
   10    3   10    9       -0.0033045433
   10    3   11    9        0.0000000725
   10    3   10   10       -0.0001947298
   10    3   11   10        0.0000026330
   10    3   11   11        0.0000250185
   11    3   11    3        0.0070671209
   11    3    4    4       -0.0000020093
   11    3    5    4       -0.0000344412
   11    3    6    4       -0.0005077553
   11    3    7    4        0.0000346957
   11    3    8    4        0.0001239226
   11    3    9    4       -0.0042455214
   11    3   10    4        0.0000858144
   11    3   11    4       -0.0000011227
   11    3    5    5        0.0000024113
   11    3    6    5       -0.0000039617
   11    3    7    5        0.0038450281
   11    3    8    5        0.0000009757
   11    3    9    5       -0.0000334521
   11    3   10    5       -0.0000014095
   11    3   11    5       -0.0000150940
   11    3    6    6        0.0000005854
   11    3    7    6        0.0000194215
   11    3    8    6        0.0000000066
   11    3    9    6       -0.0000003820
   11    3   10    6       -0.0000000210
   11    3   11    6        0.0003290767
   11    3    7    7        0.0000000186
   11    3    8    7       -0.0000027481
   11    3    9    7        0.0000692752
   11    3   10    7       -0.0015241911
   11    3   11    7        0.0000257816
   11    3    8    8        0.0000010534
   11    3    9    8       -0.0000000296
   11    3   10    8       -0.0000000009
   11    3   11    8        0.0000881044
   11    3    9    9        0.0000021748
   11    3   10    9        0.0000000732
   11    3   11    9       -0.0032959133
   11    3   10   10        0.0000031986
   11    3   11   10        0.0000922364
   11    3   11   11       -0.0000017753
    4    4    4    4        0.1469029189
    4    4    5    4       -0.0000131875
    4    4    6    4       -0.0000000827
    4    4    7    4       -0.0002325152
    4    4    8    4       -0.0000000016
    4    4    9    4        0.0000000547
    4    4   10    4       -0.0001078069
    4    4   11    4       -0.0139863694
    4    4    5    5        0.1212087957
    4    4    6    5       -0.0000643035
    4    4    7    5        0.0000002283
    4    4    8    5       -0.0000001484
    4    4    9    5        0.0001334507
    4    4   10    5        0.0155407040
    4    4   11    5       -0.0001245772
    4    4    6    6        0.1268536300
    4    4    7    6        0.0000003617
    4    4    8    6       -0.0000704026
    4    4    9    6        0.0006229794
    4    4   10    6        0.0001078645
    4    4   11    6       -0.0000008751
    4    4    7    7        0.1246092627
    4    4    8    7       -0.0000000048
    4    4    9    7       -0.0000015770
    4    4   10    7       -0.0000004681
    4    4   11    7       -0.0000715256
    4    4    8    8        0.1241784216
    4    4    9    8       -0.0000454117
    4    4   10    8        0.0000015723
    4    4   11    8       -0.0000000141
    4    4    9    9        0.1177195485
    4    4   10    9       -0.0000303591
    4    4   11    9        0.0000004265
    4    4   10   10        0.1267494490
    4    4   11   10        0.0000693894
    4    4   11   11        0.1352519455
    5    4    5    4        0.0013282731
    5    4    6    4       -0.0000401494
    5    4    7    4        0.0000002154
    5    4    8    4       -0.0000013343
    5    4    9    4       -0.0000189843
    5    4   10    4        0.0012025312
    5    4   11    4       -0.0000117316
    5    4    5    5        0.0000131874
    5    4    6    5        0.0000001542
    5    4    7    5        0.0000831664
    5    4    8    5        0.0000000019
    5    4    9    5       -0.0000001050
    5    4   10    5       -0.0000117321
    5    4   11    5       -0.0012026229
    5    4    6    6        0.0000000037
    5    4    7    6        0.0003159260
    5    4    8    6        0.0000000000
    5    4    9    6       -0.0000000025
[...]
    8    5    8    8       -0.0000000081
    8    5    9    8       -0.0001663741
    8    5   10    8       -0.0037851495
    8    5   11    8        0.0000297925
    8    5    9    9        0.0000108856
    8    5   10    9        0.0001466677
    8    5   11    9       -0.0000011543
    8    5   10   10        0.0000065352
    8    5   11   10       -0.0000000302
    8    5   11   11        0.0000033135
    9    5    9    5        0.0061065111
    9    5   10    5        0.0000423133
    9    5   11    5       -0.0000003838
    9    5    6    6        0.0000852163
    9    5    7    6        0.0000000434
    9    5    8    6       -0.0000005330
    9    5    9    6        0.0000538983
    9    5   10    6        0.0011938601
    9    5   11    6       -0.0000093925
    9    5    7    7        0.0001935191
    9    5    8    7       -0.0000000011
    9    5    9    7        0.0000000537
    9    5   10    7        0.0000327546
    9    5   11    7        0.0036328965
    9    5    8    8        0.0000767337
    9    5    9    8        0.0000027985
    9    5   10    8        0.0000597374
    9    5   11    8       -0.0000004701
    9    5    9    9       -0.0000387650
    9    5   10    9        0.0014535570
    9    5   11    9       -0.0000114367
    9    5   10   10       -0.0000486622
    9    5   11   10        0.0000011284
    9    5   11   11        0.0000858774
   10    5   10    5        0.0164267479
   10    5   11    5       -0.0000769463
   10    5    6    6        0.0111449575
   10    5    7    6        0.0000105710
   10    5    8    6        0.0000371661
   10    5    9    6        0.0008908681
   10    5   10    6       -0.0000496086
   10    5   11    6        0.0000008308
   10    5    7    7        0.0105610619
   10    5    8    7        0.0000003284
   10    5    9    7        0.0000339718
   10    5   10    7       -0.0000007390
   10    5   11    7       -0.0002229235
   10    5    8    8        0.0078999126
   10    5    9    8        0.0000696215
   10    5   10    8        0.0000031720
   10    5   11    8       -0.0000000345
   10    5    9    9        0.0071235993
   10    5   10    9       -0.0003211981
   10    5   11    9        0.0000045770
   10    5   10   10        0.0148934317
   10    5   11   10        0.0000206054
   10    5   11   11        0.0159286205
   11    5   11    5        0.0062834108
   11    5    6    6       -0.0000877129
   11    5    7    6        0.0011725583
   11    5    8    6       -0.0000002924
   11    5    9    6       -0.0000070075
   11    5   10    6        0.0000007813
   11    5   11    6        0.0000467572
   11    5    7    7       -0.0000831169
   11    5    8    7        0.0000364270
   11    5    9    7        0.0037680540
   11    5   10    7        0.0001221481
   11    5   11    7        0.0000007981
   11    5    8    8       -0.0000621700
   11    5    9    8       -0.0000005479
   11    5   10    8       -0.0000000345
   11    5   11    8       -0.0000008136
   11    5    9    9       -0.0000560599
   11    5   10    9        0.0000043873
   11    5   11    9        0.0002049995
   11    5   10   10       -0.0000944005
   11    5   11   10        0.0013157204
   11    5   11   11       -0.0001481737
    6    6    6    6        0.1298203026
    6    6    7    6       -0.0000000000
    6    6    8    6       -0.0001603199
    6    6    9    6       -0.0032348677
    6    6   10    6        0.0000564331
    6    6   11    6       -0.0000004736
    6    6    7    7        0.1194549007
    6    6    8    7       -0.0000000001
    6    6    9    7       -0.0000000000
    6    6   10    7        0.0000026524
    6    6   11    7        0.0003141530
    6    6    8    8        0.1181468575
    6    6    9    8       -0.0000160733
    6    6   10    8       -0.0000004996
    6    6   11    8        0.0000000041
    6    6    9    9        0.1135045298
    6    6   10    9        0.0003897668
    6    6   11    9       -0.0000032994
    6    6   10   10        0.1213400374
    6    6   11   10       -0.0000000195
    6    6   11   11        0.1213377290
    7    6    7    6        0.0047781476
    7    6    8    6       -0.0000000000
    7    6    9    6        0.0000000000
    7    6   10    6        0.0000004505
    7    6   11    6        0.0000533739
    7    6    7    7        0.0000000000
    7    6    8    7       -0.0000845296
    7    6    9    7        0.0030300702
    7    6   10    7        0.0001462760
    7    6   11    7       -0.0000012375
    7    6    8    8       -0.0000000000
    7    6    9    8        0.0000000001
    7    6   10    8        0.0000000039
    7    6   11    8        0.0000004635
    7    6    9    9       -0.0000000001
    7    6   10    9        0.0000012666
    7    6   11    9        0.0001500374
    7    6   10   10        0.0000414095
    7    6   11   10        0.0024523486
    7    6   11   11       -0.0000414096
    8    6    8    6        0.0033349262
    8    6    9    6        0.0000419828
    8    6   10    6        0.0000003011
    8    6   11    6       -0.0000000025
    8    6    7    7       -0.0000714478
    8    6    8    7        0.0000000000
    8    6    9    7        0.0000000001
    8    6   10    7        0.0000000022
    8    6   11    7        0.0000002640
    8    6    8    8       -0.0000008871
    8    6    9    8       -0.0011058953
    8    6   10    8       -0.0000349636
    8    6   11    8        0.0000002951
    8    6    9    9       -0.0000694922
    8    6   10    9        0.0000011642
    8    6   11    9       -0.0000000098
    8    6   10   10       -0.0000609098
    8    6   11   10       -0.0000000002
    8    6   11   11       -0.0000609370
    9    6    9    6        0.0061658901
    9    6   10    6        0.0000376262
    9    6   11    6       -0.0000003195
    9    6    7    7        0.0031690655
    9    6    8    7        0.0000000001
    9    6    9    7       -0.0000000000
    9    6   10    7        0.0000004757
    9    6   11    7        0.0000563491
    9    6    8    8        0.0011038233
    9    6    9    8       -0.0000478205
    9    6   10    8       -0.0000007141
    9    6   11    8        0.0000000060
    9    6    9    9        0.0002963044
    9    6   10    9        0.0000411406
    9    6   11    9       -0.0000003473
    9    6   10   10        0.0023076167
    9    6   11   10        0.0000000145
    9    6   11   11        0.0023093379
   10    6   10    6        0.0029260951
   10    6   11    6       -0.0000000160
   10    6    7    7        0.0001527150
   10    6    8    7        0.0000000121
   10    6    9    7        0.0000003947
   10    6   10    7        0.0000543973
   10    6   11    7        0.0032211205
   10    6    8    8        0.0000860212
   10    6    9    8       -0.0000017940
   10    6   10    8       -0.0000514272
   10    6   11    8        0.0000000004
   10    6    9    9        0.0001028450
   10    6   10    9        0.0034993931
   10    6   11    9        0.0000000074
   10    6   10   10        0.0000217997
   10    6   11   10       -0.0000001955
   10    6   11   11        0.0000568378
   11    6   11    6        0.0029242009
   11    6    7    7       -0.0000012916
   11    6    8    7        0.0000014320
   11    6    9    7        0.0000467657
   11    6   10    7        0.0032224872
   11    6   11    7       -0.0000543972
   11    6    8    8       -0.0000007259
   11    6    9    8        0.0000000151
   11    6   10    8        0.0000000004
   11    6   11    8       -0.0000513884
   11    6    9    9       -0.0000008678
   11    6   10    9        0.0000000239
   11    6   11    9        0.0035012360
   11    6   10   10       -0.0000011657
   11    6   11   10       -0.0000580611
   11    6   11   11        0.0000004970
    7    7    7    7        0.1274903831
    7    7    8    7       -0.0000000001
    7    7    9    7       -0.0000000001
    7    7   10    7        0.0000044748
    7    7   11    7        0.0005299823
    7    7    8    8        0.1197794285
    7    7    9    8       -0.0000456037
    7    7   10    8       -0.0000011088
    7    7   11    8        0.0000000092
    7    7    9    9        0.1123232761
    7    7   10    9        0.0006090605
    7    7   11    9       -0.0000051497
    7    7   10   10        0.1227229816
    7    7   11   10       -0.0000000016
    7    7   11   11        0.1227228070
    8    7    8    7        0.0087009450
    8    7    9    7       -0.0000261317
    8    7   10    7        0.0000005878
    8    7   11    7       -0.0000000050
    8    7    8    8        0.0000000003
    8    7    9    8       -0.0000000000
    8    7   10    8       -0.0000001063
    8    7   11    8       -0.0000125749
    8    7    9    9       -0.0000000001
    8    7   10    9        0.0000000299
    8    7   11    9        0.0000035393
    8    7   10   10       -0.0000011444
    8    7   11   10       -0.0000677695
    8    7   11   11        0.0000011443
    9    7    9    7        0.0056381849
    9    7   10    7        0.0001054407
    9    7   11    7       -0.0000008911
    9    7    8    8       -0.0000000001
    9    7    9    8       -0.0000000000
    9    7   10    8        0.0000000080
    9    7   11    8        0.0000009436
    9    7    9    9       -0.0000000001
    9    7   10    9        0.0000005943
    9    7   11    9        0.0000704034
    9    7   10   10        0.0000563222
    9    7   11   10        0.0033353832
    9    7   11   11       -0.0000563225
   10    7   10    7        0.0102188691
   10    7   11    7        0.0000000296
   10    7    8    8        0.0000036944
   10    7    9    8       -0.0000000081
   10    7   10    8       -0.0000007410
   10    7   11    8       -0.0000438609
   10    7    9    9        0.0000038171
   10    7   10    9        0.0001691225
   10    7   11    9        0.0100123399
   10    7   10   10       -0.0000013697
   10    7   11   10       -0.0002230465
   10    7   11   11        0.0000049617
   11    7   11    7        0.0102223546
   11    7    8    8        0.0004376355
   11    7    9    8       -0.0000009611
   11    7   10    8       -0.0000439203
   11    7   11    8        0.0000007412
   11    7    9    9        0.0004521051
   11    7   10    9        0.0100175566
   11    7   11    9       -0.0001691223
   11    7   10   10        0.0002839067
   11    7   11   10        0.0000006821
   11    7   11   11        0.0001421659
    8    8    8    8        0.1232505431
    8    8    9    8        0.0000004813
    8    8   10    8       -0.0000001164
    8    8   11    8        0.0000000009
    8    8    9    9        0.1138344087
    8    8   10    9        0.0005854319
    8    8   11    9       -0.0000049487
    8    8   10   10        0.1219803136
    8    8   11   10       -0.0000000274
    8    8   11   11        0.1219770722
    9    8    9    8        0.0058152421
    9    8   10    8        0.0001188660
    9    8   11    8       -0.0000010035
    9    8    9    9       -0.0001935574
    9    8   10    9       -0.0000051506
    9    8   11    9        0.0000000434
    9    8   10   10       -0.0001162589
    9    8   11   10        0.0000000010
    9    8   11   11       -0.0001161561
   10    8   10    8        0.0052387180
   10    8   11    8       -0.0000000413
   10    8    9    9       -0.0000064356
   10    8   10    9       -0.0001102816
   10    8   11    9        0.0000000019
   10    8   10   10       -0.0000045583
   10    8   11   10        0.0000000615
   10    8   11   11        0.0000006317
   11    8   11    8        0.0052338202
   11    8    9    9        0.0000000543
   11    8   10    9        0.0000000018
   11    8   11    9       -0.0001100953
   11    8   10   10        0.0000000737
   11    8   11   10        0.0000020951
   11    8   11   11       -0.0000000409
    9    9    9    9        0.1160607654
    9    9   10    9        0.0007428332
    9    9   11    9       -0.0000062740
    9    9   10   10        0.1183555145
    9    9   11   10       -0.0000000747
    9    9   11   11        0.1183466646
   10    9   10    9        0.0137975523
   10    9   11    9       -0.0000000859
   10    9   10   10        0.0004522694
   10    9   11   10       -0.0000048568
   10    9   11   11        0.0002029462
   11    9   11    9        0.0137873699
   11    9   10   10       -0.0000093261
   11    9   11   10       -0.0003256472
   11    9   11   11        0.0000037759
   10   10   10   10        0.1354221887
   10   10   11   10        0.0000577224
   10   10   11   11        0.1297909483
   11   10   11   10        0.0062327156
   11   10   11   11       -0.0000577216
   11   11   11   11        0.1354222862
 end_two_electron_integrals


 output epsi filename:./pspw_hf_H2.emovecs

 Total PSPW energy     :  -0.9259375833E+00


=== Spin Contamination ===

 <Sexact^2> =    0.0000000000000000     
 <S^2>      =    0.0000000000000000     



== Center of Charge ==

spin up     (    0.0000,    0.0000,    0.0000 )
spin down   (    0.0000,    0.0000,    0.0000 )
     total  (    0.0000,    0.0000,    0.0000 )
ionic       (    0.0000,    0.0000,    0.0000 )


== Molecular Dipole wrt Center of Mass ==

mu   =  (   -0.0000,   -0.0000,   -0.0000 ) au
|mu| =     0.0000 au,       0.0001 Debye

 output psi filename:./pspw_hf_H2.movecs

 Writing Crystallographic Information File:./H2.cif
   - cell not shifted (nwpw:cif_shift_cell .false.)


== Timing ==

cputime in seconds
  prologue    :   0.524607E+01
  main loop   :   0.285352E+03
  epilogue    :   0.503600E-02
  total       :   0.290603E+03
  cputime/step:   0.208286E+01       (     137 evalulations,      57 linesearches)


Time spent doing                        total          step       percent
  total time                 :   0.290603E+03  0.212119E+01       100.0 %
  i/o time                   :   0.777159E-01  0.567270E-03         0.0 %
  FFTs                       :   0.254742E+03  0.185943E+01        87.7 %
  dot products               :   0.362743E+00  0.264776E-02         0.1 %
  geodesic                   :   0.649600E-01  0.474160E-03         0.0 %
  ffm_dgemm                  :   0.670934E-02  0.489733E-04         0.0 %
  fmf_dgemm                  :   0.305834E-01  0.223236E-03         0.0 %
  mmm_dgemm                  :   0.131750E-02  0.961677E-05         0.0 %
  m_diagonalize              :   0.789492E-03  0.576272E-05         0.0 %
  local pseudopotentials     :   0.119081E-01  0.869204E-04         0.0 %
  non-local pseudopotentials :   0.755711E+00  0.551614E-02         0.3 %
  structure factors          :   0.367640E+00  0.268350E-02         0.1 %
  phase factors              :   0.658800E-05  0.480876E-07         0.0 %
  masking and packing        :   0.350285E+01  0.255682E-01         1.2 %
  queue fft                  :   0.194909E+01  0.142269E-01         0.7 %
  queue fft (serial)         :   0.119671E+01  0.873514E-02         0.4 %
  queue fft (message passing):   0.686503E+00  0.501097E-02         0.2 %
  HFX potential              :   0.206301E+03  0.150585E+01        71.0 %
  non-local psp FFM          :   0.409476E+00  0.298888E-02         0.1 %
  non-local psp FMF          :   0.907242E-01  0.662221E-03         0.0 %
  non-local psp FFM A        :   0.102395E+00  0.747407E-03         0.0 %
  non-local psp FFM B        :   0.736631E-01  0.537687E-03         0.0 %

== HFX Counters ==
  HFX Evalulations         =   137
  Lin ACE HFX Evalulations =     0


     >>>  JOB COMPLETED     AT Wed Apr 30 10:32:41 2025  <<<

 Task  times  cpu:      288.5s     wall:      290.6s
 Summary of allocated global arrays
-----------------------------------
  No active global arrays


MA_summarize_allocated_blocks: starting scan ...
MA_summarize_allocated_blocks: scan completed: 0 heap blocks, 0 stack blocks
MA usage statistics:

	allocation statistics:
					      heap	     stack
					      ----	     -----
	current number of blocks	         0	         0
	maximum number of blocks	       313	        17
	current total bytes		         0	         0
	maximum total bytes		 367819864	  89294088
	maximum total K-bytes		    367820	     89295
	maximum total M-bytes		       368	        90


                                NWChem Input Module
                                -------------------




                                     CITATION
                                     --------
                Please cite the following reference when publishing
                           results obtained with NWChem:

          E. Apra, E. J. Bylaska, W. A. de Jong, N. Govind, K. Kowalski,
       T. P. Straatsma, M. Valiev, H. J. J. van Dam, Y. Alexeev, J. Anchell,
       V. Anisimov, F. W. Aquino, R. Atta-Fynn, J. Autschbach, N. P. Bauman,
     J. C. Becca, D. E. Bernholdt, K. Bhaskaran-Nair, S. Bogatko, P. Borowski,
         J. Boschen, J. Brabec, A. Bruner, E. Cauet, Y. Chen, G. N. Chuev,
      C. J. Cramer, J. Daily, M. J. O. Deegan, T. H. Dunning Jr., M. Dupuis,
   K. G. Dyall, G. I. Fann, S. A. Fischer, A. Fonari, H. Fruchtl, L. Gagliardi,
      J. Garza, N. Gawande, S. Ghosh, K. Glaesemann, A. W. Gotz, J. Hammond,
       V. Helms, E. D. Hermes, K. Hirao, S. Hirata, M. Jacquelin, L. Jensen,
   B. G. Johnson, H. Jonsson, R. A. Kendall, M. Klemm, R. Kobayashi, V. Konkov,
      S. Krishnamoorthy, M. Krishnan, Z. Lin, R. D. Lins, R. J. Littlefield,
      A. J. Logsdail, K. Lopata, W. Ma, A. V. Marenich, J. Martin del Campo,
   D. Mejia-Rodriguez, J. E. Moore, J. M. Mullin, T. Nakajima, D. R. Nascimento,
    J. A. Nichols, P. J. Nichols, J. Nieplocha, A. Otero-de-la-Roza, B. Palmer,
    A. Panyala, T. Pirojsirikul, B. Peng, R. Peverati, J. Pittner, L. Pollack,
   R. M. Richard, P. Sadayappan, G. C. Schatz, W. A. Shelton, D. W. Silverstein,
   D. M. A. Smith, T. A. Soares, D. Song, M. Swart, H. L. Taylor, G. S. Thomas,
            V. Tipparaju, D. G. Truhlar, K. Tsemekhman, T. Van Voorhis,
      A. Vazquez-Mayagoitia, P. Verma, O. Villa, A. Vishnu, K. D. Vogiatzis,
        D. Wang, J. H. Weare, M. J. Williamson, T. L. Windus, K. Wolinski,
        A. T. Wong, Q. Wu, C. Yang, Q. Yu, M. Zacharias, Z. Zhang, Y. Zhao,
                                and R. J. Harrison
                        "NWChem: Past, present, and future
                         J. Chem. Phys. 152, 184102 (2020)
                               doi:10.1063/5.0004997

                                      AUTHORS
                                      -------
  E. Apra, E. J. Bylaska, N. Govind, K. Kowalski, M. Valiev, D. Mejia-Rodriguez,
       A. Kunitsa, N. P. Bauman, A. Panyala, W. A. de Jong, T. P. Straatsma,
   H. J. J. van Dam, D. Wang, T. L. Windus, J. Hammond, J. Autschbach, A. Woods,
    K. Bhaskaran-Nair, J. Brabec, K. Lopata, S. A. Fischer, S. Krishnamoorthy,
     M. Jacquelin, W. Ma, M. Klemm, O. Villa, Y. Chen, V. Anisimov, F. Aquino,
     S. Hirata, M. T. Hackler, E. Hermes, L. Jensen, J. E. Moore, J. C. Becca,
      V. Konjkov, T. Risthaus, M. Malagoli, A. Marenich, A. Otero-de-la-Roza,
        J. Mullin, P. Nichols, R. Peverati, J. Pittner, Y. Zhao, P.-D. Fan,
        A. Fonari, M. J. Williamson, R. J. Harrison, J. R. Rehr, M. Dupuis,
     D. Silverstein, D. M. A. Smith, J. Nieplocha, V. Tipparaju, M. Krishnan,
     B. E. Van Kuiken, A. Vazquez-Mayagoitia, M. Swart, Q. Wu, T. Van Voorhis,
     A. A. Auer, M. Nooijen, L. D. Crosby, E. Brown, G. Cisneros, G. I. Fann,
   H. Fruchtl, J. Garza, K. Hirao, R. A. Kendall, J. A. Nichols, K. Tsemekhman,
    K. Wolinski, J. Anchell, D. E. Bernholdt, P. Borowski, T. Clark, D. Clerc,
   H. Dachsel, M. J. O. Deegan, K. Dyall, D. Elwood, E. Glendening, M. Gutowski,
   A. C. Hess, J. Jaffe, B. G. Johnson, J. Ju, R. Kobayashi, R. Kutteh, Z. Lin,
   R. Littlefield, X. Long, B. Meng, T. Nakajima, S. Niu, L. Pollack, M. Rosing,
   K. Glaesemann, G. Sandrone, M. Stave, H. Taylor, G. Thomas, J. H. van Lenthe,
                               A. T. Wong, Z. Zhang.

 Total times  cpu:      288.7s     wall:      290.6s
