 argument  1 = H2-3.0.nw



============================== echo of input deck ==============================
title "swnc: e theory=pspw4 xc=hf formula=H2 charge=0 mult=1"
#machinejob:expert

echo

start pspw_hf_H2

memory heap 1200 mb stack 1200 mb global 10 mb

charge 0

geometry
H    0.00000    0.00000   -1.50000
H    0.00000    0.00000    1.50000
end

nwpw
  ### pseudopotential block begin ###
  ### pseudopotential block end   ###
  simulation_cell
     SC 20.0000
     boundary_conditions aperiodic
  end

  cutoff 50.0
  mult 1
  xc hf
  lmbfgs
  tolerances 1.0e-9 1.0e-9

  virtual 10
end
set nwpw:cif_filename H2

#set nwpw:CI_maxit_orb 15
#set nwpw:CI_maxit_linesearch 15
set pspw:HFX_screening_radius 14.0


set nwpw:2qintegrals .true.
#set nwpw:3x3_virtual .true.

task pspw energy

================================================================================


                                         
                                         


             Northwest Computational Chemistry Package (NWChem) 7.2.2
             --------------------------------------------------------


                    Environmental Molecular Sciences Laboratory
                       Pacific Northwest National Laboratory
                                Richland, WA 99352

                              Copyright (c) 1994-2022
                       Pacific Northwest National Laboratory
                            Battelle Memorial Institute

             NWChem is an open-source computational chemistry package
                        distributed under the terms of the
                      Educational Community License (ECL) 2.0
             A copy of the license is included with this distribution
                              in the LICENSE.TXT file

                                  ACKNOWLEDGMENT
                                  --------------

            This software and its documentation were developed at the
            EMSL at Pacific Northwest National Laboratory, a multiprogram
            national laboratory, operated for the U.S. Department of Energy
            by Battelle under Contract Number DE-AC05-76RL01830. Support
            for this work was provided by the Department of Energy Office
            of Biological and Environmental Research, Office of Basic
            Energy Sciences, and the Office of Advanced Scientific Computing.


           Job information
           ---------------

    hostname        = LAPTOP-JJQSTSEL
    program         = nwchem
    date            = Wed Apr 30 10:40:48 2025

    compiled        = Fri_Jun_07_07:50:04_2024
    source          = /home/conda/feedstock_root/build_artifacts/nwchem_1717738148552/work
    nwchem branch   = 7.2.2
    nwchem revision = 64ba0f0
    ga revision     = 5.8.0
    use scalapack   = T
    input           = H2-3.0.nw
    prefix          = pspw_hf_H2.
    data base       = ./pspw_hf_H2.db
    status          = startup
    nproc           =        1
    time left       =     -1s



           Memory information
           ------------------

    heap     =  157286400 doubles =   1200.0 Mbytes
    stack    =  157286397 doubles =   1200.0 Mbytes
    global   =    1310720 doubles =     10.0 Mbytes (distinct from heap & stack)
    total    =  315883517 doubles =   2410.0 Mbytes
    verify   = yes
    hardfail = no 


           Directory information
           ---------------------

  0 permanent = .
  0 scratch   = .




                                NWChem Input Module
                                -------------------


               swnc: e theory=pspw4 xc=hf formula=H2 charge=0 mult=1
               -----------------------------------------------------

 Scaling coordinates for geometry "geometry" by  1.889725989
 (inverse scale =  0.529177249)

 ORDER OF PRIMARY AXIS IS BEING SET TO 4
 D4H symmetry detected

          ------
          auto-z
          ------
     1 autoz failed with cvr_scaling = 1.2 changing to 1.3
     2 autoz failed with cvr_scaling = 1.3 changing to 1.4
     3 autoz failed with cvr_scaling = 1.4 changing to 1.5
     4 autoz failed with cvr_scaling = 1.5 changing to 1.6
     5 autoz failed with cvr_scaling = 1.6 changing to 1.7

 AUTOZ failed to generate good internal coordinates.
 Cartesian coordinates will be used in optimizations.



                             Geometry "geometry" -> ""
                             -------------------------

 Output coordinates in angstroms (scale by  1.889725989 to convert to a.u.)

  No.       Tag          Charge          X              Y              Z
 ---- ---------------- ---------- -------------- -------------- --------------
    1 H                    1.0000     0.00000000     0.00000000    -1.50000000
    2 H                    1.0000     0.00000000     0.00000000     1.50000000

      Atomic Mass 
      ----------- 

      H                  1.007825


 Effective nuclear repulsion energy (a.u.)       0.1763924163

            Nuclear Dipole moment (a.u.) 
            ----------------------------
        X                 Y               Z
 ---------------- ---------------- ----------------
     0.0000000000     0.0000000000     0.0000000000

      Symmetry information
      --------------------

 Group name             D4h       
 Group number             28
 Group order              16
 No. of unique centers     1

      Symmetry unique atoms

     1


            XYZ format geometry
            -------------------
     2
 geometry
 H                     0.00000000     0.00000000    -1.50000000
 H                     0.00000000     0.00000000     1.50000000

          ****************************************************
          *                                                  *
          *               NWPW PSPW Calculation              *
          *                                                  *
          * [ (Grassmann/Stiefel manifold implementation)  ] *
          *                                                  *
          *      [ NorthWest Chemistry implementation ]      *
          *                                                  *
          *            version #5.10   06/12/02              *
          *                                                  *
          *    This code was developed by Eric J. Bylaska,   *
          *    and was based upon algorithms and code        *
          *    developed by the group of Prof. John H. Weare *
          *                                                  *
          ****************************************************
     >>>  JOB STARTED       AT Wed Apr 30 10:40:48 2025  <<<
          ================ input data ========================
 pseudopotential is not correctly formatted:H.vpp                                             

 Generated formatted_filename: ./H.vpp
 Error reading psi - bad grid
 nfft :                   70                   70                   70
 ngrid:                   96                   96                   96
 Error reading psi - bad unitcell
  - Ignored if the following  parameter is set
  - set nwpw:psi_nolattice .true.
 Error reading psi - bad grid
 nfft :                   70                   70                   70
 ngrid:                   96                   96                   96
 Error reading psi - bad unitcell
  - Ignored if the following  parameter is set
  - set nwpw:psi_nolattice .true.
 Error reading psi - bad grid
 Error reading psi - bad unitcell
  - Ignored if the following  parameter is set
  - set nwpw:psi_nolattice .true.

 Grid is being converted:
 ------------------------

 To turn off automatic grid conversion:

 set nwpw:psi_nogrid .false.

 old_filename: pspw_hf_H2.movecs                                 
 new_filename: pspw_hf_H2.movecs                                 
 converting  :  70x 70x 70 -->  96x 96x 96
converting .... psi:    1 spin: 1

 input psi filename:./pspw_hf_H2.movecs

 number of processors used:         1
 processor grid           :   1 x   1
 parallel mapping         :2d-hilbert
 parallel mapping         :  balanced
 number of threads        :         1
 parallel io              :       off

 options:
      boundary conditions  = aperiodic   (version4)
      electron spin        = restricted
      exchange-correlation = Hartree-Fock
      - HFX relaxed
      - HFX restricted orbitals :    1
      - HFX free-space coulomb solver


 elements involved in the cluster:
      1: H   valence charge:  1.0000  lmax=  1
             comment    : Parameterized (Chem.Phys.Lett., vol 322, page 447) Hamman psp
             pseudpotential type            :   0
             highest angular component      :   1
             local potential used           :   1
             number of non-local projections:   1
             aperiodic cutoff radius        :  1.000
             cutoff =   0.800   0.800


 total charge:   0.000

 atomic composition:
     H   :    2

 number of electrons: spin up=     1 (   1 per task)  down=     1 (   1 per task) (Fourier space)
 number of orbitals : spin up=     1 (   1 per task)  down=     1 (   1 per task) (Fourier space)

 supercell:
      cell_name:  cell_default                                      
      lattice:    a1=<  20.000   0.000   0.000 >
                  a2=<   0.000  20.000   0.000 >
                  a3=<   0.000   0.000  20.000 >
      reciprocal: b1=<   0.314   0.000   0.000 >
                  b2=<   0.000   0.314   0.000 >
                  b3=<   0.000   0.000   0.314 >
      lattice:    a=      20.000 b=     20.000 c=      20.000
                  alpha=  90.000 beta=  90.000 gamma=  90.000
                  omega=      8000.0

      density cutoff=100.000  fft= 96x 96x 96(   191162 waves   191162 per task)
      wavefnc cutoff= 50.000  fft= 96x 96x 96(    67522 waves    67522 per task)

 technical parameters:
      time step=      5.80     fictitious mass=  400000.0
      tolerance=0.100E-08 (energy)   0.100E-08 (density)
      maximum iterations =      1000 (   10 inner    100 outer )





== Energy Calculation ==


          ============ Grassmann lmbfgs iteration ============
     >>>  ITERATION STARTED AT Wed Apr 30 10:41:01 2025  <<<
    iter.           Energy         DeltaE       DeltaRho 
    ------------------------------------------------------
      10   -0.8286731010E+00   -0.14652E-02    0.74684E-02
     -  10 steepest descent iterations performed
      20   -0.8337021467E+00   -0.20756E-03    0.36251E-04
      30   -0.8340178698E+00   -0.49795E-05    0.13028E-04
      40   -0.8340334558E+00   -0.44386E-06    0.53185E-07
      50   -0.8340344534E+00   -0.18429E-07    0.11156E-07
      60   -0.8340345072E+00   -0.10684E-08    0.18255E-09
      70   -0.8340345079E+00   -0.68065E-09    0.36423E-12
  *** tolerance ok. iteration terminated
     >>>  ITERATION ENDED   AT Wed Apr 30 10:42:43 2025  <<<


==  Summary Of Results  ==

 number of electrons: spin up=    1.00000  down=    1.00000 (real space)

 total     energy    :  -0.8340345079E+00 (   -0.41702E+00/ion)
 total orbital energy:  -0.6643988011E+00 (   -0.66440E+00/electron)
 hartree   energy    :   0.6920562463E+00 (    0.69206E+00/electron)
 exc-corr  energy    :   0.0000000000E+00 (    0.00000E+00/electron)
 HF exchange energy  :  -0.3460281232E+00 (   -0.34603E+00/electron)
 ion-ion   energy    :   0.1763924163E+00 (    0.88196E-01/ion)

 kinetic (planewave) :   0.6216737048E+00 (    0.62167E+00/electron)
 V_local (planewave) :  -0.1830687992E+01 (   -0.18307E+01/electron)
 V_nl    (planewave) :  -0.1474407599E+00 (   -0.14744E+00/electron)
 V_Coul  (planewave) :   0.1384112493E+01 (    0.13841E+01/electron)
 V_xc.   (planewave) :   0.0000000000E+00 (    0.00000E+00/electron)
 K.S. HFX energy     :  -0.6920562463E+00 (   -0.69206E+00/electron)
 Virial Coefficient  :  -0.9555113156E+00

 orbital energies:
    -0.3321994E+00 (  -9.040eV)


== Virtual Orbital Calculation ==

 Error reading psi - bad grid
 Error reading psi - bad unitcell
  - Ignored if the following  parameter is set
  - set nwpw:psi_nolattice .true.
 Error reading psi - bad grid
 Error reading psi - bad unitcell
  - Ignored if the following  parameter is set
  - set nwpw:psi_nolattice .true.
 Error reading psi - bad grid
 Error reading psi - bad unitcell
  - Ignored if the following  parameter is set
  - set nwpw:psi_nolattice .true.

 Grid is being converted:
 ------------------------

 To turn off automatic grid conversion:

 set nwpw:psi_nogrid .false.

 old_filename: pspw_hf_H2.emovecs                                
 new_filename: pspw_hf_H2.emovecs                                
 converting  :  70x 70x 70 -->  96x 96x 96
converting .... psi:    1 spin: 1
converting .... psi:    2 spin: 1
converting .... psi:    3 spin: 1
converting .... psi:    4 spin: 1
converting .... psi:    5 spin: 1
converting .... psi:    6 spin: 1
converting .... psi:    7 spin: 1
converting .... psi:    8 spin: 1
converting .... psi:    9 spin: 1
converting .... psi:   10 spin: 1

 input epsi filename:./pspw_hf_H2.emovecs
     orbital   1 current e=-0.124E+00 (error=0.839E-09) iterations  70(  46 preconditioned, Ep,Sp= 20.0  200.0)
     orbital   2 current e= 0.564E-02 (error=0.863E-09) iterations  88(  51 preconditioned, Ep,Sp= 20.0  200.0)
     orbital   3 current e= 0.478E-01 (error=0.946E-09) iterations  58(  20 preconditioned, Ep,Sp= 20.0  200.0)
     orbital   4 current e= 0.478E-01 (error=0.946E-09) iterations  58(  20 preconditioned, Ep,Sp= 20.0  200.0)
     orbital   5 current e= 0.480E-01 (error=0.921E-09) iterations 114(  45 preconditioned, Ep,Sp= 20.0  200.0)
     orbital   6 current e= 0.498E-01 (error=0.992E-09) iterations  30(   5 preconditioned, Ep,Sp= 20.0  200.0)
     orbital   7 current e= 0.560E-01 (error=0.966E-09) iterations  85(  57 preconditioned, Ep,Sp= 20.0  200.0)
     orbital   8 current e= 0.674E-01 (error=0.913E-09) iterations 118(  58 preconditioned, Ep,Sp= 20.0  200.0)
     orbital   9 current e= 0.957E-01 (error=0.261E-08) iterations 121(  29 preconditioned, Ep,Sp= 20.0  200.0)
     orbital   9 current e= 0.957E-01 (error=0.940E-09) iterations   5(   1 preconditioned, Ep,Sp= 20.0  200.0)
     orbital  10 current e= 0.957E-01 (error=0.261E-08) iterations 121(  29 preconditioned, Ep,Sp= 20.0  200.0)
     orbital  10 current e= 0.957E-01 (error=0.940E-09) iterations   5(   1 preconditioned, Ep,Sp= 20.0  200.0)

 virtual orbital energies:
     0.9572519E-01 (   2.605eV)
     0.9572519E-01 (   2.605eV)
     0.6741671E-01 (   1.835eV)
     0.5597136E-01 (   1.523eV)
     0.4976899E-01 (   1.354eV)
     0.4803341E-01 (   1.307eV)
     0.4776299E-01 (   1.300eV)
     0.4776299E-01 (   1.300eV)
     0.5636618E-02 (   0.153eV)
    -0.1238464E+00 (  -3.370eV)


 == Generating One-Electron and Two-Electron Integrals ==

 begin_one_electron_integrals
    1    1        -0.6782275237
    2    1         0.0000009469
    3    1        -0.0190206869
    4    1         0.0000034772
    5    1         0.0000000018
    6    1         0.0041574135
    7    1        -0.0000000000
    8    1        -0.0000001980
    9    1         0.0237480129
   10    1         0.0000022105
   11    1        -0.0000000025
    2    2        -0.6396657493
    3    2        -0.0000162700
    4    2         0.0000000200
    5    2         0.0000000000
    6    2         0.0000244364
    7    2        -0.0000000001
    8    2         0.0328660351
    9    2         0.0000114727
   10    2         0.0000000079
   11    2        -0.0000000006
    3    3        -0.1950980101
    4    3         0.0000005806
    5    3         0.0000000003
    6    3         0.0016346875
    7    3        -0.0000000001
    8    3         0.0000010082
    9    3         0.0434783093
   10    3         0.0000009103
   11    3        -0.0000000023
    4    4        -0.1871591824
    5    4         0.0000000000
    6    4         0.0000147338
    7    4        -0.0000000036
    8    4        -0.0000000026
    9    4        -0.0000018173
   10    4        -0.0593406286
   11    4        -0.0000249335
    5    5        -0.1871591926
    6    5         0.0000000075
    7    5         0.0000070672
    8    5         0.0000000000
    9    5        -0.0000000009
   10    5        -0.0000249335
   11    5         0.0593406542
    6    6        -0.1685437817
    7    6         0.0000000000
    8    6        -0.0000023589
    9    6        -0.0014381147
   10    6         0.0000232898
   11    6        -0.0000000026
    7    7        -0.1543210253
    8    7         0.0000000000
    9    7        -0.0000000000
   10    7        -0.0000000011
   11    7        -0.0000134858
    8    8        -0.1514093398
    9    8        -0.0000014180
   10    8         0.0000000012
   11    8         0.0000000006
    9    9        -0.1343320508
   10    9        -0.0000010917
   11    9         0.0000000048
   10   10        -0.1484916698
   11   10        -0.0000000000
   11   11        -0.1484917072
 end_one_electron_integrals

 begin_two_electron_integrals
    1    1    1    1        0.3460281232
    1    1    2    1       -0.0000009487
    1    1    3    1        0.0190164900
    1    1    4    1       -0.0000034783
    1    1    5    1       -0.0000000018
    1    1    6    1       -0.0041609965
    1    1    7    1        0.0000000000
    1    1    8    1        0.0000001906
    1    1    9    1       -0.0237539684
    1    1   10    1       -0.0000022094
    1    1   11    1        0.0000000025
    1    1    2    2        0.3415669191
    1    1    3    2        0.0000087260
    1    1    4    2       -0.0000000095
    1    1    5    2       -0.0000000000
    1    1    6    2       -0.0000117689
    1    1    7    2        0.0000000001
    1    1    8    2       -0.0259660426
    1    1    9    2       -0.0000055092
    1    1   10    2       -0.0000000022
    1    1   11    2        0.0000000005
    1    1    3    3        0.1012705799
    1    1    4    3       -0.0000002478
    1    1    5    3       -0.0000000001
    1    1    6    3       -0.0010259464
    1    1    7    3        0.0000000000
    1    1    8    3       -0.0000008629
    1    1    9    3       -0.0229203004
    1    1   10    3       -0.0000003165
    1    1   11    3        0.0000000013
    1    1    4    4        0.1184545925
    1    1    5    4       -0.0000000000
    1    1    6    4       -0.0000076601
    1    1    7    4        0.0000000017
    1    1    8    4        0.0000000016
    1    1    9    4        0.0000009992
    1    1   10    4        0.0310007600
    1    1   11    4        0.0000130258
    1    1    5    5        0.1184545978
    1    1    6    5       -0.0000000039
    1    1    7    5       -0.0000034600
    1    1    8    5       -0.0000000000
    1    1    9    5        0.0000000005
    1    1   10    5        0.0000130258
    1    1   11    5       -0.0310007734
    1    1    6    6        0.1087622168
    1    1    7    6       -0.0000000000
    1    1    8    6        0.0000016537
    1    1    9    6        0.0009855047
    1    1   10    6       -0.0000121951
    1    1   11    6        0.0000000014
    1    1    7    7        0.1021029356
    1    1    8    7       -0.0000000000
    1    1    9    7       -0.0000000000
    1    1   10    7        0.0000000006
    1    1   11    7        0.0000067142
    1    1    8    8        0.1050088229
    1    1    9    8        0.0000008860
    1    1   10    8       -0.0000000005
    1    1   11    8       -0.0000000003
    1    1    9    9        0.1024310730
    1    1   10    9        0.0000005714
    1    1   11    9       -0.0000000026
    1    1   10   10        0.1239408891
    1    1   11   10        0.0000000000
    1    1   11   11        0.1239409090
    2    1    2    1        0.1673144579
    2    1    3    1        0.0000011957
    2    1    4    1        0.0000000010
    2    1    5    1       -0.0000000000
    2    1    6    1        0.0000008965
    2    1    7    1        0.0000000000
    2    1    8    1       -0.0190718237
    2    1    9    1        0.0000004547
    2    1   10    1        0.0000000035
    2    1   11    1        0.0000000004
    2    1    2    2       -0.0000014495
    2    1    3    2        0.0117326748
    2    1    4    2        0.0000053961
    2    1    5    2        0.0000000028
    2    1    6    2        0.0064321811
    2    1    7    2        0.0000000000
    2    1    8    2        0.0000011171
    2    1    9    2       -0.0155971271
    2    1   10    2        0.0000057515
    2    1   11    2        0.0000000014
    2    1    3    3        0.0001923993
    2    1    4    3       -0.0000001989
    2    1    5    3       -0.0000000001
    2    1    6    3       -0.0002377309
    2    1    7    3        0.0000000000
    2    1    8    3       -0.0153631196
    2    1    9    3        0.0000177087
    2    1   10    3       -0.0000000275
    2    1   11    3        0.0000000002
    2    1    4    4        0.0001577526
    2    1    5    4       -0.0000000000
    2    1    6    4        0.0000001700
    2    1    7    4        0.0000000000
    2    1    8    4        0.0000034380
    2    1    9    4        0.0000000803
    2    1   10    4       -0.0000596405
    2    1   11    4       -0.0000000250
    2    1    5    5        0.0001577524
    2    1    6    5        0.0000000001
    2    1    7    5       -0.0000000075
    2    1    8    5        0.0000000018
    2    1    9    5        0.0000000000
    2    1   10    5       -0.0000000250
    2    1   11    5        0.0000596410
    2    1    6    6        0.0003609646
    2    1    7    6       -0.0000000000
    2    1    8    6        0.0041054775
    2    1    9    6        0.0000945502
    2    1   10    6        0.0000001619
    2    1   11    6       -0.0000000002
    2    1    7    7        0.0001423233
    2    1    8    7       -0.0000000000
    2    1    9    7       -0.0000000000
    2    1   10    7       -0.0000000000
    2    1   11    7       -0.0000000060
    2    1    8    8        0.0000001867
    2    1    9    8        0.0079873064
    2    1   10    8        0.0000001631
    2    1   11    8       -0.0000000006
    2    1    9    9        0.0002170805
    2    1   10    9        0.0000001171
    2    1   11    9       -0.0000000003
    2    1   10   10        0.0001341026
    2    1   11   10       -0.0000000000
    2    1   11   11        0.0001341026
    3    1    3    1        0.0018065315
    3    1    4    1        0.0000000771
    3    1    5    1        0.0000000000
    3    1    6    1       -0.0004336153
    3    1    7    1        0.0000000000
    3    1    8    1       -0.0000007234
    3    1    9    1       -0.0023593216
    3    1   10    1        0.0000002762
    3    1   11    1        0.0000000002
    3    1    2    2        0.0184727954
    3    1    3    2        0.0000016508
    3    1    4    2       -0.0000000011
    3    1    5    2       -0.0000000000
    3    1    6    2       -0.0000019582
    3    1    7    2        0.0000000000
    3    1    8    2       -0.0024141695
    3    1    9    2       -0.0000016284
    3    1   10    2       -0.0000000004
    3    1   11    2        0.0000000000
    3    1    3    3        0.0004062797
    3    1    4    3       -0.0000023689
    3    1    5    3       -0.0000000012
    3    1    6    3        0.0000716816
    3    1    7    3        0.0000000000
    3    1    8    3        0.0000042106
    3    1    9    3       -0.0005338617
    3    1   10    3       -0.0000001867
    3    1   11    3        0.0000000001
    3    1    4    4        0.0007917515
    3    1    5    4       -0.0000000000
    3    1    6    4       -0.0000009066
    3    1    7    4        0.0000000006
    3    1    8    4        0.0000000019
    3    1    9    4        0.0000005105
    3    1   10    4        0.0009703749
    3    1   11    4        0.0000004077
    3    1    5    5        0.0007917546
    3    1    6    5       -0.0000000005
    3    1    7    5       -0.0000012690
    3    1    8    5        0.0000000000
    3    1    9    5        0.0000000003
    3    1   10    5        0.0000004077
    3    1   11    5       -0.0009703746
    3    1    6    6        0.0003880103
    3    1    7    6       -0.0000000000
    3    1    8    6       -0.0000016228
    3    1    9    6       -0.0000490245
    3    1   10    6       -0.0000008452
    3    1   11    6        0.0000000001
    3    1    7    7        0.0002406318
    3    1    8    7       -0.0000000000
    3    1    9    7       -0.0000000000
    3    1   10    7        0.0000000002
    3    1   11    7        0.0000019411
    3    1    8    8        0.0005944019
    3    1    9    8       -0.0000001443
    3    1   10    8       -0.0000000005
    3    1   11    8       -0.0000000000
    3    1    9    9        0.0007385022
    3    1   10    9        0.0000018084
    3    1   11    9       -0.0000000002
    3    1   10   10        0.0013875880
    3    1   11   10        0.0000000000
    3    1   11   11        0.0013875910
    4    1    4    1        0.0019870153
    4    1    5    1       -0.0000000000
    4    1    6    1       -0.0000005421
    4    1    7    1       -0.0000000001
    4    1    8    1        0.0000000007
    4    1    9    1        0.0000002461
    4    1   10    1        0.0026685305
    4    1   11    1        0.0000011213
    4    1    2    2       -0.0000016396
    4    1    3    2       -0.0000000008
    4    1    4    2        0.0000003182
    4    1    5    2       -0.0000000000
    4    1    6    2        0.0000000016
    4    1    7    2       -0.0000000000
    4    1    8    2       -0.0000004086
    4    1    9    2        0.0000000019
    4    1   10    2        0.0000001564
    4    1   11    2        0.0000000001
    4    1    3    3       -0.0000518758
    4    1    4    3       -0.0031425438
    4    1    5    3       -0.0000000000
    4    1    6    3       -0.0000249576
    4    1    7    3        0.0000000262
    4    1    8    3        0.0000000139
    4    1    9    3       -0.0000158446
    4    1   10    3       -0.0008491421
    4    1   11    3       -0.0000003568
    4    1    4    4       -0.0000208081
    4    1    5    4       -0.0000000097
    4    1    6    4       -0.0006215601
    4    1    7    4        0.0000013385
    4    1    8    4        0.0000012093
    4    1    9    4        0.0017155660
    4    1   10    4        0.0000235403
    4    1   11    4       -0.0000000030
    4    1    5    5       -0.0000193059
    4    1    6    5       -0.0000000000
    4    1    7    5       -0.0013299610
    4    1    8    5       -0.0000000000
    4    1    9    5       -0.0000000000
    4    1   10    5        0.0000000229
    4    1   11    5       -0.0000233889
    4    1    6    6       -0.0000441471
    4    1    7    6        0.0000000095
    4    1    8    6        0.0000000046
    4    1    9    6        0.0000056684
    4    1   10    6       -0.0006020360
    4    1   11    6       -0.0000002530
    4    1    7    7       -0.0000762089
    4    1    8    7       -0.0000000000
    4    1    9    7       -0.0000000057
    4    1   10    7        0.0000013827
    4    1   11    7        0.0023585344
    4    1    8    8       -0.0000570406
    4    1    9    8        0.0000000143
    4    1   10    8       -0.0000002065
    4    1   11    8       -0.0000000001
    4    1    9    9       -0.0000592723
    4    1   10    9        0.0025853644
    4    1   11    9        0.0000010863
    4    1   10   10       -0.0000379222
    4    1   11   10        0.0000000174
    4    1   11   11       -0.0000364690
    5    1    5    1        0.0019870156
    5    1    6    1       -0.0000000003
    5    1    7    1        0.0000001695
    5    1    8    1        0.0000000000
    5    1    9    1        0.0000000001
    5    1   10    1        0.0000011213
    5    1   11    1       -0.0026685317
    5    1    2    2       -0.0000000008
    5    1    3    2       -0.0000000000
    5    1    4    2       -0.0000000000
    5    1    5    2        0.0000003182
    5    1    6    2        0.0000000000
    5    1    7    2        0.0000000010
    5    1    8    2       -0.0000000002
    5    1    9    2        0.0000000000
    5    1   10    2        0.0000000001
    5    1   11    2       -0.0000001564
    5    1    3    3       -0.0000000261
    5    1    4    3       -0.0000000000
    5    1    5    3       -0.0031425284
    5    1    6    3       -0.0000000125
    5    1    7    3       -0.0000521483
    5    1    8    3        0.0000000000
    5    1    9    3       -0.0000000080
    5    1   10    3       -0.0000003568
    5    1   11    3        0.0008491517
    5    1    4    4       -0.0000000284
    5    1    5    4        0.0000177656
    5    1    6    4       -0.0000000000
    5    1    7    4       -0.0013299727
    5    1    8    4       -0.0000000000
    5    1    9    4       -0.0000000000
    5    1   10    4        0.0000000270
    5    1   11    4        0.0000252815
    5    1    5    5        0.0000000082
    5    1    6    5       -0.0006215552
    5    1    7    5       -0.0000013385
    5    1    8    5        0.0000012093
    5    1    9    5        0.0017155700
    5    1   10    5       -0.0000258734
    5    1   11    5        0.0000000030
    5    1    6    6       -0.0000000222
    5    1    7    6       -0.0000189088
    5    1    8    6        0.0000000000
    5    1    9    6        0.0000000028
    5    1   10    6       -0.0000002530
    5    1   11    6        0.0006020259
    5    1    7    7       -0.0000000384
    5    1    8    7        0.0000000182
    5    1    9    7        0.0000113780
    5    1   10    7       -0.0023585365
    5    1   11    7        0.0000013827
    5    1    8    8       -0.0000000287
    5    1    9    8        0.0000000000
    5    1   10    8       -0.0000000001
    5    1   11    8        0.0000002065
    5    1    9    9       -0.0000000298
    5    1   10    9        0.0000010863
    5    1   11    9       -0.0025853445
    5    1   10   10       -0.0000000248
    5    1   11   10       -0.0000346384
    5    1   11   11       -0.0000000123
    6    1    6    1        0.0009472393
    6    1    7    1       -0.0000000000
    6    1    8    1        0.0000010262
    6    1    9    1        0.0005347686
    6    1   10    1       -0.0000011006
    6    1   11    1        0.0000000001
    6    1    2    2       -0.0019559108
    6    1    3    2       -0.0000017248
    6    1    4    2        0.0000000013
    6    1    5    2        0.0000000000
    6    1    6    2        0.0000023331
    6    1    7    2       -0.0000000000
    6    1    8    2        0.0004453737
    6    1    9    2        0.0000020188
    6    1   10    2        0.0000000009
    6    1   11    2       -0.0000000000
    6    1    3    3       -0.0002323616
    6    1    4    3       -0.0000000733
    6    1    5    3       -0.0000000000
    6    1    6    3       -0.0012171711
    6    1    7    3        0.0000000000
    6    1    8    3       -0.0000078590
    6    1    9    3        0.0001741189
    6    1   10    3        0.0000001859
    6    1   11    3       -0.0000000000
    6    1    4    4       -0.0006341515
    6    1    5    4       -0.0000000000
    6    1    6    4        0.0000006511
    6    1    7    4       -0.0000000002
    6    1    8    4       -0.0000000007
    6    1    9    4       -0.0000000328
    6    1   10    4       -0.0006918665
    6    1   11    4       -0.0000002907
    6    1    5    5       -0.0006341498
    6    1    6    5        0.0000000003
    6    1    7    5        0.0000003220
    6    1    8    5       -0.0000000000
    6    1    9    5       -0.0000000000
    6    1   10    5       -0.0000002907
    6    1   11    5        0.0006918697
    6    1    6    6        0.0003182204
    6    1    7    6       -0.0000000000
    6    1    8    6        0.0000033182
    6    1    9    6        0.0010857389
    6    1   10    6        0.0000013711
    6    1   11    6       -0.0000000002
    6    1    7    7       -0.0005855005
    6    1    8    7       -0.0000000000
    6    1    9    7       -0.0000000000
    6    1   10    7       -0.0000000001
    6    1   11    7       -0.0000008136
    6    1    8    8       -0.0004078823
    6    1    9    8        0.0000007608
    6    1   10    8        0.0000000003
    6    1   11    8       -0.0000000000
    6    1    9    9       -0.0003153210
    6    1   10    9       -0.0000001635
    6    1   11    9        0.0000000001
    6    1   10   10       -0.0012576242
    6    1   11   10        0.0000000000
    6    1   11   11       -0.0012576259
    7    1    7    1        0.0001158551
    7    1    8    1       -0.0000000000
    7    1    9    1       -0.0000000000
    7    1   10    1       -0.0000000000
    7    1   11    1       -0.0000001003
    7    1    2    2        0.0000000000
    7    1    3    2        0.0000000000
    7    1    4    2       -0.0000000000
    7    1    5    2        0.0000000007
    7    1    6    2        0.0000000000
    7    1    7    2        0.0000000353
    7    1    8    2       -0.0000000000
    7    1    9    2       -0.0000000000
    7    1   10    2       -0.0000000000
    7    1   11    2       -0.0000000006
    7    1    3    3        0.0000000000
    7    1    4    3        0.0000000014
    7    1    5    3       -0.0000027883
    7    1    6    3        0.0000000000
    7    1    7    3       -0.0006163019
    7    1    8    3       -0.0000000000
    7    1    9    3       -0.0000000000
    7    1   10    3        0.0000000000
    7    1   11    3        0.0000002661
    7    1    4    4        0.0000002239
    7    1    5    4       -0.0002224873
    7    1    6    4        0.0000000003
    7    1    7    4       -0.0000015270
    7    1    8    4       -0.0000000000
    7    1    9    4       -0.0000000003
    7    1   10    4        0.0000003437
    7    1   11    4        0.0005862288
    7    1    5    5       -0.0000002239
    7    1    6    5       -0.0000005049
    7    1    7    5       -0.0000000008
    7    1    8    5        0.0000000039
    7    1    9    5        0.0000006117
    7    1   10    5       -0.0005862294
    7    1   11    5        0.0000003437
    7    1    6    6       -0.0000000000
    7    1    7    6       -0.0001726340
    7    1    8    6       -0.0000000000
    7    1    9    6       -0.0000000000
    7    1   10    6       -0.0000000000
    7    1   11    6       -0.0000001137
    7    1    7    7       -0.0000000000
    7    1    8    7        0.0000003806
    7    1    9    7        0.0004651383
    7    1   10    7       -0.0000020768
    7    1   11    7        0.0000000002
    7    1    8    8        0.0000000000
    7    1    9    8        0.0000000000
    7    1   10    8        0.0000000000
    7    1   11    8        0.0000000002
    7    1    9    9        0.0000000000
    7    1   10    9       -0.0000000002
    7    1   11    9       -0.0000019682
    7    1   10   10        0.0000000756
    7    1   11   10        0.0004555256
    7    1   11   11       -0.0000000756
    8    1    8    1        0.0026369456
    8    1    9    1        0.0000004892
    8    1   10    1        0.0000000002
    8    1   11    1       -0.0000000001
    8    1    2    2        0.0000003550
    8    1    3    2       -0.0018826869
    8    1    4    2       -0.0000003030
    8    1    5    2       -0.0000000002
    8    1    6    2       -0.0002129093
    8    1    7    2       -0.0000000000
    8    1    8    2       -0.0000000713
    8    1    9    2        0.0025054697
    8    1   10    2       -0.0000004301
    8    1   11    2       -0.0000000002
    8    1    3    3        0.0000021524
    8    1    4    3        0.0000000069
    8    1    5    3        0.0000000000
    8    1    6    3       -0.0000020522
    8    1    7    3       -0.0000000000
    8    1    8    3        0.0001250506
    8    1    9    3        0.0000016110
    8    1   10    3       -0.0000000035
    8    1   11    3       -0.0000000000
    8    1    4    4        0.0000018207
    8    1    5    4       -0.0000000000
    8    1    6    4       -0.0000000085
    8    1    7    4       -0.0000000000
    8    1    8    4       -0.0000009166
    8    1    9    4        0.0000000038
    8    1   10    4       -0.0000012575
    8    1   11    4       -0.0000000005
    8    1    5    5        0.0000018207
    8    1    6    5       -0.0000000000
    8    1    7    5        0.0000000035
    8    1    8    5       -0.0000000005
    8    1    9    5        0.0000000000
    8    1   10    5       -0.0000000005
    8    1   11    5        0.0000012574
    8    1    6    6        0.0000023248
    8    1    7    6       -0.0000000000
    8    1    8    6       -0.0000674148
    8    1    9    6       -0.0000006464
    8    1   10    6        0.0000000022
    8    1   11    6        0.0000000000
    8    1    7    7        0.0000021045
    8    1    8    7        0.0000000000
    8    1    9    7        0.0000000000
    8    1   10    7        0.0000000000
    8    1   11    7       -0.0000000030
    8    1    8    8        0.0000000057
    8    1    9    8       -0.0004895074
    8    1   10    8       -0.0000001308
    8    1   11    8        0.0000000001
    8    1    9    9        0.0000025960
    8    1   10    9       -0.0000000069
    8    1   11    9        0.0000000000
    8    1   10   10        0.0000022285
    8    1   11   10        0.0000000000
    8    1   11   11        0.0000022285
    9    1    9    1        0.0031133813
    9    1   10    1        0.0000000507
    9    1   11    1       -0.0000000003
    9    1    2    2       -0.0231347203
    9    1    3    2       -0.0000016601
    9    1    4    2        0.0000000022
    9    1    5    2        0.0000000000
    9    1    6    2        0.0000022711
    9    1    7    2       -0.0000000000
    9    1    8    2        0.0031422717
    9    1    9    2        0.0000015847
    9    1   10    2        0.0000000012
    9    1   11    2       -0.0000000001
    9    1    3    3       -0.0004065043
    9    1    4    3        0.0000008004
    9    1    5    3        0.0000000004
    9    1    6    3       -0.0000676190
    9    1    7    3       -0.0000000000
    9    1    8    3       -0.0000032981
    9    1    9    3        0.0005018923
    9    1   10    3        0.0000003331
    9    1   11    3       -0.0000000001
    9    1    4    4       -0.0007217226
    9    1    5    4       -0.0000000000
    9    1    6    4        0.0000007279
    9    1    7    4       -0.0000000004
    9    1    8    4        0.0000000042
    9    1    9    4       -0.0000004271
    9    1   10    4       -0.0009137079
    9    1   11    4       -0.0000003839
    9    1    5    5       -0.0007217198
    9    1    6    5        0.0000000004
    9    1    7    5        0.0000007151
    9    1    8    5        0.0000000000
    9    1    9    5       -0.0000000002
    9    1   10    5       -0.0000003839
    9    1   11    5        0.0009137100
    9    1    6    6       -0.0002511700
    9    1    7    6       -0.0000000000
    9    1    8    6        0.0000014539
    9    1    9    6        0.0000512620
    9    1   10    6        0.0000008594
    9    1   11    6       -0.0000000001
    9    1    7    7       -0.0001456546
    9    1    8    7        0.0000000000
    9    1    9    7        0.0000000000
    9    1   10    7       -0.0000000001
    9    1   11    7       -0.0000010131
    9    1    8    8       -0.0006614476
    9    1    9    8        0.0000005139
    9    1   10    8       -0.0000000005
    9    1   11    8        0.0000000000
    9    1    9    9       -0.0007578883
    9    1   10    9       -0.0000006653
    9    1   11    9        0.0000000001
    9    1   10   10       -0.0013720168
    9    1   11   10        0.0000000000
    9    1   11   11       -0.0013720173
   10    1   10    1        0.0036649147
   10    1   11    1        0.0000000000
   10    1    2    2       -0.0000003935
   10    1    3    2       -0.0000000002
   10    1    4    2        0.0000000617
   10    1    5    2        0.0000000000
   10    1    6    2        0.0000000012
   10    1    7    2       -0.0000000000
   10    1    8    2       -0.0000007011
   10    1    9    2        0.0000000010
   10    1   10    2       -0.0000000572
   10    1   11    2        0.0000000000
   10    1    3    3       -0.0000586128
   10    1    4    3       -0.0035050779
   10    1    5    3       -0.0000014728
   10    1    6    3       -0.0000285040
   10    1    7    3        0.0000000050
   10    1    8    3       -0.0000000040
   10    1    9    3       -0.0000157237
   10    1   10    3       -0.0012247533
   10    1   11    3        0.0000000000
   10    1    4    4       -0.0000222554
   10    1    5    4       -0.0000000012
   10    1    6    4       -0.0008662537
   10    1    7    4        0.0000010264
   10    1    8    4       -0.0000000888
   10    1    9    4        0.0021261245
   10    1   10    4        0.0000260290
   10    1   11    4        0.0000000087
   10    1    5    5       -0.0000232075
   10    1    6    5       -0.0000003640
   10    1    7    5       -0.0017508208
   10    1    8    5       -0.0000000000
   10    1    9    5        0.0000008933
   10    1   10    5        0.0000000133
   10    1   11    5       -0.0000267493
   10    1    6    6       -0.0000500281
   10    1    7    6        0.0000000019
   10    1    8    6        0.0000000018
   10    1    9    6        0.0000071991
   10    1   10    6       -0.0009049811
   10    1   11    6        0.0000000000
   10    1    7    7       -0.0000884623
   10    1    8    7        0.0000000000
   10    1    9    7       -0.0000000012
   10    1   10    7        0.0000004698
   10    1   11    7        0.0028291283
   10    1    8    8       -0.0000644040
   10    1    9    8        0.0000000001
   10    1   10    8       -0.0000000136
   10    1   11    8        0.0000000000
   10    1    9    9       -0.0000655511
   10    1   10    9        0.0031109014
   10    1   11    9        0.0000000000
   10    1   10   10       -0.0000421856
   10    1   11   10        0.0000000031
   10    1   11   11       -0.0000406931
   11    1   11    1        0.0036649171
   11    1    2    2        0.0000000024
   11    1    3    2        0.0000000000
   11    1    4    2        0.0000000000
   11    1    5    2       -0.0000000617
   11    1    6    2       -0.0000000000
   11    1    7    2       -0.0000000008
   11    1    8    2       -0.0000000003
   11    1    9    2       -0.0000000001
   11    1   10    2       -0.0000000000
   11    1   11    2       -0.0000000572
   11    1    3    3        0.0000000049
   11    1    4    3       -0.0000014728
   11    1    5    3        0.0035050799
   11    1    6    3        0.0000000023
   11    1    7    3        0.0000600840
   11    1    8    3        0.0000000000
   11    1    9    3        0.0000000013
   11    1   10    3        0.0000000000
   11    1   11    3       -0.0012247381
   11    1    4    4        0.0000000220
   11    1    5    4       -0.0000199806
   11    1    6    4       -0.0000003640
   11    1    7    4        0.0017508225
   11    1    8    4       -0.0000000000
   11    1    9    4        0.0000008933
   11    1   10    4       -0.0000000190
   11    1   11    4       -0.0000287322
   11    1    5    5       -0.0000000181
   11    1    6    5        0.0008662613
   11    1    7    5        0.0000010264
   11    1    8    5        0.0000000888
   11    1    9    5       -0.0021261152
   11    1   10    5        0.0000288274
   11    1   11    5       -0.0000000145
   11    1    6    6        0.0000000042
   11    1    7    6        0.0000227187
   11    1    8    6       -0.0000000000
   11    1    9    6       -0.0000000006
   11    1   10    6        0.0000000000
   11    1   11    6       -0.0009049570
   11    1    7    7        0.0000000073
   11    1    8    7        0.0000000018
   11    1    9    7       -0.0000147335
   11    1   10    7        0.0028291479
   11    1   11    7       -0.0000004698
   11    1    8    8        0.0000000054
   11    1    9    8        0.0000000000
   11    1   10    8       -0.0000000000
   11    1   11    8       -0.0000000136
   11    1    9    9        0.0000000055
   11    1   10    9        0.0000000000
   11    1   11    9        0.0031109028
   11    1   10   10        0.0000000100
   11    1   11   10        0.0000386337
   11    1   11   11       -0.0000000034
    2    2    2    2        0.3441142252
    2    2    3    2        0.0000086324
    2    2    4    2       -0.0000000094
    2    2    5    2       -0.0000000000
    2    2    6    2       -0.0000116500
    2    2    7    2        0.0000000001
    2    2    8    2       -0.0259071310
    2    2    9    2       -0.0000053261
    2    2   10    2       -0.0000000022
    2    2   11    2        0.0000000005
    2    2    3    3        0.1010519257
    2    2    4    3       -0.0000012636
    2    2    5    3       -0.0000000007
    2    2    6    3       -0.0022856134
    2    2    7    3        0.0000000000
    2    2    8    3       -0.0000009074
    2    2    9    3       -0.0227200336
    2    2   10    3       -0.0000006866
    2    2   11    3        0.0000000013
    2    2    4    4        0.1176004160
    2    2    5    4       -0.0000000000
    2    2    6    4       -0.0000066919
    2    2    7    4        0.0000000017
    2    2    8    4        0.0000000016
    2    2    9    4        0.0000020271
    2    2   10    4        0.0298923745
    2    2   11    4        0.0000125601
    2    2    5    5        0.1176004205
    2    2    6    5       -0.0000000034
    2    2    7    5       -0.0000034387
    2    2    8    5       -0.0000000000
    2    2    9    5        0.0000000010
    2    2   10    5        0.0000125601
    2    2   11    5       -0.0298923850
    2    2    6    6        0.1090742724
    2    2    7    6       -0.0000000000
    2    2    8    6        0.0000016678
    2    2    9    6        0.0022154383
    2    2   10    6       -0.0000107390
    2    2   11    6        0.0000000011
    2    2    7    7        0.1014713531
    2    2    8    7       -0.0000000000
    2    2    9    7       -0.0000000000
    2    2   10    7        0.0000000005
    2    2   11    7        0.0000065057
    2    2    8    8        0.1047554502
    2    2    9    8        0.0000009376
    2    2   10    8       -0.0000000005
    2    2   11    8       -0.0000000003
    2    2    9    9        0.1020793587
    2    2   10    9        0.0000012968
    2    2   11    9       -0.0000000026
    2    2   10   10        0.1220148669
    2    2   11   10        0.0000000000
    2    2   11   11        0.1220148835
    3    2    3    2        0.0014867199
    3    2    4    2        0.0000000872
    3    2    5    2        0.0000000000
    3    2    6    2       -0.0002208294
    3    2    7    2        0.0000000000
    3    2    8    2       -0.0000009837
    3    2    9    2       -0.0019648199
    3    2   10    2        0.0000002189
    3    2   11    2        0.0000000002
    3    2    3    3       -0.0000209228
    3    2    4    3       -0.0000000013
    3    2    5    3       -0.0000000000
    3    2    6    3        0.0000261532
    3    2    7    3       -0.0000000000
    3    2    8    3        0.0010827671
    3    2    9    3       -0.0000040184
    3    2   10    3        0.0000000120
    3    2   11    3       -0.0000000000
    3    2    4    4       -0.0000167748
    3    2    5    4        0.0000000000
    3    2    6    4        0.0000000029
    3    2    7    4        0.0000000000
    3    2    8    4        0.0000015621
    3    2    9    4       -0.0000000177
    3    2   10    4        0.0000080718
    3    2   11    4        0.0000000034
    3    2    5    5       -0.0000167748
    3    2    6    5        0.0000000000
    3    2    7    5       -0.0000000089
    3    2    8    5        0.0000000008
    3    2    9    5       -0.0000000000
    3    2   10    5        0.0000000034
    3    2   11    5       -0.0000080718
    3    2    6    6       -0.0000379563
    3    2    7    6        0.0000000000
    3    2    8    6       -0.0003064364
    3    2    9    6       -0.0000088668
    3    2   10    6       -0.0000000210
    3    2   11    6        0.0000000000
    3    2    7    7       -0.0000159207
    3    2    8    7        0.0000000000
    3    2    9    7        0.0000000000
    3    2   10    7        0.0000000000
    3    2   11    7        0.0000000093
    3    2    8    8        0.0000006576
    3    2    9    8        0.0000668273
    3    2   10    8        0.0000001197
    3    2   11    8       -0.0000000000
    3    2    9    9       -0.0000236927
    3    2   10    9        0.0000000078
    3    2   11    9        0.0000000000
    3    2   10   10       -0.0000145554
    3    2   11   10       -0.0000000000
    3    2   11   11       -0.0000145554
    4    2    4    2        0.0013316226
    4    2    5    2        0.0000000000
    4    2    6    2        0.0000000422
    4    2    7    2       -0.0000000000
    4    2    8    2        0.0000000009
    4    2    9    2        0.0000002460
    4    2   10    2        0.0016244216
    4    2   11    2        0.0000006825
    4    2    3    3       -0.0000001780
    4    2    4    3       -0.0000136344
    4    2    5    3        0.0000000000
    4    2    6    3        0.0000000881
    4    2    7    3        0.0000000001
    4    2    8    3        0.0000154369
    4    2    9    3       -0.0000002571
    4    2   10    3        0.0000045060
    4    2   11    3        0.0000000019
    4    2    4    4       -0.0000000177
    4    2    5    4       -0.0000000000
    4    2    6    4        0.0000159444
    4    2    7    4        0.0000000043
    4    2    8    4        0.0017457200
    4    2    9    4       -0.0000019631
    4    2   10    4        0.0000001268
    4    2   11    4       -0.0000000000
    4    2    5    5       -0.0000000352
    4    2    6    5        0.0000000000
    4    2    7    5       -0.0000042277
    4    2    8    5        0.0000000000
    4    2    9    5       -0.0000000000
    4    2   10    5        0.0000000001
    4    2   11    5       -0.0000001161
    4    2    6    6       -0.0000000559
    4    2    7    6       -0.0000000001
    4    2    8    6        0.0000038195
    4    2    9    6        0.0000001282
    4    2   10    6       -0.0000011369
    4    2   11    6       -0.0000000005
    4    2    7    7       -0.0000002615
    4    2    8    7       -0.0000000093
    4    2    9    7        0.0000000001
    4    2   10    7        0.0000000029
    4    2   11    7        0.0000049469
    4    2    8    8       -0.0000000096
    4    2    9    8        0.0000080050
    4    2   10    8        0.0004890218
    4    2   11    8        0.0000002055
    4    2    9    9       -0.0000004360
    4    2   10    9        0.0000091230
    4    2   11    9        0.0000000038
    4    2   10   10       -0.0000002340
    4    2   11   10        0.0000000001
    4    2   11   11       -0.0000002307
    5    2    5    2        0.0013316226
    5    2    6    2        0.0000000000
    5    2    7    2        0.0000000616
    5    2    8    2        0.0000000000
    5    2    9    2        0.0000000001
    5    2   10    2        0.0000006825
    5    2   11    2       -0.0016244216
    5    2    3    3       -0.0000000001
    5    2    4    3        0.0000000000
    5    2    5    3       -0.0000136344
    5    2    6    3        0.0000000000
    5    2    7    3       -0.0000002107
    5    2    8    3        0.0000000078
    5    2    9    3       -0.0000000001
    5    2   10    3        0.0000000019
    5    2   11    3       -0.0000045060
    5    2    4    4       -0.0000000001
    5    2    5    4        0.0000000808
    5    2    6    4       -0.0000000000
    5    2    7    4       -0.0000042276
    5    2    8    4        0.0000000000
    5    2    9    4       -0.0000000000
    5    2   10    4        0.0000000001
    5    2   11    4        0.0000001332
    5    2    5    5        0.0000000001
    5    2    6    5        0.0000159444
    5    2    7    5       -0.0000000043
    5    2    8    5        0.0017457148
    5    2    9    5       -0.0000019631
    5    2   10    5       -0.0000001348
    5    2   11    5        0.0000000000
    5    2    6    6       -0.0000000000
    5    2    7    6        0.0000001629
    5    2    8    6        0.0000000019
    5    2    9    6        0.0000000001
    5    2   10    6       -0.0000000005
    5    2   11    6        0.0000011368
    5    2    7    7       -0.0000000001
    5    2    8    7        0.0000183936
    5    2    9    7       -0.0000001470
    5    2   10    7       -0.0000049469
    5    2   11    7        0.0000000029
    5    2    8    8       -0.0000000000
    5    2    9    8        0.0000000040
    5    2   10    8        0.0000002055
    5    2   11    8       -0.0004890283
    5    2    9    9       -0.0000000002
    5    2   10    9        0.0000000038
    5    2   11    9       -0.0000091228
    5    2   10   10       -0.0000000002
    5    2   11   10       -0.0000002629
    5    2   11   11       -0.0000000000
    6    2    6    2        0.0012958396
    6    2    7    2       -0.0000000000
    6    2    8    2        0.0000014644
    6    2    9    2        0.0003064566
    6    2   10    2       -0.0000003113
    6    2   11    2        0.0000000000
    6    2    3    3        0.0000435613
    6    2    4    3       -0.0000000368
    6    2    5    3       -0.0000000000
    6    2    6    3       -0.0000572694
    6    2    7    3        0.0000000000
    6    2    8    3       -0.0022748344
    6    2    9    3        0.0000017845
    6    2   10    3       -0.0000000112
    6    2   11    3        0.0000000000
    6    2    4    4        0.0000355122
    6    2    5    4       -0.0000000000
    6    2    6    4        0.0000000308
    6    2    7    4       -0.0000000000
    6    2    8    4       -0.0000001645
    6    2    9    4        0.0000000228
    6    2   10    4       -0.0000133705
    6    2   11    4       -0.0000000056
    6    2    5    5        0.0000355122
    6    2    6    5        0.0000000000
    6    2    7    5        0.0000000023
    6    2    8    5       -0.0000000001
    6    2    9    5        0.0000000000
    6    2   10    5       -0.0000000056
    6    2   11    5        0.0000133706
    6    2    6    6        0.0000878555
    6    2    7    6       -0.0000000000
    6    2    8    6        0.0010467922
    6    2    9    6        0.0000261450
    6    2   10    6        0.0000000413
    6    2   11    6       -0.0000000000
    6    2    7    7        0.0000312576
    6    2    8    7       -0.0000000000
    6    2    9    7       -0.0000000000
    6    2   10    7       -0.0000000000
    6    2   11    7       -0.0000000050
    6    2    8    8       -0.0000009353
    6    2    9    8        0.0007334298
    6    2   10    8       -0.0000002659
    6    2   11    8       -0.0000000000
    6    2    9    9        0.0000483817
    6    2   10    9        0.0000000230
    6    2   11    9       -0.0000000000
    6    2   10   10        0.0000278319
    6    2   11   10       -0.0000000000
    6    2   11   11        0.0000278319
    7    2    7    2        0.0000999069
    7    2    8    2       -0.0000000000
    7    2    9    2       -0.0000000000
    7    2   10    2        0.0000000000
    7    2   11    2        0.0000000567
    7    2    3    3        0.0000000000
    7    2    4    3        0.0000000000
    7    2    5    3       -0.0000000272
    7    2    6    3        0.0000000000
    7    2    7    3       -0.0000032191
    7    2    8    3        0.0000000000
    7    2    9    3       -0.0000000000
    7    2   10    3       -0.0000000000
    7    2   11    3       -0.0000000096
    7    2    4    4        0.0000000005
    7    2    5    4       -0.0000004785
    7    2    6    4       -0.0000000000
    7    2    7    4       -0.0000000098
    7    2    8    4       -0.0000000010
    7    2    9    4        0.0000000000
    7    2   10    4        0.0000000010
    7    2   11    4        0.0000016253
    7    2    5    5       -0.0000000005
    7    2    6    5        0.0000000245
    7    2    7    5       -0.0000000000
    7    2    8    5        0.0000020544
    7    2    9    5       -0.0000000107
    7    2   10    5       -0.0000016253
    7    2   11    5        0.0000000009
    7    2    6    6        0.0000000000
    7    2    7    6        0.0000034607
    7    2    8    6       -0.0000000000
    7    2    9    6       -0.0000000000
    7    2   10    6        0.0000000000
    7    2   11    6        0.0000000021
    7    2    7    7       -0.0000000000
    7    2    8    7        0.0005379762
    7    2    9    7       -0.0000004583
    7    2   10    7       -0.0000000103
    7    2   11    7       -0.0000000000
    7    2    8    8        0.0000000000
    7    2    9    8        0.0000000000
    7    2   10    8       -0.0000000000
    7    2   11    8       -0.0000002512
    7    2    9    9        0.0000000000
    7    2   10    9       -0.0000000000
    7    2   11    9       -0.0000000213
    7    2   10   10       -0.0000000003
    7    2   11   10       -0.0000016989
    7    2   11   11        0.0000000003
    8    2    8    2        0.0033409725
    8    2    9    2        0.0000006824
    8    2   10    2        0.0000000002
    8    2   11    2       -0.0000000001
    8    2    3    3       -0.0005761143
    8    2    4    3        0.0000048101
    8    2    5    3        0.0000000024
    8    2    6    3       -0.0001971066
    8    2    7    3       -0.0000000000
    8    2    8    3       -0.0000004410
    8    2    9    3        0.0008366432
    8    2   10    3        0.0000001629
    8    2   11    3       -0.0000000001
    8    2    4    4       -0.0011635423
    8    2    5    4        0.0000000000
    8    2    6    4        0.0000012515
    8    2    7    4       -0.0000000012
    8    2    8    4       -0.0000000010
    8    2    9    4       -0.0000007066
    8    2   10    4       -0.0014480012
    8    2   11    4       -0.0000006084
    8    2    5    5       -0.0011635507
    8    2    6    5        0.0000000006
    8    2    7    5        0.0000024448
    8    2    8    5       -0.0000000000
    8    2    9    5       -0.0000000004
    8    2   10    5       -0.0000006084
    8    2   11    5        0.0014479990
    8    2    6    6       -0.0007047970
    8    2    7    6        0.0000000000
    8    2    8    6       -0.0000000087
    8    2    9    6        0.0001322470
    8    2   10    6        0.0000011680
    8    2   11    6       -0.0000000001
    8    2    7    7       -0.0003727595
    8    2    8    7        0.0000000000
    8    2    9    7        0.0000000000
    8    2   10    7       -0.0000000003
    8    2   11    7       -0.0000036666
    8    2    8    8       -0.0007710334
    8    2    9    8        0.0000000068
    8    2   10    8        0.0000000002
    8    2   11    8        0.0000000000
    8    2    9    9       -0.0010971547
    8    2   10    9       -0.0000036145
    8    2   11    9        0.0000000004
    8    2   10   10       -0.0019946063
    8    2   11   10       -0.0000000000
    8    2   11   11       -0.0019946125
    9    2    9    2        0.0026335646
    9    2   10    2        0.0000000405
    9    2   11    2       -0.0000000003
    9    2    3    3        0.0000198515
    9    2    4    3       -0.0000000285
    9    2    5    3       -0.0000000000
    9    2    6    3       -0.0000259774
    9    2    7    3        0.0000000000
    9    2    8    3       -0.0008853088
    9    2    9    3        0.0000010725
    9    2   10    3        0.0000000013
    9    2   11    3        0.0000000000
    9    2    4    4        0.0000163096
    9    2    5    4       -0.0000000000
    9    2    6    4        0.0000000240
    9    2    7    4        0.0000000000
    9    2    8    4        0.0000005109
    9    2    9    4        0.0000000046
    9    2   10    4       -0.0000060906
    9    2   11    4       -0.0000000026
    9    2    5    5        0.0000163096
    9    2    6    5        0.0000000000
    9    2    7    5       -0.0000000022
    9    2    8    5        0.0000000003
    9    2    9    5        0.0000000000
    9    2   10    5       -0.0000000026
    9    2   11    5        0.0000060907
    9    2    6    6        0.0000399094
    9    2    7    6       -0.0000000000
    9    2    8    6        0.0003655806
    9    2    9    6        0.0000115082
    9    2   10    6        0.0000000163
    9    2   11    6       -0.0000000000
    9    2    7    7        0.0000146117
    9    2    8    7        0.0000000000
    9    2    9    7       -0.0000000000
    9    2   10    7        0.0000000000
    9    2   11    7        0.0000000022
    9    2    8    8       -0.0000003440
    9    2    9    8       -0.0000315451
    9    2   10    8       -0.0000003644
    9    2   11    8        0.0000000001
    9    2    9    9        0.0000219056
    9    2   10    9        0.0000000221
    9    2   11    9       -0.0000000000
    9    2   10   10        0.0000129107
    9    2   11   10       -0.0000000000
    9    2   11   11        0.0000129108
   10    2   10    2        0.0020829656
   10    2   11    2       -0.0000000000
   10    2    3    3       -0.0000001314
   10    2    4    3       -0.0000095534
   10    2    5    3       -0.0000000040
   10    2    6    3        0.0000000742
   10    2    7    3        0.0000000000
   10    2    8    3        0.0000129383
   10    2    9    3       -0.0000001859
   10    2   10    3        0.0000021950
   10    2   11    3       -0.0000000000
   10    2    4    4        0.0000000014
   10    2    5    4        0.0000000000
   10    2    6    4        0.0000119630
   10    2    7    4        0.0000000023
   10    2    8    4        0.0014869512
   10    2    9    4       -0.0000006910
   10    2   10    4        0.0000000848
   10    2   11    4        0.0000000000
   10    2    5    5       -0.0000000390
   10    2    6    5        0.0000000050
   10    2    7    5       -0.0000038878
   10    2    8    5        0.0000006248
   10    2    9    5       -0.0000000003
   10    2   10    5        0.0000000000
   10    2   11    5       -0.0000000988
   10    2    6    6       -0.0000000412
   10    2    7    6       -0.0000000000
   10    2    8    6        0.0000029318
   10    2    9    6        0.0000000983
   10    2   10    6        0.0000001016
   10    2   11    6        0.0000000000
   10    2    7    7       -0.0000002063
   10    2    8    7       -0.0000000013
   10    2    9    7        0.0000000000
   10    2   10    7        0.0000000005
   10    2   11    7        0.0000029737
   10    2    8    8        0.0000000006
   10    2    9    8        0.0000050662
   10    2   10    8        0.0007182018
   10    2   11    8       -0.0000000000
   10    2    9    9       -0.0000002998
   10    2   10    9        0.0000056315
   10    2   11    9       -0.0000000000
   10    2   10   10       -0.0000001662
   10    2   11   10       -0.0000000000
   10    2   11   11       -0.0000001828
   11    2   11    2        0.0020829656
   11    2    3    3        0.0000000000
   11    2    4    3       -0.0000000040
   11    2    5    3        0.0000095536
   11    2    6    3        0.0000000000
   11    2    7    3        0.0000001626
   11    2    8    3       -0.0000000010
   11    2    9    3        0.0000000000
   11    2   10    3        0.0000000000
   11    2   11    3        0.0000021954
   11    2    4    4        0.0000000001
   11    2    5    4       -0.0000000593
   11    2    6    4        0.0000000050
   11    2    7    4        0.0000038876
   11    2    8    4        0.0000006248
   11    2    9    4       -0.0000000003
   11    2   10    4       -0.0000000000
   11    2   11    4       -0.0000001000
   11    2    5    5       -0.0000000000
   11    2    6    5       -0.0000119630
   11    2    7    5        0.0000000023
   11    2    8    5       -0.0014869623
   11    2    9    5        0.0000006914
   11    2   10    5        0.0000000969
   11    2   11    5       -0.0000000001
   11    2    6    6        0.0000000000
   11    2    7    6       -0.0000001338
   11    2    8    6       -0.0000000003
   11    2    9    6       -0.0000000000
   11    2   10    6       -0.0000000000
   11    2   11    6        0.0000001015
   11    2    7    7        0.0000000000
   11    2    8    7       -0.0000161950
   11    2    9    7        0.0000001143
   11    2   10    7        0.0000029739
   11    2   11    7       -0.0000000005
   11    2    8    8        0.0000000000
   11    2    9    8       -0.0000000004
   11    2   10    8       -0.0000000000
   11    2   11    8        0.0007181820
   11    2    9    9        0.0000000000
   11    2   10    9        0.0000000000
   11    2   11    9        0.0000056320
   11    2   10   10        0.0000000001
   11    2   11   10        0.0000001959
   11    2   11   11       -0.0000000000
    3    3    3    3        0.0878401047
    3    3    4    3        0.0003668044
    3    3    5    3        0.0000001846
    3    3    6    3        0.0006254076
    3    3    7    3        0.0000000000
    3    3    8    3       -0.0002623729
    3    3    9    3       -0.0061352661
    3    3   10    3       -0.0000286635
    3    3   11    3        0.0000000025
    3    3    4    4        0.0918591182
    3    3    5    4        0.0000000011
    3    3    6    4        0.0000677461
    3    3    7    4       -0.0000000680
    3    3    8    4       -0.0000015912
    3    3    9    4       -0.0000267291
    3    3   10    4        0.0053216228
    3    3   11    4        0.0000022365
    3    3    5    5        0.0918569266
    3    3    6    5        0.0000000341
    3    3    7    5        0.0001351454
    3    3    8    5       -0.0000000008
    3    3    9    5       -0.0000000135
    3    3   10    5        0.0000022359
    3    3   11    5       -0.0053224839
    3    3    6    6        0.0894196075
    3    3    7    6       -0.0000000000
    3    3    8    6        0.0000755015
    3    3    9    6       -0.0003000782
    3    3   10    6        0.0000138060
    3    3   11    6       -0.0000000011
    3    3    7    7        0.0889366833
    3    3    8    7       -0.0000000000
    3    3    9    7        0.0000000000
    3    3   10    7       -0.0000000187
    3    3   11    7       -0.0002257725
    3    3    8    8        0.0893124158
    3    3    9    8       -0.0000198069
    3    3   10    8        0.0000003794
    3    3   11    8       -0.0000000001
    3    3    9    9        0.0846782190
    3    3   10    9       -0.0002762529
    3    3   11    9        0.0000000223
    3    3   10   10        0.0900492276
    3    3   11   10       -0.0000000001
    3    3   11   11        0.0900483401
    4    3    4    3        0.0177537211
    4    3    5    3        0.0000000010
    4    3    6    3        0.0001655021
    4    3    7    3       -0.0000001696
    4    3    8    3       -0.0000014740
    4    3    9    3        0.0001780730
    4    3   10    3       -0.0018343074
    4    3   11    3       -0.0000007695
    4    3    4    4        0.0002440166
    4    3    5    4        0.0000001755
    4    3    6    4        0.0018012608
    4    3    7    4       -0.0000038912
    4    3    8    4       -0.0000855814
    4    3    9    4       -0.0030947087
    4    3   10    4       -0.0002123985
    4    3   11    4        0.0000000299
    4    3    5    5        0.0000233272
    4    3    6    5        0.0000000006
    4    3    7    5        0.0038657923
    4    3    8    5        0.0000000000
    4    3    9    5        0.0000000007
    4    3   10    5       -0.0000001957
    4    3   11    5        0.0001404452
    4    3    6    6        0.0003072804
    4    3    7    6       -0.0000000500
    4    3    8    6       -0.0000002413
    4    3    9    6       -0.0000144970
    4    3   10    6        0.0006456368
    4    3   11    6        0.0000002718
    4    3    7    7        0.0004723670
    4    3    8    7        0.0000000008
    4    3    9    7        0.0000000162
    4    3   10    7       -0.0000065392
    4    3   11    7       -0.0111559056
    4    3    8    8        0.0004023413
    4    3    9    8       -0.0000013106
    4    3   10    8        0.0000234483
    4    3   11    8        0.0000000098
    4    3    9    9        0.0004723621
    4    3   10    9       -0.0121237034
    4    3   11    9       -0.0000050928
    4    3   10   10        0.0002957315
    4    3   11   10       -0.0000001363
    4    3   11   11        0.0002369074
    5    3    5    3        0.0177517826
    5    3    6    3        0.0000000832
    5    3    7    3        0.0003369826
    5    3    8    3       -0.0000000007
    5    3    9    3        0.0000000896
    5    3   10    3       -0.0000007709
    5    3   11    3        0.0018317622
    5    3    4    4        0.0000002517
    5    3    5    4       -0.0001281293
    5    3    6    4        0.0000000006
    5    3    7    4        0.0038669512
    5    3    8    4        0.0000000000
    5    3    9    4        0.0000000007
    5    3   10    4       -0.0000002210
    5    3   11    4       -0.0001643349
    5    3    5    5       -0.0000001172
    5    3    6    5        0.0018001076
    5    3    7    5        0.0000038912
    5    3    8    5       -0.0000855738
    5    3    9    5       -0.0030961727
    5    3   10    5        0.0001997483
    5    3   11    5       -0.0000000283
    5    3    6    6        0.0000001546
    5    3    7    6        0.0000993193
    5    3    8    6       -0.0000000001
    5    3    9    6       -0.0000000073
    5    3   10    6        0.0000002712
    5    3   11    6       -0.0006466320
    5    3    7    7        0.0000002377
    5    3    8    7       -0.0000015591
    5    3    9    7       -0.0000321184
    5    3   10    7        0.0111543577
    5    3   11    7       -0.0000065399
    5    3    8    8        0.0000002024
    5    3    9    8       -0.0000000007
    5    3   10    8        0.0000000098
    5    3   11    8       -0.0000234345
    5    3    9    9        0.0000002377
    5    3   10    9       -0.0000050943
    5    3   11    9        0.0121210834
    5    3   10   10        0.0000001923
    5    3   11   10        0.0002619101
    5    3   11   11        0.0000000751
    6    3    6    3        0.0093766271
    6    3    7    3       -0.0000000000
    6    3    8    3        0.0002820115
    6    3    9    3       -0.0000660342
    6    3   10    3       -0.0000102246
    6    3   11    3        0.0000000008
    6    3    4    4        0.0005268884
    6    3    5    4        0.0000000009
    6    3    6    4        0.0000828926
    6    3    7    4       -0.0000000243
    6    3    8    4        0.0000009407
    6    3    9    4       -0.0000301521
    6    3   10    4        0.0001863800
    6    3   11    4        0.0000000786
    6    3    5    5        0.0005250415
    6    3    6    5        0.0000000417
    6    3    7    5        0.0000481507
    6    3    8    5        0.0000000005
    6    3    9    5       -0.0000000152
    6    3   10    5        0.0000000783
    6    3   11    5       -0.0001869619
    6    3    6    6       -0.0002357260
    6    3    7    6        0.0000000000
    6    3    8    6       -0.0000943644
    6    3    9    6       -0.0042298821
    6    3   10    6        0.0000034365
    6    3   11    6       -0.0000000004
    6    3    7    7        0.0010846035
    6    3    8    7        0.0000000000
    6    3    9    7        0.0000000000
    6    3   10    7       -0.0000000087
    6    3   11    7       -0.0001038317
    6    3    8    8        0.0023522897
    6    3    9    8       -0.0000029174
    6    3   10    8       -0.0000001090
    6    3   11    8        0.0000000001
    6    3    9    9        0.0004669636
    6    3   10    9       -0.0001206964
    6    3   11    9        0.0000000099
    6    3   10   10        0.0011544232
    6    3   11   10       -0.0000000000
    6    3   11   11        0.0011538555
    7    3    7    3        0.0097482771
    7    3    8    3       -0.0000000000
    7    3    9    3        0.0000000000
    7    3   10    3       -0.0000000014
    7    3   11    3       -0.0000171923
    7    3    4    4       -0.0000006479
    7    3    5    4        0.0006438134
    7    3    6    4       -0.0000000256
    7    3    7    4        0.0001601336
    7    3    8    4        0.0000000007
    7    3    9    4        0.0000000294
    7    3   10    4       -0.0000036107
    7    3   11    4       -0.0061590121
    7    3    5    5        0.0000006480
    7    3    6    5        0.0000509394
    7    3    7    5        0.0000000806
    7    3    8    5       -0.0000014799
    7    3    9    5       -0.0000584244
    7    3   10    5        0.0061590621
    7    3   11    5       -0.0000036107
    7    3    6    6        0.0000000000
    7    3    7    6        0.0006422201
    7    3    8    6        0.0000000000
    7    3    9    6        0.0000000000
    7    3   10    6       -0.0000000021
    7    3   11    6       -0.0000244162
    7    3    7    7        0.0000000000
    7    3    8    7       -0.0000478336
    7    3    9    7       -0.0043702493
    7    3   10    7        0.0002289466
    7    3   11    7       -0.0000000194
    7    3    8    8        0.0000000000
    7    3    9    8       -0.0000000000
    7    3   10    8       -0.0000000000
    7    3   11    8       -0.0000001358
    7    3    9    9       -0.0000000000
    7    3   10    9        0.0000000204
    7    3   11    9        0.0002461077
    7    3   10   10        0.0000000160
    7    3   11   10        0.0000960572
    7    3   11   11       -0.0000000159
    8    3    8    3        0.0184339173
    8    3    9    3       -0.0001031321
    8    3   10    3        0.0000009953
    8    3   11    3       -0.0000000001
    8    3    4    4       -0.0002077668
    8    3    5    4       -0.0000000000
    8    3    6    4        0.0000014904
    8    3    7    4        0.0000000003
    8    3    8    4        0.0001461643
    8    3    9    4       -0.0000010849
    8    3   10    4        0.0001150121
    8    3   11    4        0.0000000483
    8    3    5    5       -0.0002077596
    8    3    6    5        0.0000000007
    8    3    7    5       -0.0000005681
    8    3    8    5        0.0000000735
    8    3    9    5       -0.0000000005
    8    3   10    5        0.0000000483
    8    3   11    5       -0.0001150029
    8    3    6    6       -0.0003842555
    8    3    7    6        0.0000000000
    8    3    8    6       -0.0011978339
    8    3    9    6       -0.0000402317
    8    3   10    6       -0.0000005740
    8    3   11    6        0.0000000002
    8    3    7    7       -0.0002094281
    8    3    8    7       -0.0000000000
    8    3    9    7       -0.0000000000
    8    3   10    7        0.0000000000
    8    3   11    7        0.0000005996
    8    3    8    8       -0.0000002109
    8    3    9    8        0.0005237770
    8    3   10    8       -0.0000204082
    8    3   11    8        0.0000000017
    8    3    9    9       -0.0003351459
    8    3   10    9        0.0000016736
    8    3   11    9        0.0000000001
    8    3   10   10       -0.0002235264
    8    3   11   10       -0.0000000000
    8    3   11   11       -0.0002235166
    9    3    9    3        0.0081414501
    9    3   10    3       -0.0000824694
    9    3   11    3        0.0000000068
    9    3    4    4       -0.0097684448
    9    3    5    4        0.0000000017
    9    3    6    4        0.0000114132
    9    3    7    4       -0.0000000116
    9    3    8    4       -0.0000022729
    9    3    9    4        0.0000523740
    9    3   10    4       -0.0070495725
    9    3   11    4       -0.0000029613
    9    3    5    5       -0.0097718340
    9    3    6    5        0.0000000057
    9    3    7    5        0.0000230631
    9    3    8    5       -0.0000000011
    9    3    9    5        0.0000000264
    9    3   10    5       -0.0000029622
    9    3   11    5        0.0070481053
    9    3    6    6       -0.0099085270
    9    3    7    6        0.0000000000
    9    3    8    6        0.0000040296
    9    3    9    6        0.0000467141
    9    3   10    6       -0.0000111114
    9    3   11    6        0.0000000008
    9    3    7    7       -0.0094307643
    9    3    8    7       -0.0000000000
    9    3    9    7       -0.0000000000
    9    3   10    7       -0.0000000066
    9    3   11    7       -0.0000791560
    9    3    8    8       -0.0063020435
    9    3    9    8       -0.0000558051
    9    3   10    8        0.0000008239
    9    3   11    8        0.0000000000
    9    3    9    9       -0.0034441734
    9    3   10    9       -0.0001499291
    9    3   11    9        0.0000000132
    9    3   10   10       -0.0084567677
    9    3   11   10       -0.0000000001
    9    3   11   11       -0.0084581698
   10    3   10    3        0.0055566303
   10    3   11    3       -0.0000000003
   10    3    4    4       -0.0001584646
   10    3    5    4       -0.0000001531
   10    3    6    4       -0.0000534084
   10    3    7    4       -0.0000021700
   10    3    8    4        0.0000509998
   10    3    9    4       -0.0037580318
   10    3   10    4        0.0000696271
   10    3   11    4       -0.0000000245
   10    3    5    5        0.0001443718
   10    3    6    5       -0.0000000226
   10    3    7    5        0.0037018417
   10    3    8    5        0.0000000214
   10    3    9    5       -0.0000015792
   10    3   10    5        0.0000000413
   10    3   11    5        0.0000386854
   10    3    6    6       -0.0000216789
   10    3    7    6       -0.0000000012
   10    3    8    6        0.0000001862
   10    3    9    6       -0.0000294141
   10    3   10    6        0.0006153680
   10    3   11    6       -0.0000000001
   10    3    7    7        0.0000443740
   10    3    8    7       -0.0000000001
   10    3    9    7        0.0000000033
   10    3   10    7        0.0000000587
   10    3   11    7        0.0003543834
   10    3    8    8       -0.0000302844
   10    3    9    8        0.0000010441
   10    3   10    8       -0.0000368498
   10    3   11    8        0.0000000000
   10    3    9    9       -0.0001105813
   10    3   10    9        0.0011594500
   10    3   11    9       -0.0000000003
   10    3   10   10       -0.0000668987
   10    3   11   10        0.0000000095
   10    3   11   11        0.0000166860
   11    3   11    3        0.0055530370
   11    3    4    4        0.0000000225
   11    3    5    4       -0.0000090213
   11    3    6    4       -0.0000000217
   11    3    7    4       -0.0037002637
   11    3    8    4        0.0000000214
   11    3    9    4       -0.0000015779
   11    3   10    4       -0.0000000236
   11    3   11    4        0.0000080052
   11    3    5    5       -0.0000000208
   11    3    6    5        0.0000519752
   11    3    7    5       -0.0000021694
   11    3    8    5       -0.0000509831
   11    3    9    5        0.0037558613
   11    3   10    5        0.0000372372
   11    3   11    5       -0.0000000026
   11    3    6    6        0.0000000020
   11    3    7    6       -0.0000138659
   11    3    8    6        0.0000000000
   11    3    9    6        0.0000000024
   11    3   10    6       -0.0000000001
   11    3   11    6        0.0006139680
   11    3    7    7       -0.0000000037
   11    3    8    7       -0.0000006937
   11    3    9    7        0.0000395494
   11    3   10    7        0.0003521903
   11    3   11    7       -0.0000000587
   11    3    8    8        0.0000000027
   11    3    9    8       -0.0000000000
[...]
    8    5    8    8        0.0000000000
    8    5    9    8        0.0000000464
    8    5   10    8       -0.0000007103
    8    5   11    8        0.0016889204
    8    5    9    9       -0.0000000022
    8    5   10    9        0.0000000337
    8    5   11    9       -0.0000801267
    8    5   10   10       -0.0000000015
    8    5   11   10       -0.0000020702
    8    5   11   11       -0.0000000003
    9    5    9    5        0.0047979229
    9    5   10    5       -0.0000062254
    9    5   11    5       -0.0000000134
    9    5    6    6       -0.0000000188
    9    5    7    6       -0.0000375314
    9    5    8    6       -0.0000000001
    9    5    9    6        0.0000000122
    9    5   10    6       -0.0000002025
    9    5   11    6        0.0004812327
    9    5    7    7       -0.0000000497
    9    5    8    7       -0.0000007590
    9    5    9    7        0.0000461121
    9    5   10    7       -0.0028597059
    9    5   11    7        0.0000016758
    9    5    8    8       -0.0000000153
    9    5    9    8       -0.0000000005
    9    5   10    8        0.0000000125
    9    5   11    8       -0.0000296053
    9    5    9    9        0.0000000189
    9    5   10    9        0.0000005735
    9    5   11    9       -0.0013679727
    9    5   10   10        0.0000000094
    9    5   11   10       -0.0000046776
    9    5   11   11       -0.0000000182
   10    5   10    5        0.0053845839
   10    5   11    5       -0.0000051163
   10    5    6    6        0.0000034612
   10    5    7    6        0.0007611685
   10    5    8    6       -0.0000000094
   10    5    9    6       -0.0000000962
   10    5   10    6       -0.0000000003
   10    5   11    6       -0.0000009292
   10    5    7    7        0.0000031332
   10    5    8    7       -0.0000245635
   10    5    9    7       -0.0029311512
   10    5   10    7        0.0001339577
   10    5   11    7        0.0000000554
   10    5    8    8        0.0000023798
   10    5    9    8        0.0000000119
   10    5   10    8       -0.0000000006
   10    5   11    8       -0.0000003760
   10    5    9    9        0.0000021548
   10    5   10    9        0.0000001021
   10    5   11    9        0.0001469322
   10    5   10   10        0.0000040297
   10    5   11   10       -0.0007511642
   10    5   11   11        0.0000046040
   11    5   11    5        0.0105783349
   11    5    6    6       -0.0082384734
   11    5    7    6       -0.0000004462
   11    5    8    6        0.0000224336
   11    5    9    6        0.0002281774
   11    5   10    6        0.0000176525
   11    5   11    6        0.0000000046
   11    5    7    7       -0.0074568775
   11    5    8    7        0.0000000144
   11    5    9    7        0.0000017183
   11    5   10    7       -0.0000000601
   11    5   11    7       -0.0000689372
   11    5    8    8       -0.0056649959
   11    5    9    8       -0.0000283709
   11    5   10    8       -0.0000005518
   11    5   11    8        0.0000000003
   11    5    9    9       -0.0051318183
   11    5   10    9       -0.0000700443
   11    5   11    9       -0.0000000675
   11    5   10   10       -0.0105509102
   11    5   11   10        0.0000004864
   11    5   11   11       -0.0099970161
    6    6    6    6        0.0968327884
    6    6    7    6       -0.0000000000
    6    6    8    6        0.0001412640
    6    6    9    6        0.0022639012
    6    6   10    6        0.0000060744
    6    6   11    6       -0.0000000007
    6    6    7    7        0.0896730932
    6    6    8    7       -0.0000000000
    6    6    9    7        0.0000000000
    6    6   10    7       -0.0000000159
    6    6   11    7       -0.0001909620
    6    6    8    8        0.0893459938
    6    6    9    8        0.0000259052
    6    6   10    8        0.0000000685
    6    6   11    8       -0.0000000001
    6    6    9    9        0.0853052420
    6    6   10    9       -0.0002187162
    6    6   11    9        0.0000000172
    6    6   10   10        0.0913063460
    6    6   11   10       -0.0000000001
    6    6   11   11        0.0913055337
    7    6    7    6        0.0037289292
    7    6    8    6       -0.0000000000
    7    6    9    6       -0.0000000000
    7    6   10    6       -0.0000000018
    7    6   11    6       -0.0000220775
    7    6    7    7        0.0000000000
    7    6    8    7        0.0000503392
    7    6    9    7       -0.0022082359
    7    6   10    7        0.0000804387
    7    6   11    7       -0.0000000064
    7    6    8    8        0.0000000000
    7    6    9    8       -0.0000000000
    7    6   10    8        0.0000000000
    7    6   11    8        0.0000000336
    7    6    9    9       -0.0000000000
    7    6   10    9        0.0000000067
    7    6   11    9        0.0000803700
    7    6   10   10       -0.0000002457
    7    6   11   10       -0.0014796401
    7    6   11   11        0.0000002457
    8    6    8    6        0.0031003454
    8    6    9    6        0.0000349311
    8    6   10    6       -0.0000000424
    8    6   11    6       -0.0000000000
    8    6    7    7        0.0000609633
    8    6    8    7        0.0000000000
    8    6    9    7       -0.0000000000
    8    6   10    7        0.0000000000
    8    6   11    7        0.0000000743
    8    6    8    8        0.0000000894
    8    6    9    8        0.0012092953
    8    6   10    8       -0.0000139865
    8    6   11    8        0.0000000011
    8    6    9    9        0.0000725165
    8    6   10    9        0.0000003448
    8    6   11    9       -0.0000000000
    8    6   10   10        0.0000517434
    8    6   11   10       -0.0000000000
    8    6   11   11        0.0000517480
    9    6    9    6        0.0044898424
    9    6   10    6       -0.0000180515
    9    6   11    6        0.0000000013
    9    6    7    7       -0.0024520260
    9    6    8    7       -0.0000000000
    9    6    9    7       -0.0000000000
    9    6   10    7        0.0000000019
    9    6   11    7        0.0000226241
    9    6    8    8       -0.0006611169
    9    6    9    8        0.0000383603
    9    6   10    8       -0.0000002290
    9    6   11    8        0.0000000000
    9    6    9    9       -0.0004925702
    9    6   10    9        0.0000160038
    9    6   11    9       -0.0000000013
    9    6   10   10       -0.0018634224
    9    6   11   10       -0.0000000000
    9    6   11   11       -0.0018639586
   10    6   10    6        0.0023533546
   10    6   11    6       -0.0000000001
   10    6    7    7        0.0000446203
   10    6    8    7        0.0000000000
   10    6    9    7        0.0000000017
   10    6   10    7       -0.0000002376
   10    6   11    7       -0.0014303069
   10    6    8    8        0.0000117865
   10    6    9    8       -0.0000004834
   10    6   10    8        0.0000243888
   10    6   11    8       -0.0000000000
   10    6    9    9        0.0000182793
   10    6   10    9       -0.0017710118
   10    6   11    9       -0.0000000001
   10    6   10   10        0.0000006676
   10    6   11   10        0.0000000003
   10    6   11   11        0.0000140557
   11    6   11    6        0.0023523627
   11    6    7    7       -0.0000000033
   11    6    8    7        0.0000002140
   11    6    9    7        0.0000198839
   11    6   10    7       -0.0014310941
   11    6   11    7        0.0000002376
   11    6    8    8       -0.0000000009
   11    6    9    8        0.0000000000
   11    6   10    8       -0.0000000000
   11    6   11    8        0.0000243763
   11    6    9    9       -0.0000000015
   11    6   10    9       -0.0000000001
   11    6   11    9       -0.0017719834
   11    6   10   10       -0.0000000017
   11    6   11   10       -0.0000114014
   11    6   11   11        0.0000000012
    7    7    7    7        0.0955250678
    7    7    8    7       -0.0000000000
    7    7    9    7        0.0000000000
    7    7   10    7       -0.0000000274
    7    7   11    7       -0.0003297985
    7    7    8    8        0.0906748476
    7    7    9    8       -0.0000100178
    7    7   10    8        0.0000000830
    7    7   11    8       -0.0000000001
    7    7    9    9        0.0842280087
    7    7   10    9       -0.0003480376
    7    7   11    9        0.0000000281
    7    7   10   10        0.0919495174
    7    7   11   10       -0.0000000000
    7    7   11   11        0.0919493348
    8    7    8    7        0.0069933885
    8    7    9    7       -0.0000135572
    8    7   10    7       -0.0000005111
    8    7   11    7       -0.0000000000
    8    7    8    8        0.0000000000
    8    7    9    8        0.0000000000
    8    7   10    8       -0.0000000009
    8    7   11    8       -0.0000110457
    8    7    9    9       -0.0000000000
    8    7   10    9       -0.0000000001
    8    7   11    9       -0.0000013191
    8    7   10   10       -0.0000000054
    8    7   11   10       -0.0000323797
    8    7   11   11        0.0000000054
    9    7    9    7        0.0040142175
    9    7   10    7       -0.0000499325
    9    7   11    7        0.0000000041
    9    7    8    8        0.0000000000
    9    7    9    8       -0.0000000000
    9    7   10    8       -0.0000000000
    9    7   11    8       -0.0000002193
    9    7    9    9        0.0000000000
    9    7   10    9       -0.0000000023
    9    7   11    9       -0.0000279091
    9    7   10   10        0.0000003976
    9    7   11   10        0.0023939958
    9    7   11   11       -0.0000003975
   10    7   10    7        0.0087710978
   10    7   11    7        0.0000000001
   10    7    8    8       -0.0000000206
   10    7    9    8        0.0000000000
   10    7   10    8       -0.0000000032
   10    7   11    8       -0.0000190758
   10    7    9    9       -0.0000000225
   10    7   10    9        0.0000013995
   10    7   11    9        0.0084264287
   10    7   10   10        0.0000000104
   10    7   11   10        0.0001526744
   10    7   11   11       -0.0000000365
   11    7   11    7        0.0087724016
   11    7    8    8       -0.0002474942
   11    7    9    8        0.0000004742
   11    7   10    8       -0.0000190924
   11    7   11    8        0.0000000032
   11    7    9    9       -0.0002713835
   11    7   10    9        0.0084286278
   11    7   11    9       -0.0000013995
   11    7   10   10       -0.0001806378
   11    7   11   10       -0.0000000087
   11    7   11   11       -0.0001259520
    8    8    8    8        0.0927824854
    8    8    9    8        0.0000000745
    8    8   10    8        0.0000000181
    8    8   11    8       -0.0000000001
    8    8    9    9        0.0856507110
    8    8   10    9       -0.0003010956
    8    8   11    9        0.0000000244
    8    8   10   10        0.0918124923
    8    8   11   10       -0.0000000001
    8    8   11   11        0.0918115026
    9    8    9    8        0.0045519180
    9    8   10    8       -0.0000546196
    9    8   11    8        0.0000000045
    9    8    9    9       -0.0000750805
    9    8   10    9        0.0000018102
    9    8   11    9       -0.0000000001
    9    8   10   10       -0.0000406846
    9    8   11   10        0.0000000000
    9    8   11   11       -0.0000406643
   10    8   10    8        0.0042848534
   10    8   11    8       -0.0000000002
   10    8    9    9        0.0000018882
   10    8   10    9       -0.0000454100
   10    8   11    9       -0.0000000000
   10    8   10   10        0.0000011321
   10    8   11   10       -0.0000000001
   10    8   11   11       -0.0000002629
   11    8   11    8        0.0042829181
   11    8    9    9       -0.0000000002
   11    8   10    9        0.0000000000
   11    8   11    9       -0.0000453597
   11    8   10   10       -0.0000000003
   11    8   11   10       -0.0000004822
   11    8   11   11        0.0000000000
    9    9    9    9        0.0870341094
    9    9   10    9       -0.0004057339
    9    9   11    9        0.0000000334
    9    9   10   10        0.0885484308
    9    9   11   10       -0.0000000002
    9    9   11   11        0.0885454620
   10    9   10    9        0.0109916725
   10    9   11    9       -0.0000000004
   10    9   10   10       -0.0002542857
   10    9   11   10        0.0000000251
   10    9   11   11       -0.0001448572
   11    9   11    9        0.0109872724
   11    9   10   10        0.0000000528
   11    9   11   10        0.0001961253
   11    9   11   11       -0.0000000219
   10   10   10   10        0.0990359494
   10   10   11   10        0.0000004915
   10   10   11   11        0.0964405276
   11   10   11   10        0.0042575387
   11   10   11   11       -0.0000004915
   11   11   11   11        0.0990358364
 end_two_electron_integrals


 output epsi filename:./pspw_hf_H2.emovecs

 Total PSPW energy     :  -0.8340345079E+00


=== Spin Contamination ===

 <Sexact^2> =    0.0000000000000000     
 <S^2>      =    0.0000000000000000     



== Center of Charge ==

spin up     (    0.0000,    0.0000,    0.0000 )
spin down   (    0.0000,    0.0000,    0.0000 )
     total  (    0.0000,    0.0000,    0.0000 )
ionic       (    0.0000,    0.0000,    0.0000 )


== Molecular Dipole wrt Center of Mass ==

mu   =  (   -0.0000,   -0.0000,   -0.0000 ) au
|mu| =     0.0000 au,       0.0000 Debye

 output psi filename:./pspw_hf_H2.movecs

 Writing Crystallographic Information File:./H2.cif
   - cell not shifted (nwpw:cif_shift_cell .false.)


== Timing ==

cputime in seconds
  prologue    :   0.113666E+02
  main loop   :   0.717416E+03
  epilogue    :   0.161206E-01
  total       :   0.728799E+03
  cputime/step:   0.488038E+01       (     147 evalulations,      61 linesearches)


Time spent doing                        total          step       percent
  total time                 :   0.728799E+03  0.495781E+01       100.0 %
  i/o time                   :   0.637016E+01  0.433344E-01         0.9 %
  FFTs                       :   0.631129E+03  0.429340E+01        86.6 %
  dot products               :   0.104972E+01  0.714093E-02         0.1 %
  geodesic                   :   0.133609E+00  0.908905E-03         0.0 %
  ffm_dgemm                  :   0.149450E-01  0.101666E-03         0.0 %
  fmf_dgemm                  :   0.870463E-01  0.592152E-03         0.0 %
  mmm_dgemm                  :   0.173108E-02  0.117760E-04         0.0 %
  m_diagonalize              :   0.881042E-03  0.599348E-05         0.0 %
  local pseudopotentials     :   0.242287E-01  0.164821E-03         0.0 %
  non-local pseudopotentials :   0.217182E+01  0.147743E-01         0.3 %
  structure factors          :   0.920856E+00  0.626433E-02         0.1 %
  phase factors              :   0.750500E-05  0.510544E-07         0.0 %
  masking and packing        :   0.104749E+02  0.712576E-01         1.4 %
  queue fft                  :   0.318595E+01  0.216732E-01         0.4 %
  queue fft (serial)         :   0.130308E+01  0.886447E-02         0.2 %
  queue fft (message passing):   0.172223E+01  0.117159E-01         0.2 %
  HFX potential              :   0.530052E+03  0.360580E+01        72.7 %
  non-local psp FFM          :   0.116947E+01  0.795560E-02         0.2 %
  non-local psp FMF          :   0.281776E+00  0.191684E-02         0.0 %
  non-local psp FFM A        :   0.384734E+00  0.261724E-02         0.1 %
  non-local psp FFM B        :   0.236333E+00  0.160771E-02         0.0 %

== HFX Counters ==
  HFX Evalulations         =   147
  Lin ACE HFX Evalulations =     0


     >>>  JOB COMPLETED     AT Wed Apr 30 10:53:42 2025  <<<

 Task  times  cpu:      772.7s     wall:      728.8s
 Summary of allocated global arrays
-----------------------------------
  No active global arrays


MA_summarize_allocated_blocks: starting scan ...
MA_summarize_allocated_blocks: scan completed: 0 heap blocks, 0 stack blocks
MA usage statistics:

	allocation statistics:
					      heap	     stack
					      ----	     -----
	current number of blocks	         0	         0
	maximum number of blocks	       313	        17
	current total bytes		         0	         0
	maximum total bytes		 937705688	 228700296
	maximum total K-bytes		    937706	    228701
	maximum total M-bytes		       938	       229


                                NWChem Input Module
                                -------------------




                                     CITATION
                                     --------
                Please cite the following reference when publishing
                           results obtained with NWChem:

          E. Apra, E. J. Bylaska, W. A. de Jong, N. Govind, K. Kowalski,
       T. P. Straatsma, M. Valiev, H. J. J. van Dam, Y. Alexeev, J. Anchell,
       V. Anisimov, F. W. Aquino, R. Atta-Fynn, J. Autschbach, N. P. Bauman,
     J. C. Becca, D. E. Bernholdt, K. Bhaskaran-Nair, S. Bogatko, P. Borowski,
         J. Boschen, J. Brabec, A. Bruner, E. Cauet, Y. Chen, G. N. Chuev,
      C. J. Cramer, J. Daily, M. J. O. Deegan, T. H. Dunning Jr., M. Dupuis,
   K. G. Dyall, G. I. Fann, S. A. Fischer, A. Fonari, H. Fruchtl, L. Gagliardi,
      J. Garza, N. Gawande, S. Ghosh, K. Glaesemann, A. W. Gotz, J. Hammond,
       V. Helms, E. D. Hermes, K. Hirao, S. Hirata, M. Jacquelin, L. Jensen,
   B. G. Johnson, H. Jonsson, R. A. Kendall, M. Klemm, R. Kobayashi, V. Konkov,
      S. Krishnamoorthy, M. Krishnan, Z. Lin, R. D. Lins, R. J. Littlefield,
      A. J. Logsdail, K. Lopata, W. Ma, A. V. Marenich, J. Martin del Campo,
   D. Mejia-Rodriguez, J. E. Moore, J. M. Mullin, T. Nakajima, D. R. Nascimento,
    J. A. Nichols, P. J. Nichols, J. Nieplocha, A. Otero-de-la-Roza, B. Palmer,
    A. Panyala, T. Pirojsirikul, B. Peng, R. Peverati, J. Pittner, L. Pollack,
   R. M. Richard, P. Sadayappan, G. C. Schatz, W. A. Shelton, D. W. Silverstein,
   D. M. A. Smith, T. A. Soares, D. Song, M. Swart, H. L. Taylor, G. S. Thomas,
            V. Tipparaju, D. G. Truhlar, K. Tsemekhman, T. Van Voorhis,
      A. Vazquez-Mayagoitia, P. Verma, O. Villa, A. Vishnu, K. D. Vogiatzis,
        D. Wang, J. H. Weare, M. J. Williamson, T. L. Windus, K. Wolinski,
        A. T. Wong, Q. Wu, C. Yang, Q. Yu, M. Zacharias, Z. Zhang, Y. Zhao,
                                and R. J. Harrison
                        "NWChem: Past, present, and future
                         J. Chem. Phys. 152, 184102 (2020)
                               doi:10.1063/5.0004997

                                      AUTHORS
                                      -------
  E. Apra, E. J. Bylaska, N. Govind, K. Kowalski, M. Valiev, D. Mejia-Rodriguez,
       A. Kunitsa, N. P. Bauman, A. Panyala, W. A. de Jong, T. P. Straatsma,
   H. J. J. van Dam, D. Wang, T. L. Windus, J. Hammond, J. Autschbach, A. Woods,
    K. Bhaskaran-Nair, J. Brabec, K. Lopata, S. A. Fischer, S. Krishnamoorthy,
     M. Jacquelin, W. Ma, M. Klemm, O. Villa, Y. Chen, V. Anisimov, F. Aquino,
     S. Hirata, M. T. Hackler, E. Hermes, L. Jensen, J. E. Moore, J. C. Becca,
      V. Konjkov, T. Risthaus, M. Malagoli, A. Marenich, A. Otero-de-la-Roza,
        J. Mullin, P. Nichols, R. Peverati, J. Pittner, Y. Zhao, P.-D. Fan,
        A. Fonari, M. J. Williamson, R. J. Harrison, J. R. Rehr, M. Dupuis,
     D. Silverstein, D. M. A. Smith, J. Nieplocha, V. Tipparaju, M. Krishnan,
     B. E. Van Kuiken, A. Vazquez-Mayagoitia, M. Swart, Q. Wu, T. Van Voorhis,
     A. A. Auer, M. Nooijen, L. D. Crosby, E. Brown, G. Cisneros, G. I. Fann,
   H. Fruchtl, J. Garza, K. Hirao, R. A. Kendall, J. A. Nichols, K. Tsemekhman,
    K. Wolinski, J. Anchell, D. E. Bernholdt, P. Borowski, T. Clark, D. Clerc,
   H. Dachsel, M. J. O. Deegan, K. Dyall, D. Elwood, E. Glendening, M. Gutowski,
   A. C. Hess, J. Jaffe, B. G. Johnson, J. Ju, R. Kobayashi, R. Kutteh, Z. Lin,
   R. Littlefield, X. Long, B. Meng, T. Nakajima, S. Niu, L. Pollack, M. Rosing,
   K. Glaesemann, G. Sandrone, M. Stave, H. Taylor, G. Thomas, J. H. van Lenthe,
                               A. T. Wong, Z. Zhang.

 Total times  cpu:      772.8s     wall:      728.8s
