 argument  1 = H2-4.0.nw



============================== echo of input deck ==============================
title "swnc: e theory=pspw4 xc=hf formula=H2 charge=0 mult=1"
#machinejob:expert

echo

start pspw_hf_H2

memory heap 1200 mb stack 1200 mb global 10 mb

charge 0

geometry
H    0.00000    0.00000   -2.00000
H    0.00000    0.00000    2.00000
end

nwpw
  ### pseudopotential block begin ###
  ### pseudopotential block end   ###
  simulation_cell
     SC 20.0000
     boundary_conditions aperiodic
  end

  cutoff 50.0
  mult 1
  xc hf
  lmbfgs
  tolerances 1.0e-9 1.0e-9

  virtual 10
end
set nwpw:cif_filename H2

#set nwpw:CI_maxit_orb 15
#set nwpw:CI_maxit_linesearch 15
set pspw:HFX_screening_radius 14.0


set nwpw:2qintegrals .true.
#set nwpw:3x3_virtual .true.

task pspw energy

================================================================================


                                         
                                         


             Northwest Computational Chemistry Package (NWChem) 7.2.2
             --------------------------------------------------------


                    Environmental Molecular Sciences Laboratory
                       Pacific Northwest National Laboratory
                                Richland, WA 99352

                              Copyright (c) 1994-2022
                       Pacific Northwest National Laboratory
                            Battelle Memorial Institute

             NWChem is an open-source computational chemistry package
                        distributed under the terms of the
                      Educational Community License (ECL) 2.0
             A copy of the license is included with this distribution
                              in the LICENSE.TXT file

                                  ACKNOWLEDGMENT
                                  --------------

            This software and its documentation were developed at the
            EMSL at Pacific Northwest National Laboratory, a multiprogram
            national laboratory, operated for the U.S. Department of Energy
            by Battelle under Contract Number DE-AC05-76RL01830. Support
            for this work was provided by the Department of Energy Office
            of Biological and Environmental Research, Office of Basic
            Energy Sciences, and the Office of Advanced Scientific Computing.


           Job information
           ---------------

    hostname        = LAPTOP-JJQSTSEL
    program         = nwchem
    date            = Wed Apr 30 11:11:30 2025

    compiled        = Fri_Jun_07_07:50:04_2024
    source          = /home/conda/feedstock_root/build_artifacts/nwchem_1717738148552/work
    nwchem branch   = 7.2.2
    nwchem revision = 64ba0f0
    ga revision     = 5.8.0
    use scalapack   = T
    input           = H2-4.0.nw
    prefix          = pspw_hf_H2.
    data base       = ./pspw_hf_H2.db
    status          = startup
    nproc           =        1
    time left       =     -1s



           Memory information
           ------------------

    heap     =  157286400 doubles =   1200.0 Mbytes
    stack    =  157286397 doubles =   1200.0 Mbytes
    global   =    1310720 doubles =     10.0 Mbytes (distinct from heap & stack)
    total    =  315883517 doubles =   2410.0 Mbytes
    verify   = yes
    hardfail = no 


           Directory information
           ---------------------

  0 permanent = .
  0 scratch   = .




                                NWChem Input Module
                                -------------------


               swnc: e theory=pspw4 xc=hf formula=H2 charge=0 mult=1
               -----------------------------------------------------

 Scaling coordinates for geometry "geometry" by  1.889725989
 (inverse scale =  0.529177249)

 ORDER OF PRIMARY AXIS IS BEING SET TO 4
 D4H symmetry detected

          ------
          auto-z
          ------
     1 autoz failed with cvr_scaling = 1.2 changing to 1.3
     2 autoz failed with cvr_scaling = 1.3 changing to 1.4
     3 autoz failed with cvr_scaling = 1.4 changing to 1.5
     4 autoz failed with cvr_scaling = 1.5 changing to 1.6
     5 autoz failed with cvr_scaling = 1.6 changing to 1.7

 AUTOZ failed to generate good internal coordinates.
 Cartesian coordinates will be used in optimizations.



                             Geometry "geometry" -> ""
                             -------------------------

 Output coordinates in angstroms (scale by  1.889725989 to convert to a.u.)

  No.       Tag          Charge          X              Y              Z
 ---- ---------------- ---------- -------------- -------------- --------------
    1 H                    1.0000     0.00000000     0.00000000    -2.00000000
    2 H                    1.0000     0.00000000     0.00000000     2.00000000

      Atomic Mass 
      ----------- 

      H                  1.007825


 Effective nuclear repulsion energy (a.u.)       0.1322943122

            Nuclear Dipole moment (a.u.) 
            ----------------------------
        X                 Y               Z
 ---------------- ---------------- ----------------
     0.0000000000     0.0000000000     0.0000000000

      Symmetry information
      --------------------

 Group name             D4h       
 Group number             28
 Group order              16
 No. of unique centers     1

      Symmetry unique atoms

     1


            XYZ format geometry
            -------------------
     2
 geometry
 H                     0.00000000     0.00000000    -2.00000000
 H                     0.00000000     0.00000000     2.00000000

          ****************************************************
          *                                                  *
          *               NWPW PSPW Calculation              *
          *                                                  *
          * [ (Grassmann/Stiefel manifold implementation)  ] *
          *                                                  *
          *      [ NorthWest Chemistry implementation ]      *
          *                                                  *
          *            version #5.10   06/12/02              *
          *                                                  *
          *    This code was developed by Eric J. Bylaska,   *
          *    and was based upon algorithms and code        *
          *    developed by the group of Prof. John H. Weare *
          *                                                  *
          ****************************************************
     >>>  JOB STARTED       AT Wed Apr 30 11:11:30 2025  <<<
          ================ input data ========================

 input psi filename:./pspw_hf_H2.movecs

 number of processors used:         1
 processor grid           :   1 x   1
 parallel mapping         :2d-hilbert
 parallel mapping         :  balanced
 number of threads        :         1
 parallel io              :       off

 options:
      boundary conditions  = aperiodic   (version4)
      electron spin        = restricted
      exchange-correlation = Hartree-Fock
      - HFX relaxed
      - HFX restricted orbitals :    1
      - HFX free-space coulomb solver


 elements involved in the cluster:
      1: H   valence charge:  1.0000  lmax=  1
             comment    : Parameterized (Chem.Phys.Lett., vol 322, page 447) Hamman psp
             pseudpotential type            :   0
             highest angular component      :   1
             local potential used           :   1
             number of non-local projections:   1
             aperiodic cutoff radius        :  1.000
             cutoff =   0.800   0.800


 total charge:   0.000

 atomic composition:
     H   :    2

 number of electrons: spin up=     1 (   1 per task)  down=     1 (   1 per task) (Fourier space)
 number of orbitals : spin up=     1 (   1 per task)  down=     1 (   1 per task) (Fourier space)

 supercell:
      cell_name:  cell_default                                      
      lattice:    a1=<  20.000   0.000   0.000 >
                  a2=<   0.000  20.000   0.000 >
                  a3=<   0.000   0.000  20.000 >
      reciprocal: b1=<   0.314   0.000   0.000 >
                  b2=<   0.000   0.314   0.000 >
                  b3=<   0.000   0.000   0.314 >
      lattice:    a=      20.000 b=     20.000 c=      20.000
                  alpha=  90.000 beta=  90.000 gamma=  90.000
                  omega=      8000.0

      density cutoff=100.000  fft= 96x 96x 96(   191162 waves   191162 per task)
      wavefnc cutoff= 50.000  fft= 96x 96x 96(    67522 waves    67522 per task)

 technical parameters:
      time step=      5.80     fictitious mass=  400000.0
      tolerance=0.100E-08 (energy)   0.100E-08 (density)
      maximum iterations =      1000 (   10 inner    100 outer )





== Energy Calculation ==


          ============ Grassmann lmbfgs iteration ============
     >>>  ITERATION STARTED AT Wed Apr 30 11:11:35 2025  <<<
    iter.           Energy         DeltaE       DeltaRho 
    ------------------------------------------------------
      10   -0.7871011082E+00   -0.15095E-02    0.71311E-02
     -  10 steepest descent iterations performed
      20   -0.7918816757E+00   -0.12327E-03    0.65021E-04
      30   -0.7921170435E+00   -0.60813E-05    0.54299E-05
      40   -0.7921369801E+00   -0.34181E-06    0.96252E-07
      50   -0.7921381600E+00   -0.20727E-07    0.45803E-08
      60   -0.7921382250E+00   -0.14791E-08    0.21748E-09
      70   -0.7921382280E+00   -0.68973E-09    0.54804E-11
  *** tolerance ok. iteration terminated
     >>>  ITERATION ENDED   AT Wed Apr 30 11:13:19 2025  <<<


==  Summary Of Results  ==

 number of electrons: spin up=    1.00000  down=    1.00000 (real space)

 total     energy    :  -0.7921382280E+00 (   -0.39607E+00/ion)
 total orbital energy:  -0.6061926652E+00 (   -0.60619E+00/electron)
 hartree   energy    :   0.6364797501E+00 (    0.63648E+00/electron)
 exc-corr  energy    :   0.0000000000E+00 (    0.00000E+00/electron)
 HF exchange energy  :  -0.3182398751E+00 (   -0.31824E+00/electron)
 ion-ion   energy    :   0.1322943122E+00 (    0.66147E-01/ion)

 kinetic (planewave) :   0.6453433926E+00 (    0.64534E+00/electron)
 V_local (planewave) :  -0.1737547507E+01 (   -0.17375E+01/electron)
 V_nl    (planewave) :  -0.1504683005E+00 (   -0.15047E+00/electron)
 V_Coul  (planewave) :   0.1272959500E+01 (    0.12730E+01/electron)
 V_xc.   (planewave) :   0.0000000000E+00 (    0.00000E+00/electron)
 K.S. HFX energy     :  -0.6364797501E+00 (   -0.63648E+00/electron)
 Virial Coefficient  :  -0.9530682652E+00

 orbital energies:
    -0.3030963E+00 (  -8.248eV)


== Virtual Orbital Calculation ==


 input epsi filename:./pspw_hf_H2.emovecs
     orbital   1 current e=-0.159E+00 (error=0.822E-09) iterations  62(  43 preconditioned, Ep,Sp= 20.0  200.0)
     orbital   2 current e= 0.674E-02 (error=0.923E-09) iterations  89(  46 preconditioned, Ep,Sp= 20.0  200.0)
     orbital   3 current e= 0.475E-01 (error=0.950E-09) iterations  58(  15 preconditioned, Ep,Sp= 20.0  200.0)
     orbital   4 current e= 0.475E-01 (error=0.950E-09) iterations  58(  15 preconditioned, Ep,Sp= 20.0  200.0)
     orbital   5 current e= 0.475E-01 (error=0.907E-09) iterations 114(  36 preconditioned, Ep,Sp= 20.0  200.0)
     orbital   6 current e= 0.497E-01 (error=0.823E-09) iterations  34(   1 preconditioned, Ep,Sp= 20.0  200.0)
     orbital   7 current e= 0.568E-01 (error=0.862E-09) iterations  84(  41 preconditioned, Ep,Sp= 20.0  200.0)
     orbital   8 current e= 0.695E-01 (error=0.995E-09) iterations 110(  75 preconditioned, Ep,Sp= 20.0  200.0)
     orbital   9 current e= 0.958E-01 (error=0.912E-09) iterations 118(  83 preconditioned, Ep,Sp= 20.0  200.0)
     orbital  10 current e= 0.958E-01 (error=0.902E-09) iterations 118(  83 preconditioned, Ep,Sp= 20.0  200.0)

 virtual orbital energies:
     0.9582494E-01 (   2.608eV)
     0.9582493E-01 (   2.608eV)
     0.6952458E-01 (   1.892eV)
     0.5677338E-01 (   1.545eV)
     0.4966452E-01 (   1.351eV)
     0.4753960E-01 (   1.294eV)
     0.4748959E-01 (   1.292eV)
     0.4748959E-01 (   1.292eV)
     0.6740581E-02 (   0.183eV)
    -0.1585960E+00 (  -4.316eV)


 == Generating One-Electron and Two-Electron Integrals ==

 begin_one_electron_integrals
    1    1        -0.6213362077
    2    1         0.0000038765
    3    1         0.0203426989
    4    1         0.0000059265
    5    1        -0.0000000000
    6    1         0.0032566332
    7    1        -0.0000000000
    8    1         0.0000006486
    9    1         0.0252199702
   10    1         0.0000025545
   11    1         0.0000000022
    2    2        -0.6133259058
    3    2         0.0000337551
    4    2         0.0000000979
    5    2        -0.0000000000
    6    2         0.0000588956
    7    2         0.0000000000
    8    2        -0.0243935340
    9    2         0.0000351093
   10    2         0.0000000724
   11    2         0.0000000011
    3    3        -0.1905404106
    4    3         0.0000057092
    5    3        -0.0000000000
    6    3         0.0031686338
    7    3        -0.0000000000
    8    3         0.0000012831
    9    3        -0.0413388532
   10    3        -0.0000012651
   11    3        -0.0000000019
    4    4        -0.1834548640
    5    4        -0.0000000000
    6    4         0.0000154534
    7    4        -0.0000000000
    8    4         0.0000000167
    9    4        -0.0000001992
   10    4        -0.0514164558
   11    4         0.0000019263
    5    5        -0.1834548859
    6    5        -0.0000000000
    7    5        -0.0000107102
    8    5         0.0000000000
    9    5         0.0000000000
   10    5        -0.0000019263
   11    5        -0.0514165777
    6    6        -0.1741975234
    7    6         0.0000000000
    8    6         0.0000073776
    9    6         0.0000873293
   10    6         0.0000085745
   11    6         0.0000000003
    7    7        -0.1517707867
    8    7         0.0000000000
    9    7        -0.0000000000
   10    7        -0.0000000007
   11    7        -0.0000169066
    8    8        -0.1444241699
    9    8         0.0000033800
   10    8         0.0000000126
   11    8         0.0000000015
    9    9        -0.1301287131
   10    9         0.0000041382
   11    9        -0.0000000041
   10   10        -0.1348581254
   11   10         0.0000000000
   11   11        -0.1348582655
 end_one_electron_integrals

 begin_two_electron_integrals
    1    1    1    1        0.3182398751
    1    1    2    1       -0.0000038573
    1    1    3    1       -0.0203470516
    1    1    4    1       -0.0000059307
    1    1    5    1        0.0000000000
    1    1    6    1       -0.0032592094
    1    1    7    1        0.0000000000
    1    1    8    1       -0.0000006686
    1    1    9    1       -0.0252190382
    1    1   10    1       -0.0000025437
    1    1   11    1       -0.0000000022
    1    1    2    2        0.3215150732
    1    1    3    2       -0.0000170284
    1    1    4    2       -0.0000000427
    1    1    5    2        0.0000000000
    1    1    6    2       -0.0000262763
    1    1    7    2       -0.0000000000
    1    1    8    2        0.0210545979
    1    1    9    2       -0.0000155719
    1    1   10    2       -0.0000000271
    1    1   11    2       -0.0000000010
    1    1    3    3        0.0997749163
    1    1    4    3       -0.0000029253
    1    1    5    3        0.0000000000
    1    1    6    3       -0.0014363106
    1    1    7    3        0.0000000000
    1    1    8    3       -0.0000013636
    1    1    9    3        0.0221480247
    1    1   10    3        0.0000003393
    1    1   11    3        0.0000000011
    1    1    4    4        0.1165184069
    1    1    5    4        0.0000000000
    1    1    6    4       -0.0000078994
    1    1    7    4        0.0000000000
    1    1    8    4       -0.0000000098
    1    1    9    4        0.0000003706
    1    1   10    4        0.0269256336
    1    1   11    4       -0.0000010088
    1    1    5    5        0.1165184182
    1    1    6    5        0.0000000000
    1    1    7    5        0.0000052447
    1    1    8    5       -0.0000000000
    1    1    9    5       -0.0000000000
    1    1   10    5        0.0000010087
    1    1   11    5        0.0269256966
    1    1    6    6        0.1117726892
    1    1    7    6       -0.0000000000
    1    1    8    6       -0.0000048327
    1    1    9    6        0.0001154674
    1    1   10    6       -0.0000042808
    1    1   11    6       -0.0000000002
    1    1    7    7        0.1007865577
    1    1    8    7       -0.0000000000
    1    1    9    7        0.0000000000
    1    1   10    7        0.0000000003
    1    1   11    7        0.0000084154
    1    1    8    8        0.1016991980
    1    1    9    8       -0.0000021730
    1    1   10    8       -0.0000000078
    1    1   11    8       -0.0000000008
    1    1    9    9        0.1017798760
    1    1   10    9       -0.0000021643
    1    1   11    9        0.0000000023
    1    1   10   10        0.1168045118
    1    1   11   10       -0.0000000000
    1    1   11   11        0.1168045886
    2    1    2    1        0.1883002679
    2    1    3    1       -0.0000004111
    2    1    4    1        0.0000000125
    2    1    5    1       -0.0000000000
    2    1    6    1        0.0000063268
    2    1    7    1       -0.0000000000
    2    1    8    1        0.0177181494
    2    1    9    1        0.0000039735
    2    1   10    1        0.0000000182
    2    1   11    1       -0.0000000008
    2    1    2    2       -0.0000068101
    2    1    3    2       -0.0176321423
    2    1    4    2        0.0000110979
    2    1    5    2       -0.0000000000
    2    1    6    2        0.0067593426
    2    1    7    2       -0.0000000000
    2    1    8    2       -0.0000039077
    2    1    9    2       -0.0230689927
    2    1   10    2        0.0000177566
    2    1   11    2       -0.0000000033
    2    1    3    3        0.0002359773
    2    1    4    3        0.0000005282
    2    1    5    3       -0.0000000000
    2    1    6    3        0.0003116903
    2    1    7    3        0.0000000000
    2    1    8    3       -0.0180988912
    2    1    9    3        0.0000253073
    2    1   10    3        0.0000000666
    2    1   11    3        0.0000000004
    2    1    4    4        0.0002121445
    2    1    5    4       -0.0000000000
    2    1    6    4        0.0000004763
    2    1    7    4        0.0000000000
    2    1    8    4       -0.0000069551
    2    1    9    4        0.0000002900
    2    1   10    4       -0.0000207162
    2    1   11    4        0.0000000008
    2    1    5    5        0.0002121437
    2    1    6    5       -0.0000000000
    2    1    7    5        0.0000000126
    2    1    8    5        0.0000000000
    2    1    9    5       -0.0000000000
    2    1   10    5       -0.0000000007
    2    1   11    5       -0.0000207187
    2    1    6    6        0.0004913976
    2    1    7    6        0.0000000000
    2    1    8    6       -0.0040033880
    2    1    9    6        0.0001704638
    2    1   10    6        0.0000003935
    2    1   11    6        0.0000000003
    2    1    7    7        0.0001875618
    2    1    8    7        0.0000000000
    2    1    9    7        0.0000000000
    2    1   10    7        0.0000000000
    2    1   11    7        0.0000000234
    2    1    8    8        0.0000013180
    2    1    9    8       -0.0092985392
    2    1   10    8        0.0000009840
    2    1   11    8       -0.0000000006
    2    1    9    9        0.0002871057
    2    1   10    9        0.0000004420
    2    1   11    9        0.0000000008
    2    1   10   10        0.0001731070
    2    1   11   10        0.0000000000
    2    1   11   11        0.0001731062
    3    1    3    1        0.0022688407
    3    1    4    1       -0.0000001622
    3    1    5    1        0.0000000000
    3    1    6    1        0.0002837237
    3    1    7    1        0.0000000000
    3    1    8    1       -0.0000014638
    3    1    9    1        0.0029559817
    3    1   10    1       -0.0000005819
    3    1   11    1        0.0000000003
    3    1    2    2       -0.0208155374
    3    1    3    2        0.0000034088
    3    1    4    2        0.0000000069
    3    1    5    2       -0.0000000000
    3    1    6    2        0.0000049301
    3    1    7    2        0.0000000000
    3    1    8    2       -0.0023682186
    3    1    9    2        0.0000039840
    3    1   10    2        0.0000000057
    3    1   11    2        0.0000000001
    3    1    3    3       -0.0005398276
    3    1    4    3       -0.0000034798
    3    1    5    3        0.0000000000
    3    1    6    3        0.0000627256
    3    1    7    3       -0.0000000000
    3    1    8    3       -0.0000082731
    3    1    9    3       -0.0007157686
    3    1   10    3       -0.0000000906
    3    1   11    3       -0.0000000001
    3    1    4    4       -0.0009170720
    3    1    5    4       -0.0000000000
    3    1    6    4        0.0000009690
    3    1    7    4       -0.0000000000
    3    1    8    4        0.0000000019
    3    1    9    4       -0.0000006646
    3    1   10    4       -0.0009823511
    3    1   11    4        0.0000000368
    3    1    5    5       -0.0009170775
    3    1    6    5       -0.0000000000
    3    1    7    5       -0.0000019050
    3    1    8    5        0.0000000000
    3    1    9    5        0.0000000000
    3    1   10    5       -0.0000000368
    3    1   11    5       -0.0009823518
    3    1    6    6       -0.0007789793
    3    1    7    6        0.0000000000
    3    1    8    6       -0.0000030362
    3    1    9    6        0.0000542530
    3    1   10    6        0.0000004234
    3    1   11    6        0.0000000000
    3    1    7    7       -0.0002602221
    3    1    8    7        0.0000000000
    3    1    9    7       -0.0000000000
    3    1   10    7       -0.0000000001
    3    1   11    7       -0.0000029359
    3    1    8    8       -0.0005903070
    3    1    9    8       -0.0000004786
    3    1   10    8        0.0000000002
    3    1   11    8        0.0000000000
    3    1    9    9       -0.0009862080
    3    1   10    9       -0.0000024636
    3    1   11    9       -0.0000000000
    3    1   10   10       -0.0012568202
    3    1   11   10       -0.0000000000
    3    1   11   11       -0.0012568294
    4    1    4    1        0.0020923645
    4    1    5    1        0.0000000000
    4    1    6    1       -0.0000001227
    4    1    7    1       -0.0000000000
    4    1    8    1       -0.0000000041
    4    1    9    1        0.0000003549
    4    1   10    1        0.0024406710
    4    1   11    1       -0.0000000914
    4    1    2    2       -0.0000033287
    4    1    3    2        0.0000000041
    4    1    4    2        0.0000009328
    4    1    5    2        0.0000000000
    4    1    6    2        0.0000000086
    4    1    7    2        0.0000000000
    4    1    8    2        0.0000001492
    4    1    9    2        0.0000000079
    4    1   10    2        0.0000005155
    4    1   11    2       -0.0000000000
    4    1    3    3       -0.0000623822
    4    1    4    3        0.0034925942
    4    1    5    3       -0.0000000000
    4    1    6    3        0.0000193621
    4    1    7    3       -0.0000000001
    4    1    8    3        0.0000000201
    4    1    9    3        0.0000215984
    4    1   10    3        0.0007524356
    4    1   11    3       -0.0000000282
    4    1    4    4       -0.0000255941
    4    1    5    4        0.0000000000
    4    1    6    4       -0.0006560528
    4    1    7    4        0.0000000054
    4    1    8    4       -0.0000027792
    4    1    9    4        0.0018297518
    4    1   10    4        0.0000281157
    4    1   11    4       -0.0000000010
    4    1    5    5       -0.0000228804
    4    1    6    5        0.0000000000
    4    1    7    5        0.0014704060
    4    1    8    5        0.0000000000
    4    1    9    5       -0.0000000000
    4    1   10    5        0.0000000010
    4    1   11    5        0.0000278656
    4    1    6    6       -0.0000436111
    4    1    7    6        0.0000000000
    4    1    8    6       -0.0000000091
    4    1    9    6        0.0000042092
    4    1   10    6       -0.0004299854
    4    1   11    6        0.0000000161
    4    1    7    7       -0.0000858861
    4    1    8    7       -0.0000000000
    4    1    9    7       -0.0000000000
    4    1   10    7        0.0000001095
    4    1   11    7        0.0026624145
    4    1    8    8       -0.0000673390
    4    1    9    8       -0.0000000338
    4    1   10    8        0.0000003261
    4    1   11    8       -0.0000000000
    4    1    9    9       -0.0000712962
    4    1   10    9        0.0027023031
    4    1   11    9       -0.0000001012
    4    1   10   10       -0.0000518485
    4    1   11   10        0.0000000003
    4    1   11   11       -0.0000484943
    5    1    5    1        0.0020923644
    5    1    6    1        0.0000000000
    5    1    7    1       -0.0000002159
    5    1    8    1       -0.0000000000
    5    1    9    1       -0.0000000000
    5    1   10    1        0.0000000914
    5    1   11    1        0.0024406749
    5    1    2    2        0.0000000000
    5    1    3    2       -0.0000000000
    5    1    4    2       -0.0000000000
    5    1    5    2        0.0000009328
    5    1    6    2       -0.0000000000
    5    1    7    2       -0.0000000015
    5    1    8    2       -0.0000000000
    5    1    9    2        0.0000000000
    5    1   10    2        0.0000000000
    5    1   11    2        0.0000005154
    5    1    3    3        0.0000000001
    5    1    4    3       -0.0000000000
    5    1    5    3        0.0034925711
    5    1    6    3       -0.0000000000
    5    1    7    3       -0.0000593475
    5    1    8    3       -0.0000000000
    5    1    9    3       -0.0000000000
    5    1   10    3        0.0000000282
    5    1   11    3        0.0007524581
    5    1    4    4        0.0000000001
    5    1    5    4        0.0000189681
    5    1    6    4        0.0000000000
    5    1    7    4        0.0014704257
    5    1    8    4        0.0000000000
    5    1    9    4        0.0000000000
    5    1   10    4       -0.0000000013
    5    1   11    4       -0.0000311989
    5    1    5    5       -0.0000000000
    5    1    6    5       -0.0006560529
    5    1    7    5       -0.0000000054
    5    1    8    5       -0.0000027792
    5    1    9    5        0.0018297600
    5    1   10    5       -0.0000325795
    5    1   11    5        0.0000000014
    5    1    6    6        0.0000000001
    5    1    7    6        0.0000146470
    5    1    8    6        0.0000000000
    5    1    9    6       -0.0000000000
    5    1   10    6       -0.0000000161
    5    1   11    6       -0.0004299774
    5    1    7    7        0.0000000002
    5    1    8    7        0.0000000469
    5    1    9    7       -0.0000142026
    5    1   10    7        0.0026624190
    5    1   11    7       -0.0000001095
    5    1    8    8        0.0000000001
    5    1    9    8       -0.0000000000
    5    1   10    8        0.0000000000
    5    1   11    8        0.0000003261
    5    1    9    9        0.0000000001
    5    1   10    9        0.0000001012
    5    1   11    9        0.0027022672
    5    1   10   10        0.0000000035
    5    1   11   10        0.0000438009
    5    1   11   11       -0.0000000031
    6    1    6    1        0.0018082580
    6    1    7    1       -0.0000000000
    6    1    8    1       -0.0000026384
    6    1    9    1        0.0003141060
    6    1   10    1        0.0000000045
    6    1   11    1       -0.0000000000
    6    1    2    2       -0.0017178292
    6    1    3    2        0.0000033460
    6    1    4    2        0.0000000080
    6    1    5    2       -0.0000000000
    6    1    6    2        0.0000061832
    6    1    7    2        0.0000000000
    6    1    8    2       -0.0002865636
    6    1    9    2        0.0000045935
    6    1   10    2        0.0000000087
    6    1   11    2        0.0000000000
    6    1    3    3       -0.0006252549
    6    1    4    3       -0.0000011987
    6    1    5    3        0.0000000000
    6    1    6    3        0.0017356823
    6    1    7    3       -0.0000000000
    6    1    8    3       -0.0000170799
    6    1    9    3       -0.0002548447
    6    1   10    3       -0.0000002613
    6    1   11    3        0.0000000000
    6    1    4    4       -0.0011492731
    6    1    5    4        0.0000000000
    6    1    6    4        0.0000019593
    6    1    7    4       -0.0000000000
    6    1    8    4       -0.0000000008
    6    1    9    4        0.0000001850
    6    1   10    4       -0.0007291246
    6    1   11    4        0.0000000273
    6    1    5    5       -0.0011492751
    6    1    6    5       -0.0000000000
    6    1    7    5       -0.0000017042
    6    1    8    5        0.0000000000
    6    1    9    5       -0.0000000000
    6    1   10    5       -0.0000000273
    6    1   11    5       -0.0007291432
    6    1    6    6       -0.0001782382
    6    1    7    6       -0.0000000000
    6    1    8    6       -0.0000069863
    6    1    9    6        0.0016461844
    6    1   10    6        0.0000028665
    6    1   11    6        0.0000000000
    6    1    7    7       -0.0010168428
    6    1    8    7       -0.0000000000
    6    1    9    7       -0.0000000000
    6    1   10    7       -0.0000000001
    6    1   11    7       -0.0000032154
    6    1    8    8       -0.0008269761
    6    1    9    8       -0.0000022466
    6    1   10    8       -0.0000000001
    6    1   11    8       -0.0000000000
    6    1    9    9       -0.0005634124
    6    1   10    9       -0.0000005839
    6    1   11    9        0.0000000000
    6    1   10   10       -0.0016351826
    6    1   11   10       -0.0000000000
    6    1   11   11       -0.0016352019
    7    1    7    1        0.0001378124
    7    1    8    1       -0.0000000000
    7    1    9    1        0.0000000000
    7    1   10    1       -0.0000000000
    7    1   11    1       -0.0000000758
    7    1    2    2       -0.0000000000
    7    1    3    2        0.0000000000
    7    1    4    2        0.0000000000
    7    1    5    2       -0.0000000014
    7    1    6    2        0.0000000000
    7    1    7    2        0.0000001080
    7    1    8    2       -0.0000000000
    7    1    9    2        0.0000000000
    7    1   10    2       -0.0000000000
    7    1   11    2       -0.0000000012
    7    1    3    3        0.0000000000
    7    1    4    3       -0.0000000000
    7    1    5    3       -0.0000037821
    7    1    6    3       -0.0000000000
    7    1    7    3        0.0007510451
    7    1    8    3        0.0000000000
    7    1    9    3        0.0000000000
    7    1   10    3       -0.0000000000
    7    1   11    3       -0.0000002392
    7    1    4    4        0.0000000009
    7    1    5    4        0.0002557538
    7    1    6    4        0.0000000000
    7    1    7    4       -0.0000021290
    7    1    8    4       -0.0000000000
    7    1    9    4       -0.0000000000
    7    1   10    4        0.0000000286
    7    1   11    4        0.0006949398
    7    1    5    5       -0.0000000009
    7    1    6    5        0.0000003648
    7    1    7    5        0.0000000000
    7    1    8    5        0.0000000081
    7    1    9    5       -0.0000007646
    7    1   10    5        0.0006949417
    7    1   11    5       -0.0000000286
    7    1    6    6       -0.0000000000
    7    1    7    6       -0.0001771742
    7    1    8    6       -0.0000000000
    7    1    9    6       -0.0000000000
    7    1   10    6       -0.0000000000
    7    1   11    6       -0.0000008827
    7    1    7    7        0.0000000000
    7    1    8    7       -0.0000009078
    7    1    9    7        0.0005704973
    7    1   10    7       -0.0000029704
    7    1   11    7        0.0000000001
    7    1    8    8        0.0000000000
    7    1    9    8        0.0000000000
    7    1   10    8       -0.0000000000
    7    1   11    8       -0.0000000002
    7    1    9    9        0.0000000000
    7    1   10    9       -0.0000000001
    7    1   11    9       -0.0000025529
    7    1   10   10        0.0000000309
    7    1   11   10        0.0003927441
    7    1   11   11       -0.0000000309
    8    1    8    1        0.0022008439
    8    1    9    1       -0.0000013916
    8    1   10    1       -0.0000000032
    8    1   11    1       -0.0000000001
    8    1    2    2       -0.0000011843
    8    1    3    2       -0.0021792258
    8    1    4    2        0.0000004449
    8    1    5    2       -0.0000000000
    8    1    6    2        0.0001716574
    8    1    7    2       -0.0000000000
    8    1    8    2       -0.0000002198
    8    1    9    2       -0.0029027791
    8    1   10    2        0.0000010922
    8    1   11    2       -0.0000000003
    8    1    3    3       -0.0000037921
    8    1    4    3        0.0000000058
    8    1    5    3       -0.0000000000
    8    1    6    3       -0.0000043748
    8    1    7    3        0.0000000000
    8    1    8    3        0.0000861320
    8    1    9    3        0.0000020591
    8    1   10    3       -0.0000000002
    8    1   11    3        0.0000000000
    8    1    4    4       -0.0000033491
    8    1    5    4        0.0000000000
    8    1    6    4        0.0000000127
    8    1    7    4       -0.0000000000
    8    1    8    4       -0.0000013673
    8    1    9    4       -0.0000000026
    8    1   10    4        0.0000015189
    8    1   11    4       -0.0000000001
    8    1    5    5       -0.0000033492
    8    1    6    5        0.0000000000
    8    1    7    5        0.0000000057
    8    1    8    5        0.0000000000
    8    1    9    5       -0.0000000000
    8    1   10    5        0.0000000001
    8    1   11    5        0.0000015189
    8    1    6    6       -0.0000051164
    8    1    7    6        0.0000000000
    8    1    8    6       -0.0000209696
    8    1    9    6        0.0000005861
    8    1   10    6       -0.0000000004
    8    1   11    6        0.0000000000
    8    1    7    7       -0.0000038417
    8    1    8    7       -0.0000000000
    8    1    9    7        0.0000000000
    8    1   10    7       -0.0000000000
    8    1   11    7        0.0000000062
    8    1    8    8        0.0000000408
    8    1    9    8       -0.0004361372
    8    1   10    8       -0.0000002227
    8    1   11    8       -0.0000000000
    8    1    9    9       -0.0000038489
    8    1   10    9        0.0000000069
    8    1   11    9        0.0000000000
    8    1   10   10       -0.0000035001
    8    1   11   10        0.0000000000
    8    1   11   11       -0.0000035001
    9    1    9    1        0.0039064592
    9    1   10    1       -0.0000002237
    9    1   11    1        0.0000000004
    9    1    2    2       -0.0259295612
    9    1    3    2        0.0000038969
    9    1    4    2        0.0000000115
    9    1    5    2       -0.0000000000
    9    1    6    2        0.0000066308
    9    1    7    2        0.0000000000
    9    1    8    2       -0.0030851319
    9    1    9    2        0.0000046307
    9    1   10    2        0.0000000099
    9    1   11    2        0.0000000002
    9    1    3    3       -0.0005713589
    9    1    4    3       -0.0000006834
    9    1    5    3        0.0000000000
    9    1    6    3        0.0000918337
    9    1    7    3       -0.0000000000
    9    1    8    3       -0.0000091327
    9    1    9    3       -0.0006769822
    9    1   10    3       -0.0000003485
    9    1   11    3       -0.0000000001
    9    1    4    4       -0.0008042958
    9    1    5    4        0.0000000000
    9    1    6    4        0.0000007541
    9    1    7    4       -0.0000000000
    9    1    8    4       -0.0000000102
    9    1    9    4       -0.0000004291
    9    1   10    4       -0.0008520409
    9    1   11    4        0.0000000319
    9    1    5    5       -0.0008042906
    9    1    6    5       -0.0000000000
    9    1    7    5       -0.0000009250
    9    1    8    5        0.0000000000
    9    1    9    5        0.0000000000
    9    1   10    5       -0.0000000319
    9    1   11    5       -0.0008520469
    9    1    6    6       -0.0005645770
    9    1    7    6        0.0000000000
    9    1    8    6       -0.0000036024
    9    1    9    6        0.0000973818
    9    1   10    6        0.0000006393
    9    1   11    6        0.0000000000
    9    1    7    7       -0.0001485913
    9    1    8    7        0.0000000000
    9    1    9    7       -0.0000000000
    9    1   10    7       -0.0000000000
    9    1   11    7       -0.0000011560
    9    1    8    8       -0.0006671296
    9    1    9    8       -0.0000013794
    9    1   10    8        0.0000000013
    9    1   11    8        0.0000000000
    9    1    9    9       -0.0010371712
    9    1   10    9       -0.0000003606
    9    1   11    9       -0.0000000001
    9    1   10   10       -0.0011769866
    9    1   11   10        0.0000000000
    9    1   11   11       -0.0011769912
   10    1   10    1        0.0029259650
   10    1   11    1       -0.0000000000
   10    1    2    2        0.0000009759
   10    1    3    2        0.0000000028
   10    1    4    2        0.0000003964
   10    1    5    2        0.0000000000
   10    1    6    2        0.0000000086
   10    1    7    2       -0.0000000000
   10    1    8    2        0.0000006093
   10    1    9    2        0.0000000059
   10    1   10    2        0.0000000104
   10    1   11    2        0.0000000000
   10    1    3    3       -0.0000608501
   10    1    4    3        0.0033687554
   10    1    5    3        0.0000001262
   10    1    6    3        0.0000194890
   10    1    7    3       -0.0000000023
   10    1    8    3       -0.0000000076
   10    1    9    3        0.0000183950
   10    1   10    3        0.0010670418
   10    1   11    3        0.0000000000
   10    1    4    4       -0.0000234737
   10    1    5    4        0.0000000007
   10    1    6    4       -0.0007803175
   10    1    7    4        0.0000000720
   10    1    8    4       -0.0000006866
   10    1    9    4        0.0020134440
   10    1   10    4        0.0000259602
   10    1   11    4       -0.0000000020
   10    1    5    5       -0.0000247332
   10    1    6    5       -0.0000000292
   10    1    7    5        0.0017499906
   10    1    8    5       -0.0000000000
   10    1    9    5        0.0000000754
   10    1   10    5       -0.0000000002
   10    1   11    5        0.0000275676
   10    1    6    6       -0.0000421403
   10    1    7    6        0.0000000006
   10    1    8    6       -0.0000000102
   10    1    9    6        0.0000051979
   10    1   10    6       -0.0006473821
   10    1   11    6       -0.0000000000
   10    1    7    7       -0.0000870072
   10    1    8    7       -0.0000000000
   10    1    9    7       -0.0000000006
   10    1   10    7        0.0000002151
   10    1   11    7        0.0027373475
   10    1    8    8       -0.0000657253
   10    1    9    8       -0.0000000115
   10    1   10    8        0.0000000587
   10    1   11    8        0.0000000000
   10    1    9    9       -0.0000673095
   10    1   10    9        0.0028352940
   10    1   11    9        0.0000000000
   10    1   10   10       -0.0000511768
   10    1   11   10        0.0000000020
   10    1   11   11       -0.0000475609
   11    1   11    1        0.0029259741
   11    1    2    2       -0.0000000025
   11    1    3    2        0.0000000001
   11    1    4    2       -0.0000000000
   11    1    5    2        0.0000003963
   11    1    6    2        0.0000000000
   11    1    7    2       -0.0000000013
   11    1    8    2       -0.0000000003
   11    1    9    2        0.0000000001
   11    1   10    2        0.0000000000
   11    1   11    2        0.0000000103
   11    1    3    3        0.0000000023
   11    1    4    3       -0.0000001262
   11    1    5    3        0.0033687668
   11    1    6    3       -0.0000000008
   11    1    7    3       -0.0000593904
   11    1    8    3       -0.0000000000
   11    1    9    3       -0.0000000008
   11    1   10    3       -0.0000000000
   11    1   11    3        0.0010670202
   11    1    4    4        0.0000000010
   11    1    5    4        0.0000182603
   11    1    6    4        0.0000000292
   11    1    7    4        0.0017499948
   11    1    8    4        0.0000000000
   11    1    9    4       -0.0000000754
   11    1   10    4       -0.0000000023
   11    1   11    4       -0.0000309667
   11    1    5    5        0.0000000009
   11    1    6    5       -0.0007803372
   11    1    7    5       -0.0000000720
   11    1    8    5       -0.0000006866
   11    1    9    5        0.0020134295
   11    1   10    5       -0.0000314153
   11    1   11    5        0.0000000003
   11    1    6    6        0.0000000016
   11    1    7    6        0.0000151617
   11    1    8    6       -0.0000000000
   11    1    9    6       -0.0000000002
   11    1   10    6        0.0000000000
   11    1   11    6       -0.0006473622
   11    1    7    7        0.0000000034
   11    1    8    7        0.0000000157
   11    1    9    7       -0.0000157006
   11    1   10    7        0.0027373835
   11    1   11    7       -0.0000002151
   11    1    8    8        0.0000000025
   11    1    9    8        0.0000000000
   11    1   10    8       -0.0000000000
   11    1   11    8        0.0000000588
   11    1    9    9        0.0000000026
   11    1   10    9       -0.0000000000
   11    1   11    9        0.0028353028
   11    1   10   10        0.0000000053
   11    1   11   10        0.0000422150
   11    1   11   11       -0.0000000012
    2    2    2    2        0.3266462161
    2    2    3    2       -0.0000170170
    2    2    4    2       -0.0000000433
    2    2    5    2        0.0000000000
    2    2    6    2       -0.0000266525
    2    2    7    2       -0.0000000000
    2    2    8    2        0.0215686436
    2    2    9    2       -0.0000153599
    2    2   10    2       -0.0000000274
    2    2   11    2       -0.0000000010
    2    2    3    3        0.0996127702
    2    2    4    3       -0.0000015518
    2    2    5    3        0.0000000000
    2    2    6    3       -0.0006349838
    2    2    7    3        0.0000000000
    2    2    8    3       -0.0000007247
    2    2    9    3        0.0221512602
    2    2   10    3        0.0000007691
    2    2   11    3        0.0000000011
    2    2    4    4        0.1160087142
    2    2    5    4        0.0000000000
    2    2    6    4       -0.0000072725
    2    2    7    4        0.0000000000
    2    2    8    4       -0.0000000093
    2    2    9    4        0.0000018206
    2    2   10    4        0.0265351119
    2    2   11    4       -0.0000009941
    2    2    5    5        0.1160087244
    2    2    6    5        0.0000000000
    2    2    7    5        0.0000052412
    2    2    8    5       -0.0000000000
    2    2    9    5       -0.0000000000
    2    2   10    5        0.0000009941
    2    2   11    5        0.0265351661
    2    2    6    6        0.1116305811
    2    2    7    6       -0.0000000000
    2    2    8    6       -0.0000046088
    2    2    9    6        0.0009654147
    2    2   10    6       -0.0000032896
    2    2   11    6       -0.0000000001
    2    2    7    7        0.1003470727
    2    2    8    7       -0.0000000000
    2    2    9    7        0.0000000000
    2    2   10    7        0.0000000003
    2    2   11    7        0.0000083810
    2    2    8    8        0.1015119661
    2    2    9    8       -0.0000021800
    2    2   10    8       -0.0000000078
    2    2   11    8       -0.0000000008
    2    2    9    9        0.1017005136
    2    2   10    9       -0.0000008522
    2    2   11    9        0.0000000022
    2    2   10   10        0.1159867019
    2    2   11   10       -0.0000000000
    2    2   11   11        0.1159867686
    3    2    3    2        0.0021698400
    3    2    4    2       -0.0000004119
    3    2    5    2        0.0000000000
    3    2    6    2       -0.0001267090
    3    2    7    2        0.0000000000
    3    2    8    2       -0.0000015764
    3    2    9    2        0.0028920599
    3    2   10    2       -0.0000010529
    3    2   11    2        0.0000000003
    3    2    3    3        0.0000056147
    3    2    4    3       -0.0000000056
    3    2    5    3       -0.0000000000
    3    2    6    3        0.0000092431
    3    2    7    3       -0.0000000000
    3    2    8    3       -0.0001129629
    3    2    9    3       -0.0000021519
    3    2   10    3        0.0000000029
    3    2   11    3       -0.0000000000
    3    2    4    4        0.0000043016
    3    2    5    4       -0.0000000000
    3    2    6    4       -0.0000000069
    3    2    7    4        0.0000000000
    3    2    8    4        0.0000013561
    3    2    9    4        0.0000000084
    3    2   10    4       -0.0000027732
    3    2   11    4        0.0000000001
    3    2    5    5        0.0000043016
    3    2    6    5        0.0000000000
    3    2    7    5       -0.0000000093
    3    2    8    5       -0.0000000000
    3    2    9    5        0.0000000000
    3    2   10    5       -0.0000000001
    3    2   11    5       -0.0000027733
    3    2    6    6        0.0000109831
    3    2    7    6       -0.0000000000
    3    2    8    6       -0.0000538120
    3    2    9    6        0.0000028982
    3    2   10    6        0.0000000078
    3    2   11    6        0.0000000000
    3    2    7    7        0.0000049839
    3    2    8    7        0.0000000000
    3    2    9    7       -0.0000000000
    3    2   10    7       -0.0000000000
    3    2   11    7       -0.0000000112
    3    2    8    8       -0.0000013665
    3    2    9    8        0.0004502699
    3    2   10    8        0.0000001707
    3    2   11    8        0.0000000000
    3    2    9    9        0.0000061083
    3    2   10    9       -0.0000000055
    3    2   11    9       -0.0000000000
    3    2   10   10        0.0000034642
    3    2   11   10       -0.0000000000
    3    2   11   11        0.0000034642
    4    2    4    2        0.0014000236
    4    2    5    2        0.0000000000
    4    2    6    2        0.0000001279
    4    2    7    2        0.0000000000
    4    2    8    2       -0.0000000047
    4    2    9    2       -0.0000001221
    4    2   10    2        0.0016103207
    4    2   11    2       -0.0000000603
    4    2    3    3       -0.0000001778
    4    2    4    3        0.0000150652
    4    2    5    3       -0.0000000000
    4    2    6    3       -0.0000001005
    4    2    7    3       -0.0000000000
    4    2    8    3        0.0000152180
    4    2    9    3        0.0000002385
    4    2   10    3       -0.0000011559
    4    2   11    3        0.0000000000
    4    2    4    4        0.0000000438
    4    2    5    4        0.0000000000
    4    2    6    4        0.0000189421
    4    2    7    4        0.0000000000
    4    2    8    4       -0.0017658988
    4    2    9    4        0.0000020554
    4    2   10    4        0.0000001425
    4    2   11    4        0.0000000000
    4    2    5    5       -0.0000000141
    4    2    6    5        0.0000000000
    4    2    7    5        0.0000050096
    4    2    8    5       -0.0000000000
    4    2    9    5       -0.0000000000
    4    2   10    5        0.0000000000
    4    2   11    5        0.0000001250
    4    2    6    6       -0.0000000772
    4    2    7    6       -0.0000000000
    4    2    8    6       -0.0000005949
    4    2    9    6        0.0000001863
    4    2   10    6        0.0000031504
    4    2   11    6       -0.0000000001
    4    2    7    7       -0.0000002690
    4    2    8    7        0.0000000000
    4    2    9    7        0.0000000000
    4    2   10    7        0.0000000003
    4    2   11    7        0.0000075277
    4    2    8    8       -0.0000000268
    4    2    9    8       -0.0000083847
    4    2   10    8       -0.0005389190
    4    2   11    8        0.0000000202
    4    2    9    9       -0.0000003590
    4    2   10    9        0.0000103144
    4    2   11    9       -0.0000000004
    4    2   10   10       -0.0000001782
    4    2   11   10        0.0000000001
    4    2   11   11       -0.0000001966
    5    2    5    2        0.0014000234
    5    2    6    2       -0.0000000000
    5    2    7    2        0.0000001640
    5    2    8    2       -0.0000000000
    5    2    9    2       -0.0000000000
    5    2   10    2        0.0000000603
    5    2   11    2        0.0016103207
    5    2    3    3        0.0000000000
    5    2    4    3        0.0000000000
    5    2    5    3        0.0000150654
    5    2    6    3        0.0000000000
    5    2    7    3       -0.0000002352
    5    2    8    3       -0.0000000000
    5    2    9    3       -0.0000000000
    5    2   10    3       -0.0000000000
    5    2   11    3       -0.0000011563
    5    2    4    4        0.0000000000
    5    2    5    4        0.0000001058
    5    2    6    4        0.0000000000
    5    2    7    4        0.0000050092
    5    2    8    4        0.0000000000
    5    2    9    4       -0.0000000000
    5    2   10    4       -0.0000000000
    5    2   11    4       -0.0000001301
    5    2    5    5       -0.0000000000
    5    2    6    5        0.0000189422
    5    2    7    5       -0.0000000000
    5    2    8    5       -0.0017659003
    5    2    9    5        0.0000020552
    5    2   10    5       -0.0000001375
    5    2   11    5        0.0000000001
    5    2    6    6        0.0000000000
    5    2    7    6       -0.0000002053
    5    2    8    6        0.0000000000
    5    2    9    6       -0.0000000000
    5    2   10    6        0.0000000001
    5    2   11    6        0.0000031503
    5    2    7    7        0.0000000000
    5    2    8    7        0.0000190570
    5    2    9    7        0.0000000841
    5    2   10    7        0.0000075280
    5    2   11    7       -0.0000000003
    5    2    8    8        0.0000000000
    5    2    9    8        0.0000000000
    5    2   10    8       -0.0000000202
    5    2   11    8       -0.0005389192
    5    2    9    9        0.0000000000
    5    2   10    9        0.0000000004
    5    2   11    9        0.0000103144
    5    2   10   10        0.0000000000
    5    2   11   10        0.0000002607
    5    2   11   11        0.0000000001
    6    2    6    2        0.0014609594
    6    2    7    2       -0.0000000000
    6    2    8    2       -0.0000031265
    6    2    9    2       -0.0000837548
    6    2   10    2        0.0000003678
    6    2   11    2       -0.0000000001
    6    2    3    3        0.0000395947
    6    2    4    3        0.0000000703
    6    2    5    3       -0.0000000000
    6    2    6    3        0.0000584703
    6    2    7    3        0.0000000000
    6    2    8    3       -0.0019944768
    6    2    9    3        0.0000056994
    6    2   10    3        0.0000000201
    6    2   11    3        0.0000000000
    6    2    4    4        0.0000353770
    6    2    5    4       -0.0000000000
    6    2    6    4        0.0000000602
    6    2    7    4       -0.0000000000
    6    2    8    4        0.0000013622
    6    2    9    4        0.0000000582
    6    2   10    4       -0.0000037631
    6    2   11    4        0.0000000001
    6    2    5    5        0.0000353769
    6    2    6    5       -0.0000000000
    6    2    7    5       -0.0000000082
    6    2    8    5       -0.0000000000
    6    2    9    5       -0.0000000000
    6    2   10    5       -0.0000000001
    6    2   11    5       -0.0000037635
    6    2    6    6        0.0000909189
    6    2    7    6        0.0000000000
    6    2    8    6       -0.0008703955
    6    2    9    6        0.0000362452
    6    2   10    6        0.0000000752
    6    2   11    6        0.0000000001
    6    2    7    7        0.0000305860
    6    2    8    7        0.0000000000
    6    2    9    7        0.0000000000
    6    2   10    7       -0.0000000000
    6    2   11    7       -0.0000000103
    6    2    8    8       -0.0000021117
    6    2    9    8       -0.0006332910
    6    2   10    8        0.0000007595
    6    2   11    8       -0.0000000001
    6    2    9    9        0.0000488831
    6    2   10    9        0.0000000667
    6    2   11    9        0.0000000001
    6    2   10   10        0.0000268076
    6    2   11   10        0.0000000000
    6    2   11   11        0.0000268074
    7    2    7    2        0.0000963596
    7    2    8    2       -0.0000000000
    7    2    9    2        0.0000000000
    7    2   10    2        0.0000000000
    7    2   11    2        0.0000002856
    7    2    3    3       -0.0000000000
    7    2    4    3        0.0000000000
    7    2    5    3       -0.0000000227
    7    2    6    3        0.0000000000
    7    2    7    3        0.0000034117
    7    2    8    3        0.0000000000
    7    2    9    3       -0.0000000000
    7    2   10    3        0.0000000000
    7    2   11    3        0.0000000032
    7    2    4    4        0.0000000000
    7    2    5    4        0.0000006114
    7    2    6    4       -0.0000000000
    7    2    7    4       -0.0000000045
    7    2    8    4        0.0000000000
    7    2    9    4        0.0000000000
    7    2   10    4        0.0000000001
    7    2   11    4        0.0000020807
    7    2    5    5       -0.0000000000
    7    2    6    5       -0.0000000195
    7    2    7    5        0.0000000000
    7    2    8    5        0.0000013990
    7    2    9    5        0.0000000032
    7    2   10    5        0.0000020807
    7    2   11    5       -0.0000000001
    7    2    6    6       -0.0000000000
    7    2    7    6        0.0000038044
    7    2    8    6        0.0000000000
    7    2    9    6        0.0000000000
    7    2   10    6       -0.0000000000
    7    2   11    6       -0.0000000037
    7    2    7    7       -0.0000000000
    7    2    8    7       -0.0005073730
    7    2    9    7        0.0000007227
    7    2   10    7       -0.0000000132
    7    2   11    7        0.0000000000
    7    2    8    8       -0.0000000000
    7    2    9    8        0.0000000000
    7    2   10    8        0.0000000000
    7    2   11    8        0.0000001621
    7    2    9    9       -0.0000000000
    7    2   10    9       -0.0000000000
    7    2   11    9       -0.0000000159
    7    2   10   10       -0.0000000001
    7    2   11   10       -0.0000008888
    7    2   11   11        0.0000000001
    8    2    8    2        0.0024975197
    8    2    9    2       -0.0000015183
    8    2   10    2       -0.0000000037
    8    2   11    2       -0.0000000001
    8    2    3    3        0.0005178173
    8    2    4    3        0.0000036231
    8    2    5    3       -0.0000000000
    8    2    6    3       -0.0001331766
    8    2    7    3        0.0000000000
    8    2    8    3        0.0000011380
    8    2    9    3        0.0007675654
    8    2   10    3        0.0000000642
    8    2   11    3        0.0000000001
    8    2    4    4        0.0008856924
    8    2    5    4        0.0000000000
    8    2    6    4       -0.0000005861
    8    2    7    4        0.0000000000
    8    2    8    4       -0.0000000019
    8    2    9    4        0.0000005287
    8    2   10    4        0.0010083330
    8    2   11    4       -0.0000000378
    8    2    5    5        0.0008856980
    8    2    6    5        0.0000000000
    8    2    7    5        0.0000020137
    8    2    8    5        0.0000000000
    8    2    9    5       -0.0000000000
    8    2   10    5        0.0000000378
    8    2   11    5        0.0010083335
    8    2    6    6        0.0008928969
    8    2    7    6       -0.0000000000
    8    2    8    6       -0.0000000041
    8    2    9    6       -0.0000960951
    8    2   10    6       -0.0000002259
    8    2   11    6       -0.0000000000
    8    2    7    7        0.0002256155
    8    2    8    7       -0.0000000000
    8    2    9    7        0.0000000000
    8    2   10    7        0.0000000001
    8    2   11    7        0.0000030691
    8    2    8    8        0.0004846877
    8    2    9    8        0.0000000998
    8    2   10    8       -0.0000000002
    8    2   11    8       -0.0000000000
    8    2    9    9        0.0010258221
    8    2   10    9        0.0000026104
    8    2   11    9        0.0000000000
    8    2   10   10        0.0012480707
    8    2   11   10        0.0000000000
    8    2   11   11        0.0012480805
    9    2    9    2        0.0038894073
    9    2   10    2       -0.0000009543
    9    2   11    2        0.0000000004
    9    2    3    3        0.0000054349
    9    2    4    3        0.0000000213
    9    2    5    3        0.0000000000
    9    2    6    3        0.0000101667
    9    2    7    3       -0.0000000000
    9    2    8    3        0.0001129279
    9    2    9    3        0.0000002100
    9    2   10    3        0.0000000001
    9    2   11    3       -0.0000000000
    9    2    4    4        0.0000048608
    9    2    5    4        0.0000000000
    9    2    6    4        0.0000000182
    9    2    7    4        0.0000000000
    9    2    8    4       -0.0000001617
    9    2    9    4        0.0000000080
    9    2   10    4       -0.0000011328
    9    2   11    4        0.0000000000
    9    2    5    5        0.0000048608
    9    2    6    5       -0.0000000000
    9    2    7    5        0.0000000002
    9    2    8    5        0.0000000000
    9    2    9    5       -0.0000000000
    9    2   10    5       -0.0000000000
    9    2   11    5       -0.0000011330
    9    2    6    6        0.0000148024
    9    2    7    6       -0.0000000000
    9    2    8    6       -0.0000899106
    9    2    9    6        0.0000063647
    9    2   10    6        0.0000000127
    9    2   11    6        0.0000000000
    9    2    7    7        0.0000046192
    9    2    8    7        0.0000000000
    9    2    9    7       -0.0000000000
    9    2   10    7        0.0000000000
    9    2   11    7        0.0000000024
    9    2    8    8       -0.0000012030
    9    2    9    8        0.0005118240
    9    2   10    8        0.0000002813
    9    2   11    8        0.0000000001
    9    2    9    9        0.0000063258
    9    2   10    9        0.0000000197
    9    2   11    9       -0.0000000000
    9    2   10   10        0.0000031538
    9    2   11   10       -0.0000000000
    9    2   11   11        0.0000031538
   10    2   10    2        0.0019150250
   10    2   11    2       -0.0000000000
   10    2    3    3       -0.0000001195
   10    2    4    3        0.0000114326
   10    2    5    3        0.0000000004
   10    2    6    3       -0.0000000696
   10    2    7    3       -0.0000000000
   10    2    8    3        0.0000125519
   10    2    9    3        0.0000001859
   10    2   10    3        0.0000003183
   10    2   11    3       -0.0000000000
   10    2    4    4        0.0000000679
   10    2    5    4        0.0000000000
   10    2    6    4        0.0000157759
   10    2    7    4        0.0000000002
   10    2    8    4       -0.0015425038
   10    2    9    4        0.0000024247
   10    2   10    4        0.0000001089
   10    2   11    4        0.0000000000
   10    2    5    5       -0.0000000060
   10    2    6    5        0.0000000006
   10    2    7    5        0.0000048427
   10    2    8    5       -0.0000000578
   10    2    9    5        0.0000000001
   10    2   10    5       -0.0000000000
   10    2   11    5        0.0000001069
   10    2    6    6       -0.0000000215
   10    2    7    6       -0.0000000000
   10    2    8    6       -0.0000006128
   10    2    9    6        0.0000001654
   10    2   10    6        0.0000039545
   10    2   11    6       -0.0000000000
   10    2    7    7       -0.0000002090
   10    2    8    7        0.0000000007
   10    2    9    7        0.0000000000
   10    2   10    7        0.0000000004
   10    2   11    7        0.0000054120
   10    2    8    8       -0.0000000044
   10    2    9    8       -0.0000061530
   10    2   10    8       -0.0007487123
   10    2   11    8        0.0000000000
   10    2    9    9       -0.0000002354
   10    2   10    9        0.0000075525
   10    2   11    9        0.0000000000
   10    2   10   10       -0.0000001231
   10    2   11   10        0.0000000001
   10    2   11   11       -0.0000001468
   11    2   11    2        0.0019150255
   11    2    3    3       -0.0000000000
   11    2    4    3       -0.0000000004
   11    2    5    3        0.0000114328
   11    2    6    3        0.0000000000
   11    2    7    3       -0.0000001893
   11    2    8    3       -0.0000000004
   11    2    9    3       -0.0000000000
   11    2   10    3        0.0000000000
   11    2   11    3        0.0000003176
   11    2    4    4       -0.0000000000
   11    2    5    4        0.0000000831
   11    2    6    4       -0.0000000006
   11    2    7    4        0.0000048422
   11    2    8    4        0.0000000578
   11    2    9    4       -0.0000000001
   11    2   10    4       -0.0000000000
   11    2   11    4       -0.0000001002
   11    2    5    5       -0.0000000000
   11    2    6    5        0.0000157759
   11    2    7    5       -0.0000000002
   11    2    8    5       -0.0015425161
   11    2    9    5        0.0000024242
   11    2   10    5       -0.0000001024
   11    2   11    5        0.0000000000
   11    2    6    6       -0.0000000000
   11    2    7    6       -0.0000001818
   11    2    8    6        0.0000000000
   11    2    9    6        0.0000000000
   11    2   10    6        0.0000000000
   11    2   11    6        0.0000039542
   11    2    7    7       -0.0000000000
   11    2    8    7        0.0000173363
   11    2    9    7        0.0000000705
   11    2   10    7        0.0000054124
   11    2   11    7       -0.0000000004
   11    2    8    8       -0.0000000000
   11    2    9    8        0.0000000003
   11    2   10    8       -0.0000000000
   11    2   11    8       -0.0007486910
   11    2    9    9       -0.0000000000
   11    2   10    9       -0.0000000000
   11    2   11    9        0.0000075529
   11    2   10   10       -0.0000000000
   11    2   11   10        0.0000002049
   11    2   11   11        0.0000000000
    3    3    3    3        0.0874903434
    3    3    4    3       -0.0003934572
    3    3    5    3        0.0000000007
    3    3    6    3       -0.0024168883
    3    3    7    3        0.0000000000
    3    3    8    3       -0.0002409611
    3    3    9    3        0.0055174227
    3    3   10    3        0.0000405182
    3    3   11    3       -0.0000000015
    3    3    4    4        0.0914532022
    3    3    5    4       -0.0000000000
    3    3    6    4        0.0000607113
    3    3    7    4       -0.0000000003
    3    3    8    4        0.0000015575
    3    3    9    4       -0.0000294453
    3    3   10    4        0.0043770771
    3    3   11    4       -0.0000001640
    3    3    5    5        0.0914507733
    3    3    6    5       -0.0000000001
    3    3    7    5       -0.0001426023
    3    3    8    5       -0.0000000000
    3    3    9    5        0.0000000001
    3    3   10    5        0.0000001640
    3    3   11    5        0.0043782060
    3    3    6    6        0.0891524409
    3    3    7    6       -0.0000000000
    3    3    8    6       -0.0000734788
    3    3    9    6       -0.0007648960
    3    3   10    6       -0.0000035760
    3    3   11    6        0.0000000000
    3    3    7    7        0.0887704739
    3    3    8    7        0.0000000000
    3    3    9    7        0.0000000000
    3    3   10    7       -0.0000000100
    3    3   11    7       -0.0002544254
    3    3    8    8        0.0889838555
    3    3    9    8        0.0000108096
    3    3   10    8       -0.0000003044
    3    3   11    8       -0.0000000002
    3    3    9    9        0.0845532921
    3    3   10    9       -0.0002912392
    3    3   11    9        0.0000000119
    3    3   10   10        0.0896132936
    3    3   11   10       -0.0000000000
    3    3   11   11        0.0896123193
    4    3    4    3        0.0176168694
    4    3    5    3       -0.0000000000
    4    3    6    3        0.0001147070
    4    3    7    3       -0.0000000006
    4    3    8    3        0.0000012619
    4    3    9    3        0.0002011057
    4    3   10    3       -0.0023193612
    4    3   11    3        0.0000000869
    4    3    4    4       -0.0002526055
    4    3    5    4        0.0000000006
    4    3    6    4       -0.0019172418
    4    3    7    4        0.0000000139
    4    3    8    4       -0.0000817313
    4    3    9    4        0.0031771257
    4    3   10    4        0.0002343171
    4    3   11    4       -0.0000000090
    4    3    5    5       -0.0000242514
    4    3    6    5        0.0000000000
    4    3    7    5        0.0038137027
    4    3    8    5        0.0000000000
    4    3    9    5        0.0000000000
    4    3   10    5        0.0000000050
    4    3   11    5        0.0001479371
    4    3    6    6       -0.0002774869
    4    3    7    6        0.0000000001
    4    3    8    6        0.0000000013
    4    3    9    6        0.0000081675
    4    3   10    6        0.0002008441
    4    3   11    6       -0.0000000076
    4    3    7    7       -0.0004751227
    4    3    8    7       -0.0000000000
    4    3    9    7       -0.0000000001
    4    3   10    7        0.0000004885
    4    3   11    7        0.0118803658
    4    3    8    8       -0.0004239830
    4    3    9    8       -0.0000012627
    4    3   10    8        0.0000189732
    4    3   11    8       -0.0000000007
    4    3    9    9       -0.0005057954
    4    3   10    9        0.0116610207
    4    3   11    9       -0.0000004369
    4    3   10   10       -0.0003259887
    4    3   11   10        0.0000000027
    4    3   11   11       -0.0002786250
    5    3    5    3        0.0176147716
    5    3    6    3       -0.0000000002
    5    3    7    3       -0.0003440592
    5    3    8    3       -0.0000000000
    5    3    9    3       -0.0000000004
    5    3   10    3       -0.0000000868
    5    3   11    3       -0.0023163734
    5    3    4    4        0.0000000009
    5    3    5    4        0.0001251833
    5    3    6    4        0.0000000000
    5    3    7    4        0.0038148963
    5    3    8    4        0.0000000000
    5    3    9    4        0.0000000000
    5    3   10    4       -0.0000000078
    5    3   11    4       -0.0001771946
    5    3    5    5       -0.0000000004
    5    3    6    5       -0.0019164558
    5    3    7    5       -0.0000000139
    5    3    8    5       -0.0000817252
    5    3    9    5        0.0031788550
    5    3   10    5       -0.0002189026
    5    3   11    5        0.0000000089
    5    3    6    6        0.0000000005
    5    3    7    6        0.0000734271
    5    3    8    6        0.0000000000
    5    3    9    6       -0.0000000000
    5    3   10    6        0.0000000076
    5    3   11    6        0.0002000027
    5    3    7    7        0.0000000009
    5    3    8    7        0.0000015368
    5    3    9    7       -0.0000518478
    5    3   10    7        0.0118786476
    5    3   11    7       -0.0000004884
    5    3    8    8        0.0000000008
    5    3    9    8       -0.0000000000
    5    3   10    8        0.0000000007
    5    3   11    8        0.0000189594
    5    3    9    9        0.0000000009
    5    3   10    9        0.0000004368
    5    3   11    9        0.0116580385
    5    3   10   10        0.0000000233
    5    3   11   10        0.0002893638
    5    3   11   11       -0.0000000217
    6    3    6    3        0.0087495224
    6    3    7    3        0.0000000000
    6    3    8    3       -0.0002810423
    6    3    9    3       -0.0003699107
    6    3   10    3       -0.0000129525
    6    3   11    3        0.0000000005
    6    3    4    4       -0.0023737764
    6    3    5    4        0.0000000000
    6    3    6    4       -0.0000736638
    6    3    7    4        0.0000000001
    6    3    8    4        0.0000012640
    6    3    9    4        0.0000225853
    6    3   10    4        0.0001242140
    6    3   11    4       -0.0000000047
    6    3    5    5       -0.0023725471
    6    3    6    5        0.0000000001
    6    3    7    5        0.0000333302
    6    3    8    5       -0.0000000000
    6    3    9    5       -0.0000000000
    6    3   10    5        0.0000000047
    6    3   11    5        0.0001237103
    6    3    6    6       -0.0019542466
    6    3    7    6       -0.0000000000
    6    3    8    6       -0.0000925114
    6    3    9    6        0.0035088352
    6    3   10    6        0.0000052166
    6    3   11    6       -0.0000000001
    6    3    7    7       -0.0026263593
    6    3    8    7       -0.0000000000
    6    3    9    7        0.0000000000
    6    3   10    7        0.0000000027
    6    3   11    7        0.0000694788
    6    3    8    8       -0.0036189907
    6    3    9    8       -0.0000067817
    6    3   10    8       -0.0000001203
    6    3   11    8       -0.0000000001
    6    3    9    9       -0.0016309552
    6    3   10    9        0.0000817412
    6    3   11    9       -0.0000000033
    6    3   10   10       -0.0027136256
    6    3   11   10        0.0000000000
    6    3   11   11       -0.0027132051
    7    3    7    3        0.0098624192
    7    3    8    3       -0.0000000000
    7    3    9    3        0.0000000000
    7    3   10    3       -0.0000000006
    7    3   11    3       -0.0000141106
    7    3    4    4        0.0000000024
    7    3    5    4        0.0006518548
    7    3    6    4        0.0000000001
    7    3    7    4       -0.0001644824
    7    3    8    4        0.0000000000
    7    3    9    4       -0.0000000001
    7    3   10    4        0.0000002719
    7    3   11    4        0.0066126581
    7    3    5    5       -0.0000000024
    7    3    6    5        0.0000481169
    7    3    7    5        0.0000000003
    7    3    8    5        0.0000014627
    7    3    9    5       -0.0000650137
    7    3   10    5        0.0066127737
    7    3   11    5       -0.0000002719
    7    3    6    6        0.0000000000
    7    3    7    6       -0.0008111871
    7    3    8    6       -0.0000000000
    7    3    9    6        0.0000000000
    7    3   10    6        0.0000000001
    7    3   11    6        0.0000015266
    7    3    7    7        0.0000000000
    7    3    8    7       -0.0000464893
    7    3    9    7        0.0053519388
    7    3   10    7       -0.0002488881
    7    3   11    7        0.0000000094
    7    3    8    8        0.0000000000
    7    3    9    8        0.0000000000
    7    3   10    8       -0.0000000000
    7    3   11    8       -0.0000000675
    7    3    9    9        0.0000000000
    7    3   10    9       -0.0000000097
    7    3   11    9       -0.0002461931
    7    3   10   10       -0.0000000320
    7    3   11   10       -0.0004076037
    7    3   11   11        0.0000000320
    8    3    8    3        0.0181783076
    8    3    9    3        0.0000556799
    8    3   10    3       -0.0000005837
    8    3   11    3       -0.0000000000
    8    3    4    4       -0.0002015725
    8    3    5    4        0.0000000000
    8    3    6    4        0.0000015787
    8    3    7    4       -0.0000000000
    8    3    8    4       -0.0001516836
    8    3    9    4       -0.0000007651
    8    3   10    4        0.0000624436
    8    3   11    4       -0.0000000023
    8    3    5    5       -0.0002015680
    8    3    6    5       -0.0000000000
    8    3    7    5        0.0000005862
    8    3    8    5        0.0000000003
    8    3    9    5        0.0000000000
    8    3   10    5        0.0000000023
    8    3   11    5        0.0000624381
    8    3    6    6       -0.0003891678
    8    3    7    6       -0.0000000000
    8    3    8    6        0.0013777274
    8    3    9    6       -0.0000607427
    8    3   10    6       -0.0000004044
    8    3   11    6       -0.0000000002
    8    3    7    7       -0.0002027363
    8    3    8    7       -0.0000000000
    8    3    9    7        0.0000000000
    8    3   10    7        0.0000000000
    8    3   11    7        0.0000008101
    8    3    8    8       -0.0000010928
    8    3    9    8       -0.0005404839
    8    3   10    8        0.0000193620
    8    3   11    8       -0.0000000008
    8    3    9    9       -0.0003009638
    8    3   10    9        0.0000012594
    8    3   11    9       -0.0000000006
    8    3   10   10       -0.0001994126
    8    3   11   10        0.0000000000
    8    3   11   11       -0.0001994082
    9    3    9    3        0.0080463908
    9    3   10    3       -0.0000958525
    9    3   11    3        0.0000000038
    9    3    4    4        0.0094622904
    9    3    5    4        0.0000000000
    9    3    6    4       -0.0000151444
    9    3    7    4        0.0000000000
    9    3    8    4       -0.0000019263
    9    3    9    4       -0.0000525440
    9    3   10    4        0.0065063431
    9    3   11    4       -0.0000002438
    9    3    5    5        0.0094664045
    9    3    6    5        0.0000000000
    9    3    7    5        0.0000223894
    9    3    8    5        0.0000000000
    9    3    9    5        0.0000000001
    9    3   10    5        0.0000002437
    9    3   11    5        0.0065044473
    9    3    6    6        0.0095338822
    9    3    7    6        0.0000000000
    9    3    8    6        0.0000006418
    9    3    9    6       -0.0000166768
    9    3   10    6        0.0000183631
    9    3   11    6       -0.0000000008
    9    3    7    7        0.0096758391
    9    3    8    7        0.0000000000
    9    3    9    7       -0.0000000000
    9    3   10    7        0.0000000040
    9    3   11    7        0.0001010372
    9    3    8    8        0.0054604013
    9    3    9    8       -0.0000489392
    9    3   10    8        0.0000007163
    9    3   11    8       -0.0000000003
    9    3    9    9        0.0031351981
    9    3   10    9        0.0001626499
    9    3   11    9       -0.0000000059
    9    3   10   10        0.0081088692
    9    3   11   10        0.0000000001
    9    3   11   11        0.0081102395
   10    3   10    3        0.0058728811
   10    3   11    3       -0.0000000002
   10    3    4    4        0.0001802952
   10    3    5    4       -0.0000000011
   10    3    6    4        0.0003997780
   10    3    7    4        0.0000001612
   10    3    8    4        0.0000317948
   10    3    9    4        0.0035301672
   10    3   10    4       -0.0000829711
   10    3   11    4        0.0000000030
   10    3    5    5       -0.0001592621
   10    3    6    5        0.0000000150
   10    3    7    5        0.0039230556
   10    3    8    5        0.0000000012
   10    3    9    5        0.0000001322
   10    3   10    5        0.0000000036
   10    3   11    5        0.0000448464
   10    3    6    6        0.0000273811
   10    3    7    6        0.0000000001
   10    3    8    6        0.0000000097
   10    3    9    6        0.0000226448
   10    3   10    6       -0.0006516583
   10    3   11    6        0.0000000001
   10    3    7    7       -0.0000403471
   10    3    8    7       -0.0000000000
   10    3    9    7       -0.0000000014
   10    3   10    7       -0.0000000592
   10    3   11    7       -0.0007547961
   10    3    8    8        0.0000434242
   10    3    9    8        0.0000007749
   10    3   10    8       -0.0000321856
   10    3   11    8        0.0000000000
   10    3    9    9        0.0001309582
   10    3   10    9       -0.0009720358
   10    3   11    9        0.0000000002
   10    3   10   10        0.0000552624
   10    3   11   10       -0.0000000034
   10    3   11   11       -0.0000033315
   11    3   11    3        0.0058683836
   11    3    4    4       -0.0000000069
   11    3    5    4       -0.0000118055
   11    3    6    4       -0.0000000150
   11    3    7    4        0.0039212979
   11    3    8    4       -0.0000000012
   11    3    9    4       -0.0000001323
   11    3   10    4        0.0000000031
   11    3   11    4       -0.0000102274
   11    3    5    5        0.0000000066
   11    3    6    5        0.0003986789
   11    3    7    5       -0.0000001613
   11    3    8    5        0.0000317812
   11    3    9    5        0.0035274883
   11    3   10    5        0.0000438099
   11    3   11    5       -0.0000000032
   11    3    6    6       -0.0000000009
   11    3    7    6        0.0000030625
   11    3    8    6       -0.0000000001
   11    3    9    6       -0.0000000009
   11    3   10    6        0.0000000001
   11    3   11    6       -0.0006502661
   11    3    7    7        0.0000000015
   11    3    8    7       -0.0000003273
   11    3    9    7       -0.0000367752
   11    3   10    7       -0.0007521312
   11    3   11    7        0.0000000592
   11    3    8    8       -0.0000000016
   11    3    9    8       -0.0000000002
   11    3   10    8        0.0000000000
   11    3   11    8       -0.0000321584
   11    3    9    9       -0.0000000048
   11    3   10    9        0.0000000002
   11    3   11    9       -0.0009677262
   11    3   10   10       -0.0000000043
   11    3   11   10       -0.0000306534
   11    3   11   11        0.0000000029
    4    4    4    4        0.1089542934
    4    4    5    4       -0.0000000320
    4    4    6    4        0.0000687316
    4    4    7    4        0.0000000002
    4    4    8    4        0.0000005932
    4    4    9    4        0.0000588072
    4    4   10    4        0.0079683221
    4    4   11    4       -0.0000002917
    4    4    5    5        0.0895606633
    4    4    6    5       -0.0000000002
    4    4    7    5        0.0000355743
    4    4    8    5       -0.0000000000
    4    4    9    5       -0.0000000001
    4    4   10    5        0.0000003864
    4    4   11    5        0.0101303715
    4    4    6    6        0.0955039986
    4    4    7    6        0.0000000005
    4    4    8    6       -0.0000659124
    4    4    9    6       -0.0009643914
    4    4   10    6       -0.0000487336
    4    4   11    6        0.0000000018
    4    4    7    7        0.0929927829
    4    4    8    7       -0.0000000000
    4    4    9    7        0.0000000039
    4    4   10    7       -0.0000000081
    4    4   11    7       -0.0002134649
    4    4    8    8        0.0930156454
    4    4    9    8       -0.0000003137
    4    4   10    8       -0.0000008838
    4    4   11    8       -0.0000000003
    4    4    9    9        0.0879997167
    4    4   10    9       -0.0002228569
    4    4   11    9        0.0000000099
    4    4   10   10        0.0974313397
    4    4   11   10       -0.0000000808
    4    4   11   11        0.0952260089
    5    4    5    4        0.0009222605
    5    4    6    4       -0.0000000002
    5    4    7    4        0.0000481569
    5    4    8    4       -0.0000000000
    5    4    9    4       -0.0000000003
    5    4   10    4        0.0000000365
    5    4   11    4        0.0007911072
    5    4    5    5        0.0000000320
    5    4    6    5       -0.0000133143
    5    4    7    5       -0.0000000004
    5    4    8    5       -0.0000006714
    5    4    9    5        0.0000079677
    5    4   10    5        0.0007910789
    5    4   11    5       -0.0000000365
    5    4    6    6       -0.0000000000
    5    4    7    6        0.0001498557
    5    4    8    6        0.0000000000
[...]
    8    5    8    8       -0.0000000000
    8    5    9    8       -0.0000000002
    8    5   10    8       -0.0000000670
    8    5   11    8       -0.0017883385
    8    5    9    9       -0.0000000000
    8    5   10    9       -0.0000000026
    8    5   11    9       -0.0000685098
    8    5   10   10       -0.0000000001
    8    5   11   10       -0.0000018251
    8    5   11   11       -0.0000000003
    9    5    9    5        0.0045688505
    9    5   10    5       -0.0000114658
    9    5   11    5        0.0000000006
    9    5    6    6        0.0000000000
    9    5    7    6        0.0000265117
    9    5    8    6        0.0000000000
    9    5    9    6       -0.0000000000
    9    5   10    6       -0.0000000090
    9    5   11    6       -0.0002394586
    9    5    7    7        0.0000000002
    9    5    8    7       -0.0000003596
    9    5    9    7       -0.0000449996
    9    5   10    7        0.0031683004
    9    5   11    7       -0.0000001303
    9    5    8    8        0.0000000001
    9    5    9    8       -0.0000000000
    9    5   10    8       -0.0000000009
    9    5   11    8       -0.0000241155
    9    5    9    9       -0.0000000001
    9    5   10    9        0.0000000630
    9    5   11    9        0.0016812844
    9    5   10   10        0.0000000012
    9    5   11   10        0.0000148392
    9    5   11   11       -0.0000000007
   10    5   10    5        0.0059984302
   10    5   11    5        0.0000001047
   10    5    6    6        0.0000003121
   10    5    7    6       -0.0008097597
   10    5    8    6        0.0000000004
   10    5    9    6        0.0000000004
   10    5   10    6       -0.0000000008
   10    5   11    6       -0.0000085006
   10    5    7    7        0.0000002514
   10    5    8    7       -0.0000266865
   10    5    9    7        0.0036244933
   10    5   10    7       -0.0001584929
   10    5   11    7        0.0000000089
   10    5    8    8        0.0000001630
   10    5    9    8       -0.0000000009
   10    5   10    8       -0.0000000000
   10    5   11    8       -0.0000003496
   10    5    9    9        0.0000001735
   10    5   10    9       -0.0000000034
   10    5   11    9       -0.0001553449
   10    5   10   10        0.0000003569
   10    5   11   10        0.0003565321
   10    5   11   11        0.0000002811
   11    5   11    5        0.0091670566
   11    5    6    6        0.0083300151
   11    5    7    6        0.0000000333
   11    5    8    6        0.0000104768
   11    5    9    6        0.0000106575
   11    5   10    6       -0.0000101181
   11    5   11    6        0.0000000005
   11    5    7    7        0.0067098399
   11    5    8    7        0.0000000011
   11    5    9    7       -0.0000001490
   11    5   10    7        0.0000000097
   11    5   11    7        0.0000804546
   11    5    8    8        0.0043507188
   11    5    9    8       -0.0000241703
   11    5   10    8       -0.0000004584
   11    5   11    8       -0.0000000003
   11    5    9    9        0.0046300066
   11    5   10    9        0.0000770937
   11    5   11    9        0.0000000040
   11    5   10   10        0.0087549611
   11    5   11   10       -0.0000000336
   11    5   11   11        0.0082734524
    6    6    6    6        0.0963260458
    6    6    7    6        0.0000000000
    6    6    8    6       -0.0001367904
    6    6    9    6        0.0013976545
    6    6   10    6       -0.0000078447
    6    6   11    6        0.0000000004
    6    6    7    7        0.0906339183
    6    6    8    7        0.0000000000
    6    6    9    7       -0.0000000000
    6    6   10    7       -0.0000000070
    6    6   11    7       -0.0001789807
    6    6    8    8        0.0890476544
    6    6    9    8       -0.0000327047
    6    6   10    8       -0.0000000884
    6    6   11    8       -0.0000000003
    6    6    9    9        0.0860265453
    6    6   10    9       -0.0001982019
    6    6   11    9        0.0000000086
    6    6   10   10        0.0926784579
    6    6   11   10       -0.0000000000
    6    6   11   11        0.0926777671
    7    6    7    6        0.0042101307
    7    6    8    6       -0.0000000000
    7    6    9    6       -0.0000000000
    7    6   10    6       -0.0000000007
    7    6   11    6       -0.0000178538
    7    6    7    7       -0.0000000000
    7    6    8    7       -0.0000534696
    7    6    9    7       -0.0018842864
    7    6   10    7        0.0000602349
    7    6   11    7       -0.0000000025
    7    6    8    8        0.0000000000
    7    6    9    8       -0.0000000000
    7    6   10    8        0.0000000000
    7    6   11    8        0.0000000423
    7    6    9    9       -0.0000000000
    7    6   10    9        0.0000000022
    7    6   11    9        0.0000564643
    7    6   10   10       -0.0000000691
    7    6   11   10       -0.0008798439
    7    6   11   11        0.0000000691
    8    6    8    6        0.0025402501
    8    6    9    6       -0.0000367971
    8    6   10    6       -0.0000000463
    8    6   11    6       -0.0000000000
    8    6    7    7       -0.0000636722
    8    6    8    7        0.0000000000
    8    6    9    7       -0.0000000000
    8    6   10    7        0.0000000000
    8    6   11    7        0.0000000693
    8    6    8    8       -0.0000001725
    8    6    9    8        0.0008110983
    8    6   10    8       -0.0000082949
    8    6   11    8        0.0000000003
    8    6    9    9       -0.0000814008
    8    6   10    9       -0.0000000300
    8    6   11    9       -0.0000000000
    8    6   10   10       -0.0000573435
    8    6   11   10       -0.0000000000
    8    6   11   11       -0.0000573442
    9    6    9    6        0.0046638052
    9    6   10    6       -0.0000202219
    9    6   11    6        0.0000000010
    9    6    7    7       -0.0023360101
    9    6    8    7       -0.0000000000
    9    6    9    7       -0.0000000000
    9    6   10    7        0.0000000005
    9    6   11    7        0.0000128175
    9    6    8    8       -0.0010013032
    9    6    9    8       -0.0000485527
    9    6   10    8        0.0000004044
    9    6   11    8       -0.0000000000
    9    6    9    9       -0.0011689975
    9    6   10    9        0.0000156777
    9    6   11    9       -0.0000000005
    9    6   10   10       -0.0019155523
    9    6   11   10       -0.0000000000
    9    6   11   11       -0.0019158897
   10    6   10    6        0.0033073831
   10    6   11    6       -0.0000000000
   10    6    7    7        0.0000188229
   10    6    8    7        0.0000000000
   10    6    9    7        0.0000000005
   10    6   10    7       -0.0000000513
   10    6   11    7       -0.0006534541
   10    6    8    8       -0.0000057672
   10    6    9    8        0.0000004178
   10    6   10    8       -0.0000286282
   10    6   11    8       -0.0000000000
   10    6    9    9        0.0000009746
   10    6   10    9       -0.0010866739
   10    6   11    9       -0.0000000000
   10    6   10   10       -0.0000040428
   10    6   11   10        0.0000000001
   10    6   11   11        0.0000002469
   11    6   11    6        0.0033063161
   11    6    7    7       -0.0000000010
   11    6    8    7        0.0000001091
   11    6    9    7        0.0000124316
   11    6   10    7       -0.0006541516
   11    6   11    7        0.0000000513
   11    6    8    8        0.0000000001
   11    6    9    8       -0.0000000000
   11    6   10    8        0.0000000000
   11    6   11    8       -0.0000286094
   11    6    9    9       -0.0000000000
   11    6   10    9       -0.0000000001
   11    6   11    9       -0.0010875320
   11    6   10   10       -0.0000000001
   11    6   11   10       -0.0000002227
   11    6   11   11       -0.0000000003
    7    7    7    7        0.0956079701
    7    7    8    7        0.0000000000
    7    7    9    7        0.0000000000
    7    7   10    7       -0.0000000137
    7    7   11    7       -0.0003484118
    7    7    8    8        0.0903746864
    7    7    9    8       -0.0000022008
    7    7   10    8        0.0000000392
    7    7   11    8       -0.0000000003
    7    7    9    9        0.0841861665
    7    7   10    9       -0.0003445471
    7    7   11    9        0.0000000141
    7    7   10   10        0.0916911974
    7    7   11   10       -0.0000000000
    7    7   11   11        0.0916908269
    8    7    8    7        0.0070026962
    8    7    9    7       -0.0000017312
    8    7   10    7        0.0000007667
    8    7   11    7       -0.0000000002
    8    7    8    8        0.0000000000
    8    7    9    8       -0.0000000000
    8    7   10    8       -0.0000000006
    8    7   11    8       -0.0000152028
    8    7    9    9       -0.0000000000
    8    7   10    9        0.0000000000
    8    7   11    9        0.0000011876
    8    7   10   10        0.0000000017
    8    7   11   10        0.0000217999
    8    7   11   11       -0.0000000017
    9    7    9    7        0.0043706871
    9    7   10    7       -0.0000613445
    9    7   11    7        0.0000000023
    9    7    8    8        0.0000000000
    9    7    9    8       -0.0000000000
    9    7   10    8        0.0000000000
    9    7   11    8        0.0000001551
    9    7    9    9        0.0000000000
    9    7   10    9       -0.0000000015
    9    7   11    9       -0.0000389170
    9    7   10   10        0.0000001304
    9    7   11   10        0.0016594894
    9    7   11   11       -0.0000001304
   10    7   10    7        0.0095576694
   10    7   11    7        0.0000000001
   10    7    8    8       -0.0000000107
   10    7    9    8       -0.0000000000
   10    7   10    8        0.0000000011
   10    7   11    8        0.0000147186
   10    7    9    9       -0.0000000120
   10    7   10    9        0.0000006495
   10    7   11    9        0.0082634596
   10    7   10   10        0.0000000063
   10    7   11   10        0.0001835116
   10    7   11   11       -0.0000000206
   11    7   11    7        0.0095591578
   11    7    8    8       -0.0002732699
   11    7    9    8       -0.0000005628
   11    7   10    8        0.0000147343
   11    7   11    8       -0.0000000012
   11    7    9    9       -0.0003048351
   11    7   10    9        0.0082659689
   11    7   11    9       -0.0000006494
   11    7   10   10       -0.0002059424
   11    7   11   10       -0.0000000054
   11    7   11   11       -0.0001702774
    8    8    8    8        0.0923565543
    8    8    9    8        0.0000000271
    8    8   10    8       -0.0000000520
    8    8   11    8       -0.0000000002
    8    8    9    9        0.0856380742
    8    8   10    9       -0.0003136576
    8    8   11    9        0.0000000127
    8    8   10   10        0.0912059599
    8    8   11   10       -0.0000000000
    8    8   11   11        0.0912048903
    9    8    9    8        0.0049954353
    9    8   10    8       -0.0000636481
    9    8   11    8        0.0000000025
    9    8    9    9        0.0000487259
    9    8   10    9       -0.0000015068
    9    8   11    9        0.0000000001
    9    8   10   10        0.0000205942
    9    8   11   10       -0.0000000000
    9    8   11   11        0.0000205824
   10    8   10    8        0.0046785800
   10    8   11    8       -0.0000000001
   10    8    9    9       -0.0000015656
   10    8   10    9        0.0000301211
   10    8   11    9       -0.0000000000
   10    8   10   10       -0.0000006412
   10    8   11   10        0.0000000001
   10    8   11   11        0.0000001375
   11    8   11    8        0.0046763237
   11    8    9    9       -0.0000000000
   11    8   10    9       -0.0000000000
   11    8   11    9        0.0000300789
   11    8   10   10       -0.0000000002
   11    8   11   10        0.0000003632
   11    8   11   11       -0.0000000003
    9    9    9    9        0.0864476722
    9    9   10    9       -0.0004122788
    9    9   11    9        0.0000000165
    9    9   10   10        0.0875472161
    9    9   11   10       -0.0000000001
    9    9   11   11        0.0875443822
   10    9   10    9        0.0099380510
   10    9   11    9       -0.0000000002
   10    9   10   10       -0.0002622536
   10    9   11   10        0.0000000118
   10    9   11   11       -0.0001762403
   11    9   11    9        0.0099333398
   11    9   10   10        0.0000000275
   11    9   11   10        0.0002098453
   11    9   11   11       -0.0000000085
   10   10   10   10        0.0960975007
   10   10   11   10        0.0000002136
   10   10   11   11        0.0944977588
   11   10   11   10        0.0035181758
   11   10   11   11       -0.0000002136
   11   11   11   11        0.0960971668
 end_two_electron_integrals


 output epsi filename:./pspw_hf_H2.emovecs

 Total PSPW energy     :  -0.7921382280E+00


=== Spin Contamination ===

 <Sexact^2> =    0.0000000000000000     
 <S^2>      =    0.0000000000000000     



== Center of Charge ==

spin up     (    0.0000,    0.0000,    0.0001 )
spin down   (    0.0000,    0.0000,    0.0001 )
     total  (    0.0000,    0.0000,    0.0001 )
ionic       (    0.0000,    0.0000,    0.0000 )


== Molecular Dipole wrt Center of Mass ==

mu   =  (   -0.0000,   -0.0000,   -0.0001 ) au
|mu| =     0.0001 au,       0.0003 Debye

 output psi filename:./pspw_hf_H2.movecs

 Writing Crystallographic Information File:./H2.cif
   - cell not shifted (nwpw:cif_shift_cell .false.)


== Timing ==

cputime in seconds
  prologue    :   0.575565E+01
  main loop   :   0.724191E+03
  epilogue    :   0.213860E-01
  total       :   0.729968E+03
  cputime/step:   0.479597E+01       (     151 evalulations,      63 linesearches)


Time spent doing                        total          step       percent
  total time                 :   0.729968E+03  0.483423E+01       100.0 %
  i/o time                   :   0.287243E+00  0.190227E-02         0.0 %
  FFTs                       :   0.639314E+03  0.423386E+01        87.6 %
  dot products               :   0.107323E+01  0.710749E-02         0.1 %
  geodesic                   :   0.140180E+00  0.928346E-03         0.0 %
  ffm_dgemm                  :   0.161054E-01  0.106658E-03         0.0 %
  fmf_dgemm                  :   0.896181E-01  0.593497E-03         0.0 %
  mmm_dgemm                  :   0.168074E-02  0.111307E-04         0.0 %
  m_diagonalize              :   0.974301E-03  0.645232E-05         0.0 %
  local pseudopotentials     :   0.203040E-01  0.134464E-03         0.0 %
  non-local pseudopotentials :   0.215466E+01  0.142693E-01         0.3 %
  structure factors          :   0.900277E+00  0.596210E-02         0.1 %
  phase factors              :   0.614900E-05  0.407219E-07         0.0 %
  masking and packing        :   0.996167E+01  0.659713E-01         1.4 %
  queue fft                  :   0.323444E+01  0.214201E-01         0.4 %
  queue fft (serial)         :   0.138296E+01  0.915870E-02         0.2 %
  queue fft (message passing):   0.170788E+01  0.113105E-01         0.2 %
  HFX potential              :   0.543235E+03  0.359758E+01        74.4 %
  non-local psp FFM          :   0.113808E+01  0.753695E-02         0.2 %
  non-local psp FMF          :   0.283194E+00  0.187546E-02         0.0 %
  non-local psp FFM A        :   0.377378E+00  0.249919E-02         0.1 %
  non-local psp FFM B        :   0.239081E+00  0.158332E-02         0.0 %

== HFX Counters ==
  HFX Evalulations         =   151
  Lin ACE HFX Evalulations =     0


     >>>  JOB COMPLETED     AT Wed Apr 30 11:24:09 2025  <<<

 Task  times  cpu:      758.9s     wall:      730.0s
 Summary of allocated global arrays
-----------------------------------
  No active global arrays


MA_summarize_allocated_blocks: starting scan ...
MA_summarize_allocated_blocks: scan completed: 0 heap blocks, 0 stack blocks
MA usage statistics:

	allocation statistics:
					      heap	     stack
					      ----	     -----
	current number of blocks	         0	         0
	maximum number of blocks	       313	        17
	current total bytes		         0	         0
	maximum total bytes		 937705688	 228700296
	maximum total K-bytes		    937706	    228701
	maximum total M-bytes		       938	       229


                                NWChem Input Module
                                -------------------




                                     CITATION
                                     --------
                Please cite the following reference when publishing
                           results obtained with NWChem:

          E. Apra, E. J. Bylaska, W. A. de Jong, N. Govind, K. Kowalski,
       T. P. Straatsma, M. Valiev, H. J. J. van Dam, Y. Alexeev, J. Anchell,
       V. Anisimov, F. W. Aquino, R. Atta-Fynn, J. Autschbach, N. P. Bauman,
     J. C. Becca, D. E. Bernholdt, K. Bhaskaran-Nair, S. Bogatko, P. Borowski,
         J. Boschen, J. Brabec, A. Bruner, E. Cauet, Y. Chen, G. N. Chuev,
      C. J. Cramer, J. Daily, M. J. O. Deegan, T. H. Dunning Jr., M. Dupuis,
   K. G. Dyall, G. I. Fann, S. A. Fischer, A. Fonari, H. Fruchtl, L. Gagliardi,
      J. Garza, N. Gawande, S. Ghosh, K. Glaesemann, A. W. Gotz, J. Hammond,
       V. Helms, E. D. Hermes, K. Hirao, S. Hirata, M. Jacquelin, L. Jensen,
   B. G. Johnson, H. Jonsson, R. A. Kendall, M. Klemm, R. Kobayashi, V. Konkov,
      S. Krishnamoorthy, M. Krishnan, Z. Lin, R. D. Lins, R. J. Littlefield,
      A. J. Logsdail, K. Lopata, W. Ma, A. V. Marenich, J. Martin del Campo,
   D. Mejia-Rodriguez, J. E. Moore, J. M. Mullin, T. Nakajima, D. R. Nascimento,
    J. A. Nichols, P. J. Nichols, J. Nieplocha, A. Otero-de-la-Roza, B. Palmer,
    A. Panyala, T. Pirojsirikul, B. Peng, R. Peverati, J. Pittner, L. Pollack,
   R. M. Richard, P. Sadayappan, G. C. Schatz, W. A. Shelton, D. W. Silverstein,
   D. M. A. Smith, T. A. Soares, D. Song, M. Swart, H. L. Taylor, G. S. Thomas,
            V. Tipparaju, D. G. Truhlar, K. Tsemekhman, T. Van Voorhis,
      A. Vazquez-Mayagoitia, P. Verma, O. Villa, A. Vishnu, K. D. Vogiatzis,
        D. Wang, J. H. Weare, M. J. Williamson, T. L. Windus, K. Wolinski,
        A. T. Wong, Q. Wu, C. Yang, Q. Yu, M. Zacharias, Z. Zhang, Y. Zhao,
                                and R. J. Harrison
                        "NWChem: Past, present, and future
                         J. Chem. Phys. 152, 184102 (2020)
                               doi:10.1063/5.0004997

                                      AUTHORS
                                      -------
  E. Apra, E. J. Bylaska, N. Govind, K. Kowalski, M. Valiev, D. Mejia-Rodriguez,
       A. Kunitsa, N. P. Bauman, A. Panyala, W. A. de Jong, T. P. Straatsma,
   H. J. J. van Dam, D. Wang, T. L. Windus, J. Hammond, J. Autschbach, A. Woods,
    K. Bhaskaran-Nair, J. Brabec, K. Lopata, S. A. Fischer, S. Krishnamoorthy,
     M. Jacquelin, W. Ma, M. Klemm, O. Villa, Y. Chen, V. Anisimov, F. Aquino,
     S. Hirata, M. T. Hackler, E. Hermes, L. Jensen, J. E. Moore, J. C. Becca,
      V. Konjkov, T. Risthaus, M. Malagoli, A. Marenich, A. Otero-de-la-Roza,
        J. Mullin, P. Nichols, R. Peverati, J. Pittner, Y. Zhao, P.-D. Fan,
        A. Fonari, M. J. Williamson, R. J. Harrison, J. R. Rehr, M. Dupuis,
     D. Silverstein, D. M. A. Smith, J. Nieplocha, V. Tipparaju, M. Krishnan,
     B. E. Van Kuiken, A. Vazquez-Mayagoitia, M. Swart, Q. Wu, T. Van Voorhis,
     A. A. Auer, M. Nooijen, L. D. Crosby, E. Brown, G. Cisneros, G. I. Fann,
   H. Fruchtl, J. Garza, K. Hirao, R. A. Kendall, J. A. Nichols, K. Tsemekhman,
    K. Wolinski, J. Anchell, D. E. Bernholdt, P. Borowski, T. Clark, D. Clerc,
   H. Dachsel, M. J. O. Deegan, K. Dyall, D. Elwood, E. Glendening, M. Gutowski,
   A. C. Hess, J. Jaffe, B. G. Johnson, J. Ju, R. Kobayashi, R. Kutteh, Z. Lin,
   R. Littlefield, X. Long, B. Meng, T. Nakajima, S. Niu, L. Pollack, M. Rosing,
   K. Glaesemann, G. Sandrone, M. Stave, H. Taylor, G. Thomas, J. H. van Lenthe,
                               A. T. Wong, Z. Zhang.

 Total times  cpu:      759.0s     wall:      730.0s
