 argument  1 = H2-6.0.nw



============================== echo of input deck ==============================
title "swnc: e theory=pspw4 xc=hf formula=H2 charge=0 mult=1"
#machinejob:expert

echo

start pspw_hf_H2

memory heap 1200 mb stack 1200 mb global 10 mb

charge 0

geometry
H    0.00000    0.00000   -3.00000
H    0.00000    0.00000    3.00000
end

nwpw
  ### pseudopotential block begin ###
  ### pseudopotential block end   ###
  simulation_cell
     SC 20.0000
     boundary_conditions aperiodic
  end

  cutoff 50.0
  mult 1
  xc hf
  lmbfgs
  tolerances 1.0e-9 1.0e-9

  virtual 10
end
set nwpw:cif_filename H2

#set nwpw:CI_maxit_orb 15
#set nwpw:CI_maxit_linesearch 15
set pspw:HFX_screening_radius 14.0


set nwpw:2qintegrals .true.
#set nwpw:3x3_virtual .true.

task pspw energy

================================================================================


                                         
                                         


             Northwest Computational Chemistry Package (NWChem) 7.2.2
             --------------------------------------------------------


                    Environmental Molecular Sciences Laboratory
                       Pacific Northwest National Laboratory
                                Richland, WA 99352

                              Copyright (c) 1994-2022
                       Pacific Northwest National Laboratory
                            Battelle Memorial Institute

             NWChem is an open-source computational chemistry package
                        distributed under the terms of the
                      Educational Community License (ECL) 2.0
             A copy of the license is included with this distribution
                              in the LICENSE.TXT file

                                  ACKNOWLEDGMENT
                                  --------------

            This software and its documentation were developed at the
            EMSL at Pacific Northwest National Laboratory, a multiprogram
            national laboratory, operated for the U.S. Department of Energy
            by Battelle under Contract Number DE-AC05-76RL01830. Support
            for this work was provided by the Department of Energy Office
            of Biological and Environmental Research, Office of Basic
            Energy Sciences, and the Office of Advanced Scientific Computing.


           Job information
           ---------------

    hostname        = LAPTOP-JJQSTSEL
    program         = nwchem
    date            = Wed Apr 30 12:51:01 2025

    compiled        = Fri_Jun_07_07:50:04_2024
    source          = /home/conda/feedstock_root/build_artifacts/nwchem_1717738148552/work
    nwchem branch   = 7.2.2
    nwchem revision = 64ba0f0
    ga revision     = 5.8.0
    use scalapack   = T
    input           = H2-6.0.nw
    prefix          = pspw_hf_H2.
    data base       = ./pspw_hf_H2.db
    status          = startup
    nproc           =        1
    time left       =     -1s



           Memory information
           ------------------

    heap     =  157286400 doubles =   1200.0 Mbytes
    stack    =  157286397 doubles =   1200.0 Mbytes
    global   =    1310720 doubles =     10.0 Mbytes (distinct from heap & stack)
    total    =  315883517 doubles =   2410.0 Mbytes
    verify   = yes
    hardfail = no 


           Directory information
           ---------------------

  0 permanent = .
  0 scratch   = .




                                NWChem Input Module
                                -------------------


               swnc: e theory=pspw4 xc=hf formula=H2 charge=0 mult=1
               -----------------------------------------------------

 Scaling coordinates for geometry "geometry" by  1.889725989
 (inverse scale =  0.529177249)

 ORDER OF PRIMARY AXIS IS BEING SET TO 4
 D4H symmetry detected

          ------
          auto-z
          ------
     1 autoz failed with cvr_scaling = 1.2 changing to 1.3
     2 autoz failed with cvr_scaling = 1.3 changing to 1.4
     3 autoz failed with cvr_scaling = 1.4 changing to 1.5
     4 autoz failed with cvr_scaling = 1.5 changing to 1.6
     5 autoz failed with cvr_scaling = 1.6 changing to 1.7

 AUTOZ failed to generate good internal coordinates.
 Cartesian coordinates will be used in optimizations.



                             Geometry "geometry" -> ""
                             -------------------------

 Output coordinates in angstroms (scale by  1.889725989 to convert to a.u.)

  No.       Tag          Charge          X              Y              Z
 ---- ---------------- ---------- -------------- -------------- --------------
    1 H                    1.0000     0.00000000     0.00000000    -3.00000000
    2 H                    1.0000     0.00000000     0.00000000     3.00000000

      Atomic Mass 
      ----------- 

      H                  1.007825


 Effective nuclear repulsion energy (a.u.)       0.0881962082

            Nuclear Dipole moment (a.u.) 
            ----------------------------
        X                 Y               Z
 ---------------- ---------------- ----------------
     0.0000000000     0.0000000000     0.0000000000

      Symmetry information
      --------------------

 Group name             D4h       
 Group number             28
 Group order              16
 No. of unique centers     1

      Symmetry unique atoms

     1


            XYZ format geometry
            -------------------
     2
 geometry
 H                     0.00000000     0.00000000    -3.00000000
 H                     0.00000000     0.00000000     3.00000000

          ****************************************************
          *                                                  *
          *               NWPW PSPW Calculation              *
          *                                                  *
          * [ (Grassmann/Stiefel manifold implementation)  ] *
          *                                                  *
          *      [ NorthWest Chemistry implementation ]      *
          *                                                  *
          *            version #5.10   06/12/02              *
          *                                                  *
          *    This code was developed by Eric J. Bylaska,   *
          *    and was based upon algorithms and code        *
          *    developed by the group of Prof. John H. Weare *
          *                                                  *
          ****************************************************
     >>>  JOB STARTED       AT Wed Apr 30 12:51:01 2025  <<<
          ================ input data ========================

 input psi filename:./pspw_hf_H2.movecs

 number of processors used:         1
 processor grid           :   1 x   1
 parallel mapping         :2d-hilbert
 parallel mapping         :  balanced
 number of threads        :         1
 parallel io              :       off

 options:
      boundary conditions  = aperiodic   (version4)
      electron spin        = restricted
      exchange-correlation = Hartree-Fock
      - HFX relaxed
      - HFX restricted orbitals :    1
      - HFX free-space coulomb solver


 elements involved in the cluster:
      1: H   valence charge:  1.0000  lmax=  1
             comment    : Parameterized (Chem.Phys.Lett., vol 322, page 447) Hamman psp
             pseudpotential type            :   0
             highest angular component      :   1
             local potential used           :   1
             number of non-local projections:   1
             aperiodic cutoff radius        :  1.000
             cutoff =   0.800   0.800


 total charge:   0.000

 atomic composition:
     H   :    2

 number of electrons: spin up=     1 (   1 per task)  down=     1 (   1 per task) (Fourier space)
 number of orbitals : spin up=     1 (   1 per task)  down=     1 (   1 per task) (Fourier space)

 supercell:
      cell_name:  cell_default                                      
      lattice:    a1=<  20.000   0.000   0.000 >
                  a2=<   0.000  20.000   0.000 >
                  a3=<   0.000   0.000  20.000 >
      reciprocal: b1=<   0.314   0.000   0.000 >
                  b2=<   0.000   0.314   0.000 >
                  b3=<   0.000   0.000   0.314 >
      lattice:    a=      20.000 b=     20.000 c=      20.000
                  alpha=  90.000 beta=  90.000 gamma=  90.000
                  omega=      8000.0

      density cutoff=100.000  fft= 96x 96x 96(   191162 waves   191162 per task)
      wavefnc cutoff= 50.000  fft= 96x 96x 96(    67522 waves    67522 per task)

 technical parameters:
      time step=      5.80     fictitious mass=  400000.0
      tolerance=0.100E-08 (energy)   0.100E-08 (density)
      maximum iterations =      1000 (   10 inner    100 outer )





== Energy Calculation ==


          ============ Grassmann lmbfgs iteration ============
     >>>  ITERATION STARTED AT Wed Apr 30 12:51:10 2025  <<<
    iter.           Energy         DeltaE       DeltaRho 
    ------------------------------------------------------
      10   -0.7468492912E+00   -0.45793E-02    0.24247E-01
     -  10 steepest descent iterations performed
      20   -0.7627968628E+00   -0.59011E-03    0.14988E-03
      30   -0.7640087063E+00   -0.29759E-04    0.16899E-04
      40   -0.7640983807E+00   -0.17759E-05    0.53717E-06
      50   -0.7641054706E+00   -0.19686E-06    0.35520E-07
      60   -0.7641059561E+00   -0.16639E-07    0.22277E-08
      70   -0.7641059992E+00   -0.98894E-09    0.68239E-10
  *** tolerance ok. iteration terminated
     >>>  ITERATION ENDED   AT Wed Apr 30 12:53:02 2025  <<<


==  Summary Of Results  ==

 number of electrons: spin up=    1.00000  down=    1.00000 (real space)

 total     energy    :  -0.7641059992E+00 (   -0.38205E+00/ion)
 total orbital energy:  -0.5576867948E+00 (   -0.55769E+00/electron)
 hartree   energy    :   0.5892308251E+00 (    0.58923E+00/electron)
 exc-corr  energy    :   0.0000000000E+00 (    0.00000E+00/electron)
 HF exchange energy  :  -0.2946154125E+00 (   -0.29462E+00/electron)
 ion-ion   energy    :   0.8819620817E-01 (    0.44098E-01/ion)

 kinetic (planewave) :   0.6583675963E+00 (    0.65837E+00/electron)
 V_local (planewave) :  -0.1652663485E+01 (   -0.16527E+01/electron)
 V_nl    (planewave) :  -0.1526217316E+00 (   -0.15262E+00/electron)
 V_Coul  (planewave) :   0.1178461650E+01 (    0.11785E+01/electron)
 V_xc.   (planewave) :   0.0000000000E+00 (    0.00000E+00/electron)
 K.S. HFX energy     :  -0.5892308251E+00 (   -0.58923E+00/electron)
 Virial Coefficient  :  -0.9520875109E+00

 orbital energies:
    -0.2788434E+00 (  -7.588eV)


== Virtual Orbital Calculation ==


 input epsi filename:./pspw_hf_H2.emovecs
     orbital   1 current e=-0.184E+00 (error=0.833E-09) iterations  64(  46 preconditioned, Ep,Sp= 20.0  200.0)
     orbital   2 current e= 0.685E-02 (error=0.995E-09) iterations 105(  60 preconditioned, Ep,Sp= 20.0  200.0)
     orbital   3 current e= 0.469E-01 (error=0.945E-09) iterations  72(  23 preconditioned, Ep,Sp= 20.0  200.0)
     orbital   4 current e= 0.469E-01 (error=0.897E-09) iterations  72(  23 preconditioned, Ep,Sp= 20.0  200.0)
     orbital   5 current e= 0.470E-01 (error=0.117E-08) iterations 121(  74 preconditioned, Ep,Sp= 20.0  200.0)
     orbital   5 current e= 0.470E-01 (error=0.526E-09) iterations   2(   1 preconditioned, Ep,Sp= 20.0  200.0)
     orbital   6 current e= 0.491E-01 (error=0.851E-09) iterations  45(   2 preconditioned, Ep,Sp= 20.0  200.0)
     orbital   7 current e= 0.567E-01 (error=0.961E-09) iterations  95(  57 preconditioned, Ep,Sp= 20.0  200.0)
     orbital   8 current e= 0.701E-01 (error=0.268E-08) iterations 121(  58 preconditioned, Ep,Sp= 20.0  200.0)
     orbital   8 current e= 0.701E-01 (error=0.997E-09) iterations   5(   1 preconditioned, Ep,Sp= 20.0  200.0)
     orbital   9 current e= 0.953E-01 (error=0.881E-09) iterations 114(  94 preconditioned, Ep,Sp= 20.0  200.0)
     orbital  10 current e= 0.929E-01 (error=0.863E-09) iterations 113(  72 preconditioned, Ep,Sp= 20.0  200.0)

 virtual orbital energies:
     0.9533269E-01 (   2.594eV)
     0.9285112E-01 (   2.527eV)
     0.7005279E-01 (   1.906eV)
     0.5671511E-01 (   1.543eV)
     0.4914195E-01 (   1.337eV)
     0.4696435E-01 (   1.278eV)
     0.4691693E-01 (   1.277eV)
     0.4691693E-01 (   1.277eV)
     0.6854246E-02 (   0.187eV)
    -0.1844910E+00 (  -5.020eV)


 == Generating One-Electron and Two-Electron Integrals ==

 begin_one_electron_integrals
    1    1        -0.5734588099
    2    1        -0.0000428648
    3    1        -0.0211988991
    4    1        -0.0000000000
    5    1         0.0000004945
    6    1        -0.0009913190
    7    1        -0.0000000000
    8    1         0.0000330836
    9    1        -0.0264877367
   10    1        -0.0035432164
   11    1        -0.0000000009
    2    2        -0.5739565292
    3    2         0.0000648570
    4    2        -0.0000000000
    5    2         0.0000000017
    6    2         0.0001610562
    7    2        -0.0000000000
    8    2         0.0189167564
    9    2         0.0001225825
   10    2         0.0002214259
   11    2         0.0000000028
    3    3        -0.1851846003
    4    3        -0.0000000000
    5    3        -0.0000000268
    6    3         0.0171144812
    7    3         0.0000000000
    8    3         0.0000518499
    9    3        -0.0360906289
   10    3         0.0006836734
   11    3         0.0000000052
    4    4        -0.1730028544
    5    4        -0.0000000000
    6    4         0.0000000000
    7    4         0.0000118595
    8    4        -0.0000000002
    9    4        -0.0000000000
   10    4         0.0000000743
   11    4        -0.0393935565
    5    5        -0.1730049641
    6    5        -0.0000004425
    7    5         0.0000000000
    8    5         0.0000000089
    9    5         0.0000012423
   10    5        -0.0000471819
   11    5         0.0000000007
    6    6        -0.1723630451
    7    6        -0.0000000000
    8    6        -0.0000659716
    9    6         0.0129866777
   10    6        -0.0590349701
   11    6        -0.0000001090
    7    7        -0.1441098498
    8    7        -0.0000000000
    9    7         0.0000000000
   10    7        -0.0000000000
   11    7         0.0000176834
    8    8        -0.1352518242
    9    8         0.0000130029
   10    8        -0.0001278441
   11    8        -0.0000000042
    9    9        -0.1274483508
   10    9         0.0164374768
   11    9         0.0000000373
   10   10        -0.1381466687
   11   10        -0.0000000375
   11   11        -0.1189452769
 end_one_electron_integrals

 begin_two_electron_integrals
    1    1    1    1        0.2946154125
    1    1    2    1        0.0000427639
    1    1    3    1        0.0211835862
    1    1    4    1        0.0000000000
    1    1    5    1       -0.0000004935
    1    1    6    1        0.0009874031
    1    1    7    1        0.0000000000
    1    1    8    1       -0.0000331238
    1    1    9    1        0.0264870687
    1    1   10    1        0.0035432100
    1    1   11    1        0.0000000009
    1    1    2    2        0.3004407783
    1    1    3    2       -0.0000241202
    1    1    4    2        0.0000000000
    1    1    5    2       -0.0000000017
    1    1    6    2       -0.0000435320
    1    1    7    2        0.0000000000
    1    1    8    2       -0.0182101378
    1    1    9    2       -0.0000515920
    1    1   10    2       -0.0000688446
    1    1   11    2       -0.0000000025
    1    1    3    3        0.0973855492
    1    1    4    3        0.0000000000
    1    1    5    3        0.0000003941
    1    1    6    3       -0.0087245092
    1    1    7    3       -0.0000000000
    1    1    8    3       -0.0000277590
    1    1    9    3        0.0198461005
    1    1   10    3       -0.0004164253
    1    1   11    3       -0.0000000031
    1    1    4    4        0.1109635289
    1    1    5    4        0.0000000000
    1    1    6    4       -0.0000000000
    1    1    7    4       -0.0000057804
    1    1    8    4        0.0000000001
    1    1    9    4        0.0000000000
    1    1   10    4       -0.0000000391
    1    1   11    4        0.0207668353
    1    1    5    5        0.1109646228
    1    1    6    5        0.0000002242
    1    1    7    5       -0.0000000000
    1    1    8    5       -0.0000000038
    1    1    9    5       -0.0000005930
    1    1   10    5        0.0000248374
    1    1   11    5       -0.0000000004
    1    1    6    6        0.1108069182
    1    1    7    6        0.0000000000
    1    1    8    6        0.0000334301
    1    1    9    6       -0.0067681719
    1    1   10    6        0.0311256979
    1    1   11    6        0.0000000574
    1    1    7    7        0.0966966161
    1    1    8    7       -0.0000000000
    1    1    9    7       -0.0000000000
    1    1   10    7        0.0000000000
    1    1   11    7       -0.0000088107
    1    1    8    8        0.0969896603
    1    1    9    8       -0.0000113504
    1    1   10    8        0.0000637421
    1    1   11    8        0.0000000023
    1    1    9    9        0.1011644798
    1    1   10    9       -0.0083965235
    1    1   11    9       -0.0000000195
    1    1   10   10        0.1178229500
    1    1   11   10        0.0000000185
    1    1   11   11        0.1083315165
    2    1    2    1        0.2114160426
    2    1    3    1        0.0000159251
    2    1    4    1        0.0000000000
    2    1    5    1       -0.0000000017
    2    1    6    1        0.0000738284
    2    1    7    1        0.0000000000
    2    1    8    1       -0.0175081396
    2    1    9    1        0.0000194933
    2    1   10    1        0.0000840571
    2    1   11    1       -0.0000000023
    2    1    2    2        0.0000609789
    2    1    3    2        0.0229297187
    2    1    4    2        0.0000000000
    2    1    5    2       -0.0000005708
    2    1    6    2       -0.0032661987
    2    1    7    2        0.0000000000
    2    1    8    2       -0.0000488627
    2    1    9    2        0.0297553769
    2    1   10    2       -0.0016417543
    2    1   11    2       -0.0000000094
    2    1    3    3       -0.0002118764
    2    1    4    3        0.0000000000
    2    1    5    3       -0.0000000081
    2    1    6    3       -0.0003201590
    2    1    7    3        0.0000000000
    2    1    8    3       -0.0216736876
    2    1    9    3       -0.0001540199
    2    1   10    3       -0.0000262132
    2    1   11    3       -0.0000000013
    2    1    4    4       -0.0002860022
    2    1    5    4       -0.0000000000
    2    1    6    4        0.0000000000
    2    1    7    4        0.0000000150
    2    1    8    4        0.0000000000
    2    1    9    4        0.0000000000
    2    1   10    4        0.0000000001
    2    1   11    4       -0.0000586646
    2    1    5    5       -0.0002861432
    2    1    6    5       -0.0000000004
    2    1    7    5        0.0000000000
    2    1    8    5        0.0000000697
    2    1    9    5       -0.0000000024
    2    1   10    5       -0.0000001421
    2    1   11    5        0.0000000000
    2    1    6    6       -0.0006161104
    2    1    7    6        0.0000000000
    2    1    8    6       -0.0025473076
    2    1    9    6       -0.0002673153
    2    1   10    6       -0.0002575206
    2    1   11    6        0.0000000001
    2    1    7    7       -0.0002379873
    2    1    8    7       -0.0000000000
    2    1    9    7        0.0000000000
    2    1   10    7       -0.0000000000
    2    1   11    7        0.0000000037
    2    1    8    8       -0.0000011147
    2    1    9    8       -0.0118758237
    2    1   10    8        0.0005231568
    2    1   11    8        0.0000000022
    2    1    9    9       -0.0002744635
    2    1   10    9       -0.0003215166
    2    1   11    9       -0.0000000031
    2    1   10   10       -0.0006980314
    2    1   11   10       -0.0000000008
    2    1   11   11       -0.0002071562
    3    1    3    1        0.0027322526
    3    1    4    1       -0.0000000000
    3    1    5    1        0.0000007612
    3    1    6    1       -0.0003359475
    3    1    7    1        0.0000000000
    3    1    8    1       -0.0000037031
    3    1    9    1        0.0036004605
    3    1   10    1       -0.0001454801
    3    1   11    1       -0.0000000010
    3    1    2    2        0.0219703655
    3    1    3    2       -0.0000034392
    3    1    4    2        0.0000000000
    3    1    5    2       -0.0000000037
    3    1    6    2       -0.0000085907
    3    1    7    2        0.0000000000
    3    1    8    2       -0.0023898162
    3    1    9    2       -0.0000076169
    3    1   10    2       -0.0000139989
    3    1   11    2       -0.0000000004
    3    1    3    3        0.0003226003
    3    1    4    3        0.0000000000
    3    1    5    3       -0.0000045285
    3    1    6    3        0.0000874911
    3    1    7    3       -0.0000000000
    3    1    8    3       -0.0000133456
    3    1    9    3        0.0008100778
    3    1   10    3       -0.0000563431
    3    1   11    3       -0.0000000003
    3    1    4    4        0.0005353579
    3    1    5    4        0.0000000000
    3    1    6    4       -0.0000000000
    3    1    7    4       -0.0000023335
    3    1    8    4        0.0000000000
    3    1    9    4        0.0000000000
    3    1   10    4       -0.0000000016
    3    1   11    4        0.0008772704
    3    1    5    5        0.0005353746
    3    1    6    5        0.0000003550
    3    1    7    5       -0.0000000000
    3    1    8    5       -0.0000000131
    3    1    9    5       -0.0000006694
    3    1   10    5        0.0000005938
    3    1   11    5       -0.0000000000
    3    1    6    6        0.0006064835
    3    1    7    6        0.0000000000
    3    1    8    6       -0.0000042250
    3    1    9    6       -0.0000247226
    3    1   10    6        0.0011531126
    3    1   11    6        0.0000000021
    3    1    7    7       -0.0001000393
    3    1    8    7       -0.0000000000
    3    1    9    7        0.0000000000
    3    1   10    7        0.0000000000
    3    1   11    7       -0.0000034797
    3    1    8    8        0.0002440857
    3    1    9    8       -0.0000031119
    3    1   10    8        0.0000028339
    3    1   11    8        0.0000000001
    3    1    9    9        0.0009059693
    3    1   10    9        0.0000276086
    3    1   11    9       -0.0000000002
    3    1   10   10        0.0014775521
    3    1   11   10        0.0000000013
    3    1   11   11        0.0007654967
    4    1    4    1        0.0020072707
    4    1    5    1        0.0000000000
    4    1    6    1       -0.0000000000
    4    1    7    1        0.0000002777
    4    1    8    1        0.0000000000
    4    1    9    1       -0.0000000000
    4    1   10    1       -0.0000000039
    4    1   11    1        0.0021445765
    4    1    2    2        0.0000000000
    4    1    3    2        0.0000000000
    4    1    4    2       -0.0000025645
    4    1    5    2       -0.0000000000
    4    1    6    2        0.0000000000
    4    1    7    2       -0.0000000046
    4    1    8    2        0.0000000000
    4    1    9    2        0.0000000000
    4    1   10    2       -0.0000000000
    4    1   11    2        0.0000048396
    4    1    3    3        0.0000000002
    4    1    4    3       -0.0035735357
    4    1    5    3       -0.0000000000
    4    1    6    3        0.0000000000
    4    1    7    3       -0.0000607509
    4    1    8    3       -0.0000000000
    4    1    9    3       -0.0000000001
    4    1   10    3        0.0000000011
    4    1   11    3       -0.0005404341
    4    1    4    4       -0.0000000001
    4    1    5    4        0.0000200064
    4    1    6    4        0.0003537948
    4    1    7    4        0.0000000087
    4    1    8    4       -0.0000039770
    4    1    9    4       -0.0016976907
    4    1   10    4       -0.0001292426
    4    1   11    4        0.0000000001
    4    1    5    5        0.0000000002
    4    1    6    5        0.0000000000
    4    1    7    5       -0.0014704798
    4    1    8    5       -0.0000000000
    4    1    9    5       -0.0000000000
    4    1   10    5        0.0000000001
    4    1   11    5       -0.0000319649
    4    1    6    6        0.0000000001
    4    1    7    6        0.0000007103
    4    1    8    6        0.0000000000
    4    1    9    6        0.0000000000
    4    1   10    6        0.0000000002
    4    1   11    6       -0.0004070212
    4    1    7    7        0.0000000002
    4    1    8    7       -0.0000001260
    4    1    9    7       -0.0000110837
    4    1   10    7       -0.0000206849
    4    1   11    7        0.0000000152
    4    1    8    8        0.0000000002
    4    1    9    8       -0.0000000000
    4    1   10    8       -0.0000000000
    4    1   11    8        0.0000140465
    4    1    9    9        0.0000000002
    4    1   10    9        0.0000000050
    4    1   11    9       -0.0026949368
    4    1   10   10        0.0000000009
    4    1   11   10       -0.0002475442
    4    1   11   11       -0.0000000006
    5    1    5    1        0.0020073487
    5    1    6    1        0.0000000484
    5    1    7    1        0.0000000000
    5    1    8    1        0.0000000020
    5    1    9    1        0.0000000100
    5    1   10    1        0.0000025031
    5    1   11    1       -0.0000000000
    5    1    2    2       -0.0000005076
    5    1    3    2       -0.0000000043
    5    1    4    2        0.0000000000
    5    1    5    2       -0.0000025745
    5    1    6    2       -0.0000000020
    5    1    7    2       -0.0000000000
    5    1    8    2       -0.0000005611
    5    1    9    2       -0.0000000022
    5    1   10    2       -0.0000000085
    5    1   11    2        0.0000000000
    5    1    3    3       -0.0000643975
    5    1    4    3       -0.0000000000
    5    1    5    3       -0.0035736064
    5    1    6    3       -0.0000017919
    5    1    7    3       -0.0000000002
    5    1    8    3       -0.0000001902
    5    1    9    3        0.0000297838
    5    1   10    3       -0.0000077153
    5    1   11    3       -0.0000000000
    5    1    4    4       -0.0000209146
    5    1    5    4        0.0000000001
    5    1    6    4        0.0000000000
    5    1    7    4       -0.0014704633
    5    1    8    4        0.0000000000
    5    1    9    4       -0.0000000000
    5    1   10    4       -0.0000000001
    5    1   11    4        0.0000304198
    5    1    5    5       -0.0000215634
    5    1    6    5        0.0003539056
    5    1    7    5       -0.0000000087
    5    1    8    5       -0.0000039913
    5    1    9    5       -0.0016977563
    5    1   10    5       -0.0001291394
    5    1   11    5       -0.0000000001
    5    1    6    6       -0.0000392484
    5    1    7    6        0.0000000000
    5    1    8    6       -0.0000000173
    5    1    9    6       -0.0000049397
    5    1   10    6        0.0000385048
    5    1   11    6        0.0000000001
    5    1    7    7       -0.0000845140
    5    1    8    7       -0.0000000000
    5    1    9    7       -0.0000000000
    5    1   10    7        0.0000000047
    5    1   11    7       -0.0025813497
    5    1    8    8       -0.0000675797
    5    1    9    8        0.0000000498
    5    1   10    8        0.0000000812
    5    1   11    8        0.0000000000
    5    1    9    9       -0.0000785927
    5    1   10    9       -0.0000058818
    5    1   11    9        0.0000000000
    5    1   10   10       -0.0000546740
    5    1   11   10       -0.0000000000
    5    1   11   11       -0.0000498582
    6    1    6    1        0.0022864429
    6    1    7    1        0.0000000000
    6    1    8    1        0.0000045417
    6    1    9    1       -0.0005502190
    6    1   10    1        0.0032137344
    6    1   11    1        0.0000000059
    6    1    2    2        0.0009197404
    6    1    3    2        0.0000000098
    6    1    4    2        0.0000000000
    6    1    5    2       -0.0000000038
    6    1    6    2       -0.0000182636
    6    1    7    2       -0.0000000000
    6    1    8    2        0.0002987173
    6    1    9    2       -0.0000017012
    6    1   10    2       -0.0000248432
    6    1   11    2        0.0000000000
    6    1    3    3        0.0017323684
    6    1    4    3        0.0000000000
    6    1    5    3       -0.0000001161
    6    1    6    3       -0.0023051293
    6    1    7    3       -0.0000000000
    6    1    8    3       -0.0000439231
    6    1    9    3        0.0004599492
    6    1   10    3       -0.0006145111
    6    1   11    3       -0.0000000012
    6    1    4    4        0.0019187699
    6    1    5    4        0.0000000000
    6    1    6    4        0.0000000000
    6    1    7    4       -0.0000001455
    6    1    8    4        0.0000000000
    6    1    9    4       -0.0000000000
    6    1   10    4       -0.0000000002
    6    1   11    4       -0.0001036423
    6    1    5    5        0.0019189022
    6    1    6    5       -0.0000005934
    6    1    7    5       -0.0000000000
    6    1    8    5       -0.0000000185
    6    1    9    5       -0.0000001046
    6    1   10    5        0.0000010411
    6    1   11    5        0.0000000000
    6    1    6    6        0.0027137428
    6    1    7    6        0.0000000000
    6    1    8    6       -0.0000122468
    6    1    9    6       -0.0021953789
    6    1   10    6        0.0015470574
    6    1   11    6        0.0000000033
    6    1    7    7        0.0016262512
    6    1    8    7        0.0000000000
    6    1    9    7       -0.0000000000
    6    1   10    7        0.0000000000
    6    1   11    7       -0.0000001301
    6    1    8    8        0.0015679102
    6    1    9    8       -0.0000143648
    6    1   10    8        0.0000054922
    6    1   11    8        0.0000000001
    6    1    9    9        0.0018872872
    6    1   10    9       -0.0024673317
    6    1   11    9       -0.0000000046
    6    1   10   10        0.0029236055
    6    1   11   10        0.0000000036
    6    1   11   11        0.0012115545
    7    1    7    1        0.0001414283
    7    1    8    1       -0.0000000000
    7    1    9    1        0.0000000000
    7    1   10    1       -0.0000000000
    7    1   11    1        0.0000000615
    7    1    2    2        0.0000000000
    7    1    3    2        0.0000000000
    7    1    4    2       -0.0000000040
    7    1    5    2       -0.0000000000
    7    1    6    2       -0.0000000000
    7    1    7    2       -0.0000003417
    7    1    8    2       -0.0000000000
    7    1    9    2        0.0000000000
    7    1   10    2        0.0000000000
    7    1   11    2       -0.0000000036
    7    1    3    3        0.0000000000
    7    1    4    3       -0.0000046138
    7    1    5    3       -0.0000000000
    7    1    6    3       -0.0000000000
    7    1    7    3       -0.0008159309
    7    1    8    3       -0.0000000000
    7    1    9    3        0.0000000000
    7    1   10    3        0.0000000000
    7    1   11    3       -0.0000000179
    7    1    4    4        0.0000000016
    7    1    5    4       -0.0002653445
    7    1    6    4        0.0000003458
    7    1    7    4        0.0000000000
    7    1    8    4       -0.0000000156
    7    1    9    4       -0.0000006529
    7    1   10    4       -0.0000012093
    7    1   11    4        0.0000000042
    7    1    5    5       -0.0000000016
    7    1    6    5        0.0000000000
    7    1    7    5       -0.0000021901
    7    1    8    5       -0.0000000000
    7    1    9    5       -0.0000000000
    7    1   10    5        0.0000000013
    7    1   11    5       -0.0007113647
    7    1    6    6        0.0000000000
    7    1    7    6        0.0000600764
    7    1    8    6        0.0000000000
    7    1    9    6       -0.0000000000
    7    1   10    6        0.0000000000
    7    1   11    6       -0.0000003684
    7    1    7    7        0.0000000000
    7    1    8    7       -0.0000011715
    7    1    9    7       -0.0005806287
    7    1   10    7       -0.0002009498
    7    1   11    7       -0.0000000004
    7    1    8    8        0.0000000000
    7    1    9    8       -0.0000000000
    7    1   10    8       -0.0000000000
    7    1   11    8        0.0000000139
    7    1    9    9        0.0000000000
    7    1   10    9        0.0000000000
    7    1   11    9       -0.0000030467
    7    1   10   10        0.0000000000
    7    1   11   10       -0.0000004382
    7    1   11   11        0.0000000017
    8    1    8    1        0.0020123891
    8    1    9    1       -0.0000034867
    8    1   10    1        0.0000073592
    8    1   11    1        0.0000000003
    8    1    2    2       -0.0000337715
    8    1    3    2       -0.0023845488
    8    1    4    2        0.0000000000
    8    1    5    2       -0.0000002440
    8    1    6    2        0.0003005418
    8    1    7    2       -0.0000000000
    8    1    8    2        0.0000084036
    8    1    9    2       -0.0031790408
    8    1   10    2        0.0001517139
    8    1   11    2        0.0000000010
    8    1    3    3        0.0000036538
    8    1    4    3       -0.0000000000
    8    1    5    3       -0.0000000161
    8    1    6    3       -0.0000012665
    8    1    7    3       -0.0000000000
    8    1    8    3       -0.0000082830
    8    1    9    3        0.0000024218
    8    1   10    3        0.0000036264
    8    1   11    3        0.0000000001
    8    1    4    4        0.0000059063
    8    1    5    4        0.0000000000
    8    1    6    4        0.0000000000
    8    1    7    4       -0.0000000080
    8    1    8    4        0.0000000000
    8    1    9    4       -0.0000000000
    8    1   10    4       -0.0000000000
    8    1   11    4        0.0000028386
    8    1    5    5        0.0000059068
    8    1    6    5       -0.0000000230
    8    1    7    5       -0.0000000000
    8    1    8    5       -0.0000018118
    8    1    9    5       -0.0000000093
    8    1   10    5        0.0000000070
    8    1   11    5       -0.0000000000
    8    1    6    6        0.0000116531
    8    1    7    6        0.0000000000
    8    1    8    6       -0.0000359462
    8    1    9    6        0.0000017928
    8    1   10    6        0.0000144426
    8    1   11    6        0.0000000000
    8    1    7    7        0.0000036781
    8    1    8    7        0.0000000000
    8    1    9    7       -0.0000000000
    8    1   10    7       -0.0000000000
    8    1   11    7       -0.0000000116
    8    1    8    8        0.0000007288
    8    1    9    8        0.0004448947
    8    1   10    8       -0.0000409874
    8    1   11    8       -0.0000000002
    8    1    9    9        0.0000065874
    8    1   10    9        0.0000026268
    8    1   11    9        0.0000000000
    8    1   10   10        0.0000192266
    8    1   11   10        0.0000000000
    8    1   11   11        0.0000026882
    9    1    9    1        0.0048278200
    9    1   10    1       -0.0003496893
    9    1   11    1       -0.0000000017
    9    1    2    2        0.0275647039
    9    1    3    2       -0.0000060252
    9    1    4    2        0.0000000000
    9    1    5    2       -0.0000000024
    9    1    6    2       -0.0000133238
    9    1    7    2        0.0000000000
    9    1    8    2       -0.0031484085
    9    1    9    2       -0.0000123944
    9    1   10    2       -0.0000217722
    9    1   11    2       -0.0000000005
    9    1    3    3        0.0003567308
    9    1    4    3        0.0000000000
    9    1    5    3       -0.0000001853
    9    1    6    3        0.0002092407
    9    1    7    3        0.0000000000
    9    1    8    3       -0.0000218944
    9    1    9    3        0.0007404009
    9    1   10    3        0.0000532840
    9    1   11    3       -0.0000000001
    9    1    4    4        0.0003356704
    9    1    5    4       -0.0000000000
    9    1    6    4        0.0000000000
    9    1    7    4       -0.0000007506
    9    1    8    4        0.0000000000
    9    1    9    4        0.0000000000
    9    1   10    4       -0.0000000012
    9    1   11    4        0.0006823860
    9    1    5    5        0.0003356885
    9    1    6    5       -0.0000000986
    9    1    7    5       -0.0000000000
    9    1    8    5       -0.0000000080
    9    1    9    5       -0.0000005675
    9    1   10    5        0.0000005645
    9    1   11    5       -0.0000000000
    9    1    6    6        0.0002001574
    9    1    7    6        0.0000000000
    9    1    8    6       -0.0000080078
    9    1    9    6        0.0001724435
    9    1   10    6        0.0006926612
    9    1   11    6        0.0000000012
    9    1    7    7       -0.0002518793
    9    1    8    7       -0.0000000000
    9    1    9    7        0.0000000000
    9    1   10    7        0.0000000000
    9    1   11    7       -0.0000006972
    9    1    8    8        0.0003065832
    9    1    9    8       -0.0000051342
    9    1   10    8        0.0000018835
    9    1   11    8        0.0000000001
    9    1    9    9        0.0009682833
    9    1   10    9        0.0002408984
    9    1   11    9        0.0000000002
    9    1   10   10        0.0010104456
    9    1   11   10        0.0000000006
    9    1   11   11        0.0006498380
   10    1   10    1        0.0046481121
   10    1   11    1        0.0000000041
   10    1    2    2        0.0035411089
   10    1    3    2       -0.0000022291
   10    1    4    2       -0.0000000000
   10    1    5    2       -0.0000000066
   10    1    6    2       -0.0000253450
   10    1    7    2        0.0000000000
   10    1    8    2        0.0001422542
   10    1    9    2       -0.0000059639
   10    1   10    2       -0.0000355796
   10    1   11    2        0.0000000000
   10    1    3    3        0.0020908718
   10    1    4    3        0.0000000056
   10    1    5    3       -0.0000043794
   10    1    6    3       -0.0026366664
   10    1    7    3        0.0000000001
   10    1    8    3       -0.0000518484
   10    1    9    3        0.0007121005
   10    1   10    3       -0.0009500075
   10    1   11    3       -0.0000000002
   10    1    4    4        0.0023695516
   10    1    5    4       -0.0000000000
   10    1    6    4       -0.0000000003
   10    1    7    4       -0.0000025569
   10    1    8    4       -0.0000000000
   10    1    9    4        0.0000000032
   10    1   10    4       -0.0000000001
   10    1   11    4        0.0000141531
   10    1    5    5        0.0023697200
   10    1    6    5        0.0000010768
   10    1    7    5        0.0000000030
   10    1    8    5        0.0000000020
   10    1    9    5       -0.0000021248
   10    1   10    5        0.0000009090
   10    1   11    5        0.0000000001
   10    1    6    6        0.0034584103
   10    1    7    6        0.0000000000
   10    1    8    6       -0.0000127027
   10    1    9    6       -0.0028217382
   10    1   10    6        0.0022069219
   10    1   11    6        0.0000000055
   10    1    7    7        0.0018739175
   10    1    8    7        0.0000000000
   10    1    9    7        0.0000000000
   10    1   10    7        0.0000000000
   10    1   11    7       -0.0000032757
   10    1    8    8        0.0018939541
   10    1    9    8       -0.0000185739
   10    1   10    8        0.0000065559
   10    1   11    8        0.0000000001
   10    1    9    9        0.0024099931
   10    1   10    9       -0.0031422653
   10    1   11    9       -0.0000000013
   10    1   10   10        0.0039559834
   10    1   11   10        0.0000000060
   10    1   11   11        0.0014449184
   11    1   11    1        0.0023850624
   11    1    2    2        0.0000000006
   11    1    3    2       -0.0000000003
   11    1    4    2        0.0000033174
   11    1    5    2        0.0000000000
   11    1    6    2        0.0000000000
   11    1    7    2       -0.0000000057
   11    1    8    2        0.0000000009
   11    1    9    2       -0.0000000005
   11    1   10    2       -0.0000000000
   11    1   11    2        0.0000119706
   11    1    3    3        0.0000000038
   11    1    4    3       -0.0030444539
   11    1    5    3        0.0000000001
   11    1    6    3       -0.0000000048
   11    1    7    3       -0.0000538332
   11    1    8    3       -0.0000000001
   11    1    9    3        0.0000000011
   11    1   10    3       -0.0000000001
   11    1   11    3       -0.0008597773
   11    1    4    4        0.0000000042
   11    1    5    4        0.0000171770
   11    1    6    4        0.0000967976
   11    1    7    4        0.0000000095
   11    1    8    4        0.0000029696
   11    1    9    4       -0.0017358127
   11    1   10    4       -0.0002326800
   11    1   11    4       -0.0000000001
   11    1    5    5        0.0000000044
   11    1    6    5       -0.0000000000
   11    1    7    5       -0.0016115736
   11    1    8    5        0.0000000000
   11    1    9    5        0.0000000000
   11    1   10    5        0.0000000001
   11    1   11    5       -0.0000276209
   11    1    6    6        0.0000000064
   11    1    7    6       -0.0000005262
   11    1    8    6       -0.0000000000
   11    1    9    6       -0.0000000051
   11    1   10    6        0.0000000044
   11    1   11    6       -0.0004890542
   11    1    7    7        0.0000000036
   11    1    8    7       -0.0000000546
   11    1    9    7       -0.0000111600
   11    1   10    7       -0.0000179548
   11    1   11    7        0.0000000139
   11    1    8    8        0.0000000035
   11    1    9    8        0.0000000000
   11    1   10    8       -0.0000000000
   11    1   11    8        0.0000136645
   11    1    9    9        0.0000000043
   11    1   10    9       -0.0000000011
   11    1   11    9       -0.0025096857
   11    1   10   10        0.0000000088
   11    1   11   10       -0.0004839238
   11    1   11   11        0.0000000010
    2    2    2    2        0.3065451259
    2    2    3    2       -0.0000253198
    2    2    4    2        0.0000000000
    2    2    5    2       -0.0000000018
    2    2    6    2       -0.0000486894
    2    2    7    2        0.0000000000
    2    2    8    2       -0.0188795555
    2    2    9    2       -0.0000545441
    2    2   10    2       -0.0000765587
    2    2   11    2       -0.0000000027
    2    2    3    3        0.0975967067
    2    2    4    3        0.0000000000
    2    2    5    3        0.0000003658
    2    2    6    3       -0.0087340780
    2    2    7    3       -0.0000000000
    2    2    8    3       -0.0000398855
    2    2    9    3        0.0200322946
    2    2   10    3       -0.0003922721
    2    2   11    3       -0.0000000031
    2    2    4    4        0.1111752637
    2    2    5    4        0.0000000000
    2    2    6    4       -0.0000000000
    2    2    7    4       -0.0000058352
    2    2    8    4        0.0000000001
    2    2    9    4        0.0000000000
    2    2   10    4       -0.0000000394
    2    2   11    4        0.0209076893
    2    2    5    5        0.1111763626
    2    2    6    5        0.0000002254
    2    2    7    5       -0.0000000000
    2    2    8    5       -0.0000000039
    2    2    9    5       -0.0000006034
    2    2   10    5        0.0000249838
    2    2   11    5       -0.0000000004
    2    2    6    6        0.1108468317
    2    2    7    6        0.0000000000
    2    2    8    6        0.0000286097
    2    2    9    6       -0.0067626144
    2    2   10    6        0.0311108627
    2    2   11    6        0.0000000574
    2    2    7    7        0.0968065253
    2    2    8    7       -0.0000000000
    2    2    9    7       -0.0000000000
    2    2   10    7        0.0000000000
    2    2   11    7       -0.0000088889
    2    2    8    8        0.0972249902
    2    2    9    8       -0.0000143243
    2    2   10    8        0.0000639747
    2    2   11    8        0.0000000024
    2    2    9    9        0.1014651163
    2    2   10    9       -0.0083746017
    2    2   11    9       -0.0000000195
    2    2   10   10        0.1178627003
    2    2   11   10        0.0000000182
    2    2   11   11        0.1085732682
    3    2    3    2        0.0029123062
    3    2    4    2       -0.0000000000
    3    2    5    2        0.0000001805
    3    2    6    2       -0.0003571726
    3    2    7    2        0.0000000000
    3    2    8    2       -0.0000030404
    3    2    9    2        0.0038616513
    3    2   10    2       -0.0001569280
    3    2   11    2       -0.0000000011
    3    2    3    3       -0.0000116251
    3    2    4    3       -0.0000000000
    3    2    5    3        0.0000000258
    3    2    6    3       -0.0000100113
    3    2    7    3        0.0000000000
    3    2    8    3       -0.0008297976
    3    2    9    3       -0.0000091446
    3    2   10    3       -0.0000039760
    3    2   11    3       -0.0000000001
    3    2    4    4       -0.0000164252
    3    2    5    4        0.0000000000
    3    2    6    4       -0.0000000000
    3    2    7    4        0.0000000137
    3    2    8    4       -0.0000000000
    3    2    9    4        0.0000000000
    3    2   10    4        0.0000000000
    3    2   11    4       -0.0000058267
    3    2    5    5       -0.0000164311
    3    2    6    5        0.0000000183
    3    2    7    5        0.0000000000
    3    2    8    5        0.0000013335
    3    2    9    5        0.0000000096
    3    2   10    5       -0.0000000122
    3    2   11    5        0.0000000000
    3    2    6    6       -0.0000313998
    3    2    7    6        0.0000000000
    3    2    8    6       -0.0000530513
    3    2    9    6       -0.0000107423
    3    2   10    6       -0.0000217349
    3    2   11    6       -0.0000000000
    3    2    7    7       -0.0000115045
    3    2    8    7       -0.0000000000
    3    2    9    7        0.0000000000
    3    2   10    7       -0.0000000000
    3    2   11    7        0.0000000197
    3    2    8    8       -0.0000021949
    3    2    9    8       -0.0008265171
    3    2   10    8        0.0000486363
    3    2   11    8        0.0000000002
    3    2    9    9       -0.0000173331
    3    2   10    9       -0.0000136136
    3    2   11    9       -0.0000000002
    3    2   10   10       -0.0000417254
    3    2   11   10       -0.0000000000
    3    2   11   11       -0.0000112055
    4    2    4    2        0.0014956664
    4    2    5    2        0.0000000000
    4    2    6    2       -0.0000000000
    4    2    7    2       -0.0000002753
    4    2    8    2        0.0000000000
    4    2    9    2        0.0000000000
    4    2   10    2       -0.0000000031
    4    2   11    2        0.0016887448
    4    2    3    3       -0.0000000000
    4    2    4    3        0.0000144940
    4    2    5    3       -0.0000000000
    4    2    6    3       -0.0000000000
    4    2    7    3        0.0000002583
    4    2    8    3       -0.0000000001
    4    2    9    3        0.0000000000
    4    2   10    3        0.0000000000
    4    2   11    3        0.0000005894
    4    2    4    4        0.0000000000
    4    2    5    4       -0.0000000864
    4    2    6    4        0.0000226977
    4    2    7    4       -0.0000000000
    4    2    8    4        0.0018547582
    4    2    9    4        0.0000130928
    4    2   10    4        0.0000078731
    4    2   11    4        0.0000000001
    4    2    5    5       -0.0000000000
    4    2    6    5        0.0000000000
    4    2    7    5        0.0000058069
    4    2    8    5        0.0000000000
    4    2    9    5       -0.0000000000
    4    2   10    5       -0.0000000000
    4    2   11    5        0.0000001320
    4    2    6    6       -0.0000000000
    4    2    7    6        0.0000002716
    4    2    8    6       -0.0000000000
    4    2    9    6       -0.0000000000
    4    2   10    6       -0.0000000000
    4    2   11    6        0.0000151948
    4    2    7    7       -0.0000000000
    4    2    8    7        0.0000209823
    4    2    9    7        0.0000001604
    4    2   10    7       -0.0000000907
    4    2   11    7       -0.0000000001
    4    2    8    8        0.0000000000
    4    2    9    8        0.0000000000
    4    2   10    8       -0.0000000011
    4    2   11    8        0.0006138339
    4    2    9    9       -0.0000000000
    4    2   10    9       -0.0000000000
    4    2   11    9        0.0000112327
    4    2   10   10       -0.0000000001
    4    2   11   10        0.0000196326
    4    2   11   11        0.0000000004
    5    2    5    2        0.0014957238
    5    2    6    2        0.0000000646
    5    2    7    2       -0.0000000000
    5    2    8    2        0.0000000016
    5    2    9    2       -0.0000000461
    5    2   10    2        0.0000018128
    5    2   11    2       -0.0000000000
    5    2    3    3        0.0000002658
    5    2    4    3        0.0000000000
    5    2    5    3        0.0000145066
    5    2    6    3        0.0000002757
    5    2    7    3        0.0000000000
    5    2    8    3        0.0000208054
    5    2    9    3       -0.0000000024
    5    2   10    3       -0.0000002406
    5    2   11    3       -0.0000000000
    5    2    4    4        0.0000000883
    5    2    5    4       -0.0000000000
    5    2    6    4       -0.0000000000
    5    2    7    4        0.0000058085
    5    2    8    4        0.0000000000
    5    2    9    4        0.0000000000
    5    2   10    4        0.0000000000
    5    2   11    4       -0.0000001239
    5    2    5    5        0.0000000966
    5    2    6    5        0.0000226965
    5    2    7    5        0.0000000000
    5    2    8    5        0.0018547886
    5    2    9    5        0.0000130996
    5    2   10    5        0.0000078734
    5    2   11    5        0.0000000001
    5    2    6    6        0.0000003890
    5    2    7    6        0.0000000000
    5    2    8    6        0.0000053570
    5    2    9    6        0.0000000048
    5    2   10    6       -0.0000003249
    5    2   11    6       -0.0000000000
    5    2    7    7        0.0000003689
    5    2    8    7        0.0000000001
    5    2    9    7        0.0000000000
    5    2   10    7       -0.0000000000
    5    2   11    7        0.0000094264
    5    2    8    8        0.0000001145
    5    2    9    8       -0.0000059864
    5    2   10    8       -0.0000011370
    5    2   11    8       -0.0000000000
    5    2    9    9        0.0000002352
    5    2   10    9        0.0000002362
    5    2   11    9        0.0000000000
    5    2   10   10        0.0000005423
    5    2   11   10        0.0000000000
    5    2   11   11        0.0000002005
    6    2    6    2        0.0012638876
    6    2    7    2        0.0000000000
    6    2    8    2        0.0000066931
    6    2    9    2       -0.0004985153
    6    2   10    2        0.0018516653
    6    2   11    2        0.0000000034
    6    2    3    3        0.0000111349
    6    2    4    3       -0.0000000000
    6    2    5    3        0.0000000129
    6    2    6    3        0.0000340373
    6    2    7    3       -0.0000000000
    6    2    8    3        0.0007853006
    6    2    9    3        0.0000099382
    6    2   10    3        0.0000041568
    6    2   11    3        0.0000000000
    6    2    4    4        0.0000192355
    6    2    5    4        0.0000000000
    6    2    6    4       -0.0000000000
    6    2    7    4        0.0000000041
    6    2    8    4       -0.0000000000
    6    2    9    4       -0.0000000000
    6    2   10    4       -0.0000000000
    6    2   11    4        0.0000129318
    6    2    5    5        0.0000192387
    6    2    6    5        0.0000000102
    6    2    7    5       -0.0000000000
    6    2    8    5        0.0000003071
    6    2    9    5        0.0000000044
    6    2   10    5        0.0000000041
    6    2   11    5       -0.0000000000
    6    2    6    6        0.0000438547
    6    2    7    6       -0.0000000000
    6    2    8    6        0.0005737113
    6    2    9    6        0.0000305511
    6    2   10    6        0.0000212424
    6    2   11    6        0.0000000001
    6    2    7    7        0.0000145616
    6    2    8    7        0.0000000000
    6    2    9    7       -0.0000000000
    6    2   10    7       -0.0000000000
    6    2   11    7        0.0000000049
    6    2    8    8       -0.0000051417
    6    2    9    8        0.0002177939
    6    2   10    8        0.0001008186
    6    2   11    8        0.0000000002
    6    2    9    9        0.0000146311
    6    2   10    9        0.0000338745
    6    2   11    9        0.0000000001
    6    2   10   10        0.0000529039
    6    2   11   10        0.0000000001
    6    2   11   11        0.0000223212
    7    2    7    2        0.0000985394
    7    2    8    2       -0.0000000000
    7    2    9    2        0.0000000000
    7    2   10    2        0.0000000000
    7    2   11    2       -0.0000003973
    7    2    3    3        0.0000000000
    7    2    4    3        0.0000000279
    7    2    5    3        0.0000000000
    7    2    6    3       -0.0000000000
    7    2    7    3        0.0000034918
    7    2    8    3        0.0000000000
    7    2    9    3        0.0000000000
    7    2   10    3       -0.0000000000
    7    2   11    3        0.0000000021
    7    2    4    4       -0.0000000000
    7    2    5    4        0.0000007211
    7    2    6    4        0.0000000160
    7    2    7    4        0.0000000000
    7    2    8    4        0.0000011272
    7    2    9    4        0.0000000107
    7    2   10    4        0.0000000002
    7    2   11    4       -0.0000000000
    7    2    5    5        0.0000000000
    7    2    6    5        0.0000000000
    7    2    7    5        0.0000000141
    7    2    8    5        0.0000000000
    7    2    9    5        0.0000000000
    7    2   10    5       -0.0000000000
    7    2   11    5        0.0000022034
    7    2    6    6        0.0000000000
    7    2    7    6        0.0000043070
    7    2    8    6        0.0000000000
    7    2    9    6       -0.0000000000
    7    2   10    6        0.0000000000
    7    2   11    6        0.0000000073
    7    2    7    7       -0.0000000000
    7    2    8    7        0.0005061640
    7    2    9    7        0.0000040364
    7    2   10    7        0.0000011969
    7    2   11    7        0.0000000000
    7    2    8    8        0.0000000000
    7    2    9    8       -0.0000000000
    7    2   10    8       -0.0000000000
    7    2   11    8        0.0000001589
    7    2    9    9        0.0000000000
    7    2   10    9       -0.0000000000
    7    2   11    9        0.0000000206
    7    2   10   10        0.0000000000
    7    2   11   10        0.0000000082
    7    2   11   11        0.0000000000
    8    2    8    2        0.0021224494
    8    2    9    2       -0.0000016295
    8    2   10    2        0.0000107834
    8    2   11    2        0.0000000003
    8    2    3    3       -0.0002038857
    8    2    4    3       -0.0000000000
    8    2    5    3        0.0000034582
    8    2    6    3       -0.0000260704
    8    2    7    3       -0.0000000000
    8    2    8    3        0.0000058290
    8    2    9    3       -0.0006899124
    8    2   10    3        0.0000888672
    8    2   11    3        0.0000000003
    8    2    4    4       -0.0003230598
    8    2    5    4       -0.0000000000
    8    2    6    4        0.0000000000
    8    2    7    4        0.0000018071
    8    2    8    4        0.0000000000
    8    2    9    4       -0.0000000000
    8    2   10    4        0.0000000012
    8    2   11    4       -0.0006911333
    8    2    5    5       -0.0003230745
    8    2    6    5       -0.0000002459
    8    2    7    5        0.0000000000
    8    2    8    5        0.0000000059
    8    2    9    5        0.0000005115
    8    2   10    5       -0.0000004938
    8    2   11    5        0.0000000000
    8    2    6    6       -0.0006014987
    8    2    7    6       -0.0000000000
    8    2    8    6       -0.0000000002
    8    2    9    6        0.0000780856
    8    2   10    6       -0.0011060812
    8    2   11    6       -0.0000000020
    8    2    7    7        0.0001890399
    8    2    8    7        0.0000000000
    8    2    9    7       -0.0000000000
    8    2   10    7       -0.0000000000
    8    2   11    7        0.0000026748
    8    2    8    8       -0.0000342101
    8    2    9    8        0.0000027708
    8    2   10    8       -0.0000024581
    8    2   11    8       -0.0000000001
    8    2    9    9       -0.0007475535
    8    2   10    9        0.0000513100
    8    2   11    9        0.0000000003
    8    2   10   10       -0.0014003212
    8    2   11   10       -0.0000000016
    8    2   11   11       -0.0005264442
    9    2    9    2        0.0051634347
    9    2   10    2       -0.0002494359
    9    2   11    2       -0.0000000016
    9    2    3    3       -0.0000152218
    9    2    4    3        0.0000000000
    9    2    5    3        0.0000000080
    9    2    6    3       -0.0000119016
    9    2    7    3        0.0000000000
    9    2    8    3       -0.0011850175
    9    2    9    3       -0.0000116052
    9    2   10    3       -0.0000031336
    9    2   11    3       -0.0000000001
    9    2    4    4       -0.0000201057
    9    2    5    4       -0.0000000000
    9    2    6    4       -0.0000000000
    9    2    7    4        0.0000000091
    9    2    8    4       -0.0000000000
    9    2    9    4        0.0000000000
    9    2   10    4        0.0000000000
    9    2   11    4       -0.0000060951
    9    2    5    5       -0.0000201133
    9    2    6    5        0.0000000033
    9    2    7    5        0.0000000000
    9    2    8    5        0.0000001485
    9    2    9    5        0.0000000054
    9    2   10    5       -0.0000000102
    9    2   11    5        0.0000000000
    9    2    6    6       -0.0000383693
    9    2    7    6        0.0000000000
    9    2    8    6       -0.0000867756
    9    2    9    6       -0.0000112840
    9    2   10    6       -0.0000240691
    9    2   11    6       -0.0000000000
    9    2    7    7       -0.0000140448
    9    2    8    7       -0.0000000000
    9    2    9    7        0.0000000000
    9    2   10    7       -0.0000000000
    9    2   11    7        0.0000000094
    9    2    8    8       -0.0000034904
    9    2    9    8       -0.0009888176
    9    2   10    8        0.0000553995
    9    2   11    8        0.0000000003
    9    2    9    9       -0.0000222596
    9    2   10    9       -0.0000153875
    9    2   11    9       -0.0000000002
    9    2   10   10       -0.0000508011
    9    2   11   10       -0.0000000000
    9    2   11   11       -0.0000139801
   10    2   10    2        0.0027982225
   10    2   11    2        0.0000000015
   10    2    3    3        0.0000133259
   10    2    4    3       -0.0000000000
   10    2    5    3        0.0000000187
   10    2    6    3        0.0000392959
   10    2    7    3       -0.0000000000
   10    2    8    3        0.0008536930
   10    2    9    3        0.0000118792
   10    2   10    3        0.0000068342
   10    2   11    3        0.0000000000
   10    2    4    4        0.0000249640
   10    2    5    4        0.0000000000
   10    2    6    4       -0.0000000000
   10    2    7    4        0.0000000076
   10    2    8    4       -0.0000000031
   10    2    9    4       -0.0000000000
   10    2   10    4       -0.0000000000
   10    2   11    4        0.0000179530
   10    2    5    5        0.0000249671
   10    2    6    5        0.0000000170
   10    2    7    5       -0.0000000000
   10    2    8    5        0.0000018615
   10    2    9    5        0.0000000193
   10    2   10    5        0.0000000207
   10    2   11    5       -0.0000000000
   10    2    6    6        0.0000546681
   10    2    7    6       -0.0000000000
   10    2    8    6        0.0006432007
   10    2    9    6        0.0000377396
   10    2   10    6        0.0000304908
   10    2   11    6        0.0000000001
   10    2    7    7        0.0000181174
   10    2    8    7       -0.0000000000
   10    2    9    7       -0.0000000000
   10    2   10    7        0.0000000000
   10    2   11    7        0.0000000060
   10    2    8    8       -0.0000051834
   10    2    9    8        0.0001913851
   10    2   10    8        0.0001563927
   10    2   11    8       -0.0000000012
   10    2    9    9        0.0000178205
   10    2   10    9        0.0000415073
   10    2   11    9        0.0000000001
   10    2   10   10        0.0000684413
   10    2   11   10        0.0000000001
   10    2   11   11        0.0000301846
   11    2   11    2        0.0019585000
   11    2    3    3        0.0000000000
   11    2    4    3        0.0000021234
   11    2    5    3       -0.0000000000
   11    2    6    3        0.0000000000
   11    2    7    3        0.0000000524
   11    2    8    3        0.0000000018
   11    2    9    3       -0.0000000000
   11    2   10    3        0.0000000000
   11    2   11    3        0.0000008544
   11    2    4    4        0.0000000001
   11    2    5    4       -0.0000000143
   11    2    6    4        0.0000247259
   11    2    7    4       -0.0000000000
   11    2    8    4        0.0016883038
   11    2    9    4        0.0000082207
   11    2   10    4        0.0000099716
   11    2   11    4        0.0000000001
   11    2    5    5        0.0000000001
   11    2    6    5       -0.0000000000
   11    2    7    5        0.0000019653
   11    2    8    5       -0.0000000000
   11    2    9    5       -0.0000000000
   11    2   10    5       -0.0000000000
   11    2   11    5        0.0000000210
   11    2    6    6        0.0000000001
   11    2    7    6        0.0000002755
   11    2    8    6        0.0000000012
   11    2    9    6        0.0000000000
   11    2   10    6       -0.0000000000
   11    2   11    6        0.0000165757
   11    2    7    7        0.0000000001
   11    2    8    7        0.0000203396
   11    2    9    7        0.0000001286
   11    2   10    7       -0.0000001575
   11    2   11    7       -0.0000000000
   11    2    8    8        0.0000000000
   11    2    9    8        0.0000000006
   11    2   10    8       -0.0000000012
   11    2   11    8        0.0008154105
   11    2    9    9       -0.0000000000
   11    2   10    9        0.0000000000
   11    2   11    9        0.0000035294
   11    2   10   10       -0.0000000000
   11    2   11   10        0.0000204958
   11    2   11   11        0.0000000004
    3    3    3    3        0.0893932078
    3    3    4    3       -0.0000000012
    3    3    5    3        0.0004097015
    3    3    6    3       -0.0066820626
    3    3    7    3       -0.0000000000
    3    3    8    3        0.0001291515
    3    3    9    3        0.0035203941
    3    3   10    3        0.0018710706
    3    3   11    3        0.0000000035
    3    3    4    4        0.0923264929
    3    3    5    4       -0.0000000000
    3    3    6    4        0.0000000001
    3    3    7    4        0.0001485267
    3    3    8    4        0.0000000000
    3    3    9    4       -0.0000000000
    3    3   10    4       -0.0000000042
    3    3   11    4        0.0017608493
    3    3    5    5        0.0923291675
    3    3    6    5       -0.0000313182
    3    3    7    5        0.0000000004
    3    3    8    5        0.0000011959
    3    3    9    5        0.0000101468
    3    3   10    5        0.0000245366
    3    3   11    5        0.0000000000
    3    3    6    6        0.0905120603
    3    3    7    6        0.0000000000
    3    3    8    6        0.0000609973
    3    3    9    6       -0.0024724313
    3    3   10    6        0.0051046397
    3    3   11    6        0.0000000095
    3    3    7    7        0.0899052834
    3    3    8    7        0.0000000000
    3    3    9    7       -0.0000000000
    3    3   10    7       -0.0000000005
    3    3   11    7        0.0002591267
    3    3    8    8        0.0899964714
    3    3    9    8        0.0000166429
    3    3   10    8       -0.0000028954
    3    3   11    8        0.0000000005
    3    3    9    9        0.0876398363
    3    3   10    9       -0.0050874689
    3    3   11    9       -0.0000000106
    3    3   10   10        0.0881424295
    3    3   11   10       -0.0000000033
    3    3   11   11        0.0903717639
    4    3    4    3        0.0180037330
    4    3    5    3       -0.0000000000
    4    3    6    3       -0.0000000000
    4    3    7    3        0.0003544329
    4    3    8    3       -0.0000000000
    4    3    9    3        0.0000000007
    4    3   10    3        0.0000000055
    4    3   11    3       -0.0032676944
    4    3    4    4        0.0000000007
    4    3    5    4       -0.0001290399
    4    3    6    4       -0.0020307064
    4    3    7    4       -0.0000000228
    4    3    8    4        0.0000462478
    4    3    9    4        0.0025626329
    4    3   10    4        0.0006049986
    4    3   11    4       -0.0000000003
    4    3    5    5       -0.0000000015
    4    3    6    5       -0.0000000000
    4    3    7    5        0.0038761957
    4    3    8    5        0.0000000000
    4    3    9    5        0.0000000000
    4    3   10    5       -0.0000000003
    4    3   11    5        0.0001869909
    4    3    6    6       -0.0000000007
    4    3    7    6       -0.0000106551
    4    3    8    6       -0.0000000000
    4    3    9    6       -0.0000000001
    4    3   10    6       -0.0000000002
    4    3   11    6        0.0017183338
    4    3    7    7       -0.0000000014
    4    3    8    7        0.0000010692
    4    3    9    7        0.0000428428
    4    3   10    7        0.0001151104
    4    3   11    7       -0.0000000702
    4    3    8    8       -0.0000000013
    4    3    9    8        0.0000000000
    4    3   10    8        0.0000000001
    4    3   11    8       -0.0000751432
    4    3    9    9       -0.0000000017
    4    3   10    9       -0.0000000224
    4    3   11    9        0.0122069802
    4    3   10   10        0.0000000004
    4    3   11   10       -0.0006064639
    4    3   11   11       -0.0000000019
    5    3    5    3        0.0180054464
    5    3    6    3        0.0000077065
    5    3    7    3        0.0000000010
    5    3    8    3        0.0000016650
    5    3    9    3       -0.0002477380
    5    3   10    3        0.0000342374
    5    3   11    3        0.0000000002
    5    3    4    4        0.0000197786
    5    3    5    4       -0.0000000010
    5    3    6    4       -0.0000000000
    5    3    7    4        0.0038748888
    5    3    8    4       -0.0000000000
    5    3    9    4        0.0000000000
    5    3   10    4        0.0000000003
    5    3   11    4       -0.0001488525
    5    3    5    5        0.0002443661
    5    3    6    5       -0.0020310915
    5    3    7    5        0.0000000229
    5    3    8    5        0.0000463201
    5    3    9    5        0.0025607885
    5    3   10    5        0.0006044473
    5    3   11    5        0.0000000015
    5    3    6    6        0.0002439418
    5    3    7    6       -0.0000000000
    5    3    8    6        0.0000003284
    5    3    9    6        0.0000303538
    5    3   10    6       -0.0002585524
    5    3   11    6       -0.0000000005
    5    3    7    7        0.0004769262
    5    3    8    7        0.0000000000
    5    3    9    7        0.0000000001
    5    3   10    7       -0.0000000218
    5    3   11    7        0.0119196328
    5    3    8    8        0.0004297629
    5    3    9    8       -0.0000007178
    5    3   10    8       -0.0000008136
    5    3   11    8       -0.0000000000
    5    3    9    9        0.0005663414
    5    3   10    9        0.0000211061
    5    3   11    9       -0.0000000002
    5    3   10   10        0.0003812445
    5    3   11   10        0.0000000002
    5    3   11   11        0.0002944970
    6    3    6    3        0.0089794897
    6    3    7    3        0.0000000000
    6    3    8    3        0.0002215084
    6    3    9    3       -0.0006900304
    6    3   10    3       -0.0021703643
    6    3   11    3       -0.0000000039
    6    3    4    4       -0.0072909897
    6    3    5    4       -0.0000000000
    6    3    6    4       -0.0000000002
    6    3    7    4       -0.0000014982
    6    3    8    4       -0.0000000000
    6    3    9    4       -0.0000000000
    6    3   10    4        0.0000000006
    6    3   11    4        0.0003546863
    6    3    5    5       -0.0072911132
    6    3    6    5        0.0000575346
    6    3    7    5       -0.0000000000
    6    3    8    5        0.0000016469
    6    3    9    5        0.0000052293
    6    3   10    5       -0.0000250740
    6    3   11    5       -0.0000000000
    6    3    6    6       -0.0079988255
    6    3    7    6        0.0000000000
    6    3    8    6        0.0000828030
    6    3    9    6        0.0032953766
    6    3   10    6       -0.0032698220
    6    3   11    6       -0.0000000065
    6    3    7    7       -0.0067318613
    6    3    8    7       -0.0000000000
    6    3    9    7       -0.0000000000
    6    3   10    7       -0.0000000000
    6    3   11    7        0.0000097339
    6    3    8    8       -0.0058597451
    6    3    9    8        0.0000361950
    6    3   10    8       -0.0000386581
    6    3   11    8       -0.0000000003
    6    3    9    9       -0.0070509122
    6    3   10    9        0.0067004662
    6    3   11    9        0.0000000122
    6    3   10   10       -0.0071969087
    6    3   11   10       -0.0000000019
    6    3   11   11       -0.0067266123
    7    3    7    3        0.0101600160
    7    3    8    3       -0.0000000000
    7    3    9    3       -0.0000000000
    7    3   10    3       -0.0000000000
    7    3   11    3       -0.0000016629
    7    3    4    4       -0.0000000040
    7    3    5    4        0.0006700929
    7    3    6    4       -0.0000324230
    7    3    7    4       -0.0000000005
    7    3    8    4        0.0000009810
    7    3    9    4        0.0000540809
    7    3   10    4        0.0000312300
    7    3   11    4       -0.0000000397
    7    3    5    5        0.0000000040
    7    3    6    5       -0.0000000001
    7    3    7    5        0.0001666058
    7    3    8    5        0.0000000000
    7    3    9    5        0.0000000002
    7    3   10    5       -0.0000000124
    7    3   11    5        0.0067124587
    7    3    6    6       -0.0000000000
    7    3    7    6       -0.0012160464
    7    3    8    6       -0.0000000000
    7    3    9    6        0.0000000000
    7    3   10    6       -0.0000000000
    7    3   11    6        0.0000312810
    7    3    7    7       -0.0000000000
    7    3    8    7        0.0000203050
    7    3    9    7        0.0055840719
    7    3   10    7        0.0027016978
    7    3   11    7        0.0000000054
    7    3    8    8       -0.0000000000
    7    3    9    8        0.0000000000
    7    3   10    8        0.0000000000
    7    3   11    8       -0.0000013046
    7    3    9    9       -0.0000000000
    7    3   10    9       -0.0000000005
    7    3   11    9        0.0002558330
    7    3   10   10       -0.0000000000
    7    3   11   10        0.0000076475
    7    3   11   11        0.0000000066
    8    3    8    3        0.0175238130
    8    3    9    3        0.0000650528
    8    3   10    3       -0.0000604338
    8    3   11    3       -0.0000000001
    8    3    4    4        0.0001412314
    8    3    5    4        0.0000000000
    8    3    6    4       -0.0000000000
    8    3    7    4        0.0000005275
    8    3    8    4       -0.0000000005
    8    3    9    4        0.0000000000
    8    3   10    4        0.0000000000
    8    3   11    4       -0.0000101702
    8    3    5    5        0.0001413257
    8    3    6    5        0.0000019133
    8    3    7    5        0.0000000000
    8    3    8    5        0.0001552437
    8    3    9    5        0.0000006328
    8    3   10    5       -0.0000004549
    8    3   11    5       -0.0000000000
    8    3    6    6        0.0003267680
    8    3    7    6       -0.0000000000
    8    3    8    6        0.0029229568
    8    3    9    6        0.0001220070
    8    3   10    6       -0.0000159672
    8    3   11    6       -0.0000000004
    8    3    7    7        0.0001359943
    8    3    8    7        0.0000000000
    8    3    9    7        0.0000000000
    8    3   10    7       -0.0000000000
    8    3   11    7        0.0000010074
    8    3    8    8        0.0000134190
    8    3    9    8        0.0005263922
    8    3   10    8       -0.0004759759
    8    3   11    8       -0.0000000005
    8    3    9    9        0.0001250559
    8    3   10    9        0.0001758755
    8    3   11    9        0.0000000020
    8    3   10   10        0.0003298138
    8    3   11   10        0.0000000007
    8    3   11   11        0.0001354086
    9    3    9    3        0.0083308746
    9    3   10    3       -0.0006216922
    9    3   11    3       -0.0000000015
    9    3    4    4        0.0074906278
    9    3    5    4        0.0000000000
    9    3    6    4       -0.0000000001
    9    3    7    4       -0.0000317782
    9    3    8    4        0.0000000000
    9    3    9    4       -0.0000000002
    9    3   10    4       -0.0000000114
    9    3   11    4        0.0061937859
    9    3    5    5        0.0074861225
    9    3    6    5        0.0000257402
    9    3    7    5       -0.0000000001
    9    3    8    5       -0.0000000769
    9    3    9    5        0.0000641641
    9    3   10    5       -0.0000047555
    9    3   11    5       -0.0000000001
    9    3    6    6        0.0080283751
    9    3    7    6       -0.0000000000
    9    3    8    6        0.0000319471
    9    3    9    6       -0.0018754718
    9    3   10    6        0.0077367370
    9    3   11    6        0.0000000142
    9    3    7    7        0.0080733662
    9    3    8    7       -0.0000000000
    9    3    9    7       -0.0000000000
    9    3   10    7        0.0000000002
    9    3   11    7       -0.0001284316
    9    3    8    8        0.0032127856
    9    3    9    8        0.0000230388
    9    3   10    8        0.0000168826
    9    3   11    8        0.0000000009
    9    3    9    9        0.0010904770
    9    3   10    9       -0.0000940564
    9    3   11    9       -0.0000000004
    9    3   10   10        0.0058112825
    9    3   11   10        0.0000000007
    9    3   11   11        0.0056390894
   10    3   10    3        0.0037389049
   10    3   11    3       -0.0000000047
   10    3    4    4        0.0013977299
   10    3    5    4       -0.0000000000
   10    3    6    4       -0.0000000004
   10    3    7    4        0.0000337514
   10    3    8    4        0.0000000001
   10    3    9    4       -0.0000000068
   10    3   10    4        0.0000000018
   10    3   11    4       -0.0008132223
   10    3    5    5        0.0013967099
   10    3    6    5       -0.0000654690
   10    3    7    5       -0.0000000071
   10    3    8    5       -0.0000018306
   10    3    9    5        0.0000105660
   10    3   10    5        0.0000365415
   10    3   11    5        0.0000000001
   10    3    6    6        0.0001699535
   10    3    7    6       -0.0000000000
   10    3    8    6       -0.0000342727
   10    3    9    6        0.0027383095
   10    3   10    6       -0.0009295235
   10    3   11    6       -0.0000000006
   10    3    7    7        0.0027810437
   10    3    8    7        0.0000000000
   10    3    9    7       -0.0000000001
   10    3   10    7       -0.0000000001
   10    3   11    7        0.0000254180
   10    3    8    8        0.0017702124
   10    3    9    8        0.0000266476
   10    3   10    8        0.0000282278
   10    3   11    8        0.0000000001
   10    3    9    9        0.0020851651
   10    3   10    9       -0.0017265117
   10    3   11    9        0.0000000002
   10    3   10   10       -0.0013994237
   10    3   11   10       -0.0000000097
   10    3   11   11        0.0025124753
   11    3   11    3        0.0063534266
   11    3    4    4        0.0000000014
   11    3    5    4        0.0000191623
   11    3    6    4        0.0007529174
   11    3    7    4       -0.0000000225
   11    3    8    4       -0.0000228370
   11    3    9    4        0.0036727472
   11    3   10    4       -0.0003771030
   11    3   11    4       -0.0000000023
   11    3    5    5        0.0000000028
   11    3    6    5       -0.0000000001
   11    3    7    5        0.0038122786
   11    3    8    5       -0.0000000000
   11    3    9    5       -0.0000000001
   11    3   10    5        0.0000000001
   11    3   11    5        0.0000001770
   11    3    6    6       -0.0000000001
   11    3    7    6        0.0000068509
   11    3    8    6       -0.0000000001
   11    3    9    6        0.0000000051
   11    3   10    6       -0.0000000013
   11    3   11    6       -0.0007952671
   11    3    7    7        0.0000000053
   11    3    8    7       -0.0000000472
   11    3    9    7        0.0000345140
   11    3   10    7        0.0000004421
   11    3   11    7        0.0000000091
   11    3    8    8        0.0000000034
   11    3    9    8        0.0000000006
   11    3   10    8        0.0000000001
   11    3   11    8        0.0000281432
   11    3    9    9        0.0000000038
   11    3   10    9        0.0000000004
   11    3   11    9       -0.0018240777
   11    3   10   10       -0.0000000084
   11    3   11   10        0.0016932646
   11    3   11   11        0.0000000100
    4    4    4    4        0.1086916015
    4    4    5    4        0.0000000516
    4    4    6    4       -0.0000000000
    4    4    7    4        0.0001327249
    4    4    8    4        0.0000000000
    4    4    9    4       -0.0000000003
    4    4   10    4       -0.0000000091
    4    4   11    4        0.0043944234
    4    4    5    5        0.0893533760
    4    4    6    5       -0.0000142692
    4    4    7    5        0.0000000007
    4    4    8    5       -0.0000001534
    4    4    9    5        0.0000977986
    4    4   10    5        0.0000124522
    4    4   11    5       -0.0000000141
    4    4    6    6        0.0966094958
    4    4    7    6        0.0000000011
    4    4    8    6        0.0000723772
    4    4    9    6       -0.0034171255
    4    4   10    6        0.0105894657
    4    4   11    6        0.0000000198
    4    4    7    7        0.0930656694
    4    4    8    7        0.0000000000
    4    4    9    7       -0.0000000067
    4    4   10    7       -0.0000000008
    4    4   11    7       -0.0000505235
    4    4    8    8        0.0928085693
    4    4    9    8        0.0000283123
    4    4   10    8        0.0000111194
    4    4   11    8        0.0000000010
    4    4    9    9        0.0899865304
    4    4   10    9       -0.0058138619
    4    4   11    9       -0.0000000109
    4    4   10   10        0.0939277935
    4    4   11   10       -0.0000000038
    4    4   11   11        0.0966352765
    5    4    5    4        0.0009227304
    5    4    6    4        0.0000091910
    5    4    7    4        0.0000000006
    5    4    8    4       -0.0000003983
    5    4    9    4       -0.0000030912
    5    4   10    4       -0.0000053858
    5    4   11    4       -0.0000000140
    5    4    5    5       -0.0000000516
    5    4    6    5       -0.0000000000
    5    4    7    5       -0.0000473606
    5    4    8    5       -0.0000000000
[...]
    8    5    8    8        0.0000004597
    8    5    9    8       -0.0000841215
    8    5   10    8       -0.0000238465
    8    5   11    8        0.0000000000
    8    5    9    9        0.0000009293
    8    5   10    9        0.0000016945
    8    5   11    9        0.0000000000
    8    5   10   10        0.0000035519
    8    5   11   10        0.0000000000
    8    5   11   11        0.0000007728
    9    5    9    5        0.0044424594
    9    5   10    5       -0.0002903741
    9    5   11    5       -0.0000000010
    9    5    6    6        0.0000143734
    9    5    7    6        0.0000000000
    9    5    8    6        0.0000002428
    9    5    9    6       -0.0000020517
    9    5   10    6        0.0000078081
    9    5   11    6        0.0000000000
    9    5    7    7        0.0000879506
    9    5    8    7        0.0000000000
    9    5    9    7        0.0000000001
    9    5   10    7       -0.0000000049
    9    5   11    7        0.0026621224
    9    5    8    8        0.0000101739
    9    5    9    8       -0.0000000461
    9    5   10    8       -0.0000000527
    9    5   11    8        0.0000000000
    9    5    9    9       -0.0000698046
    9    5   10    9        0.0000204357
    9    5   11    9        0.0000000000
    9    5   10   10       -0.0000272560
    9    5   11   10       -0.0000000001
    9    5   11   11        0.0000384826
   10    5   10    5        0.0026032914
   10    5   11    5       -0.0000000062
   10    5    6    6        0.0000156446
   10    5    7    6        0.0000000012
   10    5    8    6       -0.0000003122
   10    5    9    6        0.0000243150
   10    5   10    6        0.0000115957
   10    5   11    6       -0.0000000001
   10    5    7    7        0.0000391352
   10    5    8    7       -0.0000000000
   10    5    9    7       -0.0000000067
   10    5   10    7       -0.0000000045
   10    5   11    7        0.0008701443
   10    5    8    8        0.0000225361
   10    5    9    8        0.0000005662
   10    5   10    8        0.0000005312
   10    5   11    8        0.0000000000
   10    5    9    9        0.0000419197
   10    5   10    9       -0.0000461491
   10    5   11    9       -0.0000000003
   10    5   10   10        0.0000061396
   10    5   11   10       -0.0000000000
   10    5   11   11        0.0000237882
   11    5   11    5        0.0059688920
   11    5    6    6       -0.0000000001
   11    5    7    6       -0.0006151122
   11    5    8    6       -0.0000000000
   11    5    9    6        0.0000000001
   11    5   10    6       -0.0000000001
   11    5   11    6        0.0000169226
   11    5    7    7       -0.0000000000
   11    5    8    7        0.0000126617
   11    5    9    7        0.0036136401
   11    5   10    7        0.0016956098
   11    5   11    7        0.0000000051
   11    5    8    8        0.0000000000
   11    5    9    8        0.0000000000
   11    5   10    8        0.0000000000
   11    5   11    8       -0.0000006972
   11    5    9    9        0.0000000000
   11    5   10    9       -0.0000000003
   11    5   11    9        0.0001371152
   11    5   10   10       -0.0000000001
   11    5   11   10        0.0000036927
   11    5   11   11       -0.0000000011
    6    6    6    6        0.0975947169
    6    6    7    6       -0.0000000000
    6    6    8    6        0.0001417781
    6    6    9    6       -0.0051369342
    6    6   10    6        0.0124594792
    6    6   11    6        0.0000000233
    6    6    7    7        0.0918820302
    6    6    8    7        0.0000000000
    6    6    9    7       -0.0000000000
    6    6   10    7       -0.0000000003
    6    6   11    7        0.0001554662
    6    6    8    8        0.0893780041
    6    6    9    8        0.0000513231
    6    6   10    8       -0.0000008805
    6    6   11    8        0.0000000010
    6    6    9    9        0.0891118674
    6    6   10    9       -0.0068338139
    6    6   11    9       -0.0000000142
    6    6   10   10        0.0962161840
    6    6   11   10        0.0000000064
    6    6   11   11        0.0933862099
    7    6    7    6        0.0045164459
    7    6    8    6        0.0000000000
    7    6    9    6       -0.0000000000
    7    6   10    6       -0.0000000000
    7    6   11    6        0.0000176115
    7    6    7    7        0.0000000000
    7    6    8    7        0.0000482689
    7    6    9    7        0.0000029250
    7    6   10    7       -0.0007205305
    7    6   11    7       -0.0000000016
    7    6    8    8        0.0000000000
    7    6    9    8       -0.0000000000
    7    6   10    8       -0.0000000000
    7    6   11    8        0.0000002300
    7    6    9    9        0.0000000000
    7    6   10    9        0.0000000000
    7    6   11    9       -0.0000036995
    7    6   10   10       -0.0000000001
    7    6   11   10        0.0000219767
    7    6   11   11       -0.0000000070
    8    6    8    6        0.0024911214
    8    6    9    6        0.0000319458
    8    6   10    6        0.0000040124
    8    6   11    6        0.0000000000
    8    6    7    7        0.0000654339
    8    6    8    7       -0.0000000000
    8    6    9    7       -0.0000000000
    8    6   10    7       -0.0000000000
    8    6   11    7        0.0000002377
    8    6    8    8        0.0000057436
    8    6    9    8       -0.0000446573
    8    6   10    8       -0.0008928221
    8    6   11    8       -0.0000000016
    8    6    9    9        0.0000557618
    8    6   10    9        0.0000585654
    8    6   11    9        0.0000000004
    8    6   10   10        0.0001458216
    8    6   11   10        0.0000000004
    8    6   11   11        0.0000652246
    9    6    9    6        0.0053992735
    9    6   10    6       -0.0033408732
    9    6   11    6       -0.0000000067
    9    6    7    7       -0.0023762346
    9    6    8    7        0.0000000000
    9    6    9    7        0.0000000000
    9    6   10    7       -0.0000000000
    9    6   11    7        0.0000215523
    9    6    8    8       -0.0023253888
    9    6    9    8        0.0000484186
    9    6   10    8        0.0000009826
    9    6   11    8       -0.0000000002
    9    6    9    9       -0.0019551685
    9    6   10    9        0.0018756844
    9    6   11    9        0.0000000038
    9    6   10   10       -0.0060647145
    9    6   11   10       -0.0000000083
    9    6   11   11       -0.0018198490
   10    6   10    6        0.0136285227
   10    6   11    6        0.0000000187
   10    6    7    7        0.0069676599
   10    6    8    7       -0.0000000000
   10    6    9    7       -0.0000000000
   10    6   10    7        0.0000000003
   10    6   11    7       -0.0001579595
   10    6    8    8        0.0048261467
   10    6    9    8        0.0000466012
   10    6   10    8        0.0000555374
   10    6   11    8        0.0000000008
   10    6    9    9        0.0059663321
   10    6   10    9       -0.0041880702
   10    6   11    9       -0.0000000105
   10    6   10   10        0.0138031180
   10    6   11   10        0.0000000099
   10    6   11   11        0.0088069588
   11    6   11    6        0.0037240904
   11    6    7    7        0.0000000127
   11    6    8    7        0.0000007288
   11    6    9    7        0.0000063386
   11    6   10    7        0.0000033207
   11    6   11    7       -0.0000000103
   11    6    8    8        0.0000000090
   11    6    9    8        0.0000000001
   11    6   10    8        0.0000000002
   11    6   11    8        0.0000200950
   11    6    9    9        0.0000000113
   11    6   10    9       -0.0000000116
   11    6   11    9        0.0019317211
   11    6   10   10        0.0000000259
   11    6   11   10        0.0000153955
   11    6   11   11        0.0000000163
    7    7    7    7        0.0959549409
    7    7    8    7        0.0000000000
    7    7    9    7       -0.0000000000
    7    7   10    7       -0.0000000006
    7    7   11    7        0.0003383484
    7    7    8    8        0.0905030227
    7    7    9    8        0.0000334864
    7    7   10    8        0.0000066511
    7    7   11    8        0.0000000011
    7    7    9    9        0.0860554442
    7    7   10    9       -0.0041253421
    7    7   11    9       -0.0000000089
    7    7   10   10        0.0868934461
    7    7   11   10       -0.0000000072
    7    7   11   11        0.0913677466
    8    7    8    7        0.0069708216
    8    7    9    7        0.0000321190
    8    7   10    7       -0.0000019044
    8    7   11    7        0.0000000005
    8    7    8    8        0.0000000000
    8    7    9    8        0.0000000000
    8    7   10    8       -0.0000000000
    8    7   11    8        0.0000224442
    8    7    9    9        0.0000000000
    8    7   10    9       -0.0000000000
    8    7   11    9        0.0000008364
    8    7   10   10       -0.0000000000
    8    7   11   10        0.0000010460
    8    7   11   11        0.0000000001
    9    7    9    7        0.0041384496
    9    7   10    7        0.0014196768
    9    7   11    7        0.0000000031
    9    7    8    8       -0.0000000000
    9    7    9    8        0.0000000000
    9    7   10    8       -0.0000000000
    9    7   11    8        0.0000000473
    9    7    9    9       -0.0000000000
    9    7   10    9       -0.0000000001
    9    7   11    9        0.0000274739
    9    7   10   10       -0.0000000001
    9    7   11   10        0.0000145809
    9    7   11   11       -0.0000000066
   10    7   10    7        0.0013496974
   10    7   11    7       -0.0000000147
   10    7    8    8       -0.0000000005
   10    7    9    8        0.0000000000
   10    7   10    8        0.0000000000
   10    7   11    8       -0.0000004351
   10    7    9    9       -0.0000000006
   10    7   10    9       -0.0000000002
   10    7   11    9        0.0000821796
   10    7   10   10       -0.0000000004
   10    7   11   10       -0.0000142133
   10    7   11   11        0.0000000018
   11    7   11    7        0.0093524440
   11    7    8    8        0.0002722355
   11    7    9    8       -0.0000003413
   11    7   10    8       -0.0000004959
   11    7   11    8        0.0000000003
   11    7    9    9        0.0003307374
   11    7   10    9        0.0000201219
   11    7   11    9       -0.0000000487
   11    7   10   10        0.0002224306
   11    7   11   10        0.0000000010
   11    7   11   11        0.0001747784
    8    8    8    8        0.0924097805
    8    8    9    8       -0.0000116066
    8    8   10    8        0.0000089154
    8    8   11    8        0.0000000005
    8    8    9    9        0.0879930209
    8    8   10    9       -0.0042507917
    8    8   11    9       -0.0000000090
    8    8   10   10        0.0871887943
    8    8   11   10       -0.0000000060
    8    8   11   11        0.0908421745
    9    8    9    8        0.0053190582
    9    8   10    8        0.0008224433
    9    8   11    8        0.0000000014
    9    8    9    9        0.0000345674
    9    8   10    9        0.0000266689
    9    8   11    9       -0.0000000001
    9    8   10   10        0.0000239641
    9    8   11   10       -0.0000000001
    9    8   11   11        0.0000108001
   10    8   10    8        0.0013726016
   10    8   11    8       -0.0000000060
   10    8    9    9        0.0000101881
   10    8   10    9       -0.0000368420
   10    8   11    9       -0.0000000001
   10    8   10   10       -0.0000160324
   10    8   11   10       -0.0000000001
   10    8   11   11        0.0000107888
   11    8   11    8        0.0046028288
   11    8    9    9        0.0000000003
   11    8   10    9       -0.0000000001
   11    8   11    9       -0.0000433120
   11    8   10   10        0.0000000007
   11    8   11   10        0.0000000504
   11    8   11   11        0.0000000007
    9    9    9    9        0.0901184525
    9    9   10    9       -0.0069161162
    9    9   11    9       -0.0000000143
    9    9   10   10        0.0895680291
    9    9   11   10        0.0000000016
    9    9   11   11        0.0891284823
   10    9   10    9        0.0078608536
   10    9   11    9       -0.0000000042
   10    9   10   10       -0.0071616096
   10    9   11   10       -0.0000000033
   10    9   11   11       -0.0053569605
   11    9   11    9        0.0102091673
   11    9   10   10       -0.0000000139
   11    9   11   10       -0.0005243070
   11    9   11   11       -0.0000000120
   10   10   10   10        0.1001230820
   10   10   11   10        0.0000000028
   10   10   11   11        0.0916574963
   11   10   11   10        0.0037684481
   11   10   11   11        0.0000000086
   11   11   11   11        0.0947286400
 end_two_electron_integrals


 output epsi filename:./pspw_hf_H2.emovecs

 Total PSPW energy     :  -0.7641059992E+00


=== Spin Contamination ===

 <Sexact^2> =    0.0000000000000000     
 <S^2>      =    0.0000000000000000     



== Center of Charge ==

spin up     (    0.0000,    0.0000,    0.0026 )
spin down   (    0.0000,    0.0000,    0.0026 )
     total  (    0.0000,    0.0000,    0.0026 )
ionic       (    0.0000,    0.0000,    0.0000 )


== Molecular Dipole wrt Center of Mass ==

mu   =  (   -0.0000,   -0.0000,   -0.0052 ) au
|mu| =     0.0052 au,       0.0132 Debye

 output psi filename:./pspw_hf_H2.movecs

 Writing Crystallographic Information File:./H2.cif
   - cell not shifted (nwpw:cif_shift_cell .false.)


== Timing ==

cputime in seconds
  prologue    :   0.670251E+01
  main loop   :   0.938311E+03
  epilogue    :   0.223915E-01
  total       :   0.945036E+03
  cputime/step:   0.565248E+01       (     166 evalulations,      70 linesearches)


Time spent doing                        total          step       percent
  total time                 :   0.945036E+03  0.569299E+01       100.0 %
  i/o time                   :   0.668328E+00  0.402607E-02         0.1 %
  FFTs                       :   0.829387E+03  0.499631E+01        87.8 %
  dot products               :   0.145343E+01  0.875559E-02         0.2 %
  geodesic                   :   0.169576E+00  0.102154E-02         0.0 %
  ffm_dgemm                  :   0.501336E-01  0.302010E-03         0.0 %
  fmf_dgemm                  :   0.110334E+00  0.664664E-03         0.0 %
  mmm_dgemm                  :   0.183709E-02  0.110668E-04         0.0 %
  m_diagonalize              :   0.446085E-02  0.268726E-04         0.0 %
  local pseudopotentials     :   0.258530E-01  0.155741E-03         0.0 %
  non-local pseudopotentials :   0.295149E+01  0.177800E-01         0.3 %
  structure factors          :   0.124948E+01  0.752696E-02         0.1 %
  phase factors              :   0.693000E-05  0.417470E-07         0.0 %
  masking and packing        :   0.137423E+02  0.827852E-01         1.5 %
  queue fft                  :   0.357484E+01  0.215352E-01         0.4 %
  queue fft (serial)         :   0.150090E+01  0.904160E-02         0.2 %
  queue fft (message passing):   0.191268E+01  0.115221E-01         0.2 %
  HFX potential              :   0.700749E+03  0.422138E+01        74.2 %
  non-local psp FFM          :   0.148712E+01  0.895855E-02         0.2 %
  non-local psp FMF          :   0.386511E+00  0.232838E-02         0.0 %
  non-local psp FFM A        :   0.481837E+00  0.290264E-02         0.1 %
  non-local psp FFM B        :   0.305828E+00  0.184234E-02         0.0 %

== HFX Counters ==
  HFX Evalulations         =   166
  Lin ACE HFX Evalulations =     0


     >>>  JOB COMPLETED     AT Wed Apr 30 13:07:37 2025  <<<

 Task  times  cpu:      988.3s     wall:      945.0s
 Summary of allocated global arrays
-----------------------------------
  No active global arrays


MA_summarize_allocated_blocks: starting scan ...
MA_summarize_allocated_blocks: scan completed: 0 heap blocks, 0 stack blocks
MA usage statistics:

	allocation statistics:
					      heap	     stack
					      ----	     -----
	current number of blocks	         0	         0
	maximum number of blocks	       313	        17
	current total bytes		         0	         0
	maximum total bytes		 937705688	 228700296
	maximum total K-bytes		    937706	    228701
	maximum total M-bytes		       938	       229


                                NWChem Input Module
                                -------------------




                                     CITATION
                                     --------
                Please cite the following reference when publishing
                           results obtained with NWChem:

          E. Apra, E. J. Bylaska, W. A. de Jong, N. Govind, K. Kowalski,
       T. P. Straatsma, M. Valiev, H. J. J. van Dam, Y. Alexeev, J. Anchell,
       V. Anisimov, F. W. Aquino, R. Atta-Fynn, J. Autschbach, N. P. Bauman,
     J. C. Becca, D. E. Bernholdt, K. Bhaskaran-Nair, S. Bogatko, P. Borowski,
         J. Boschen, J. Brabec, A. Bruner, E. Cauet, Y. Chen, G. N. Chuev,
      C. J. Cramer, J. Daily, M. J. O. Deegan, T. H. Dunning Jr., M. Dupuis,
   K. G. Dyall, G. I. Fann, S. A. Fischer, A. Fonari, H. Fruchtl, L. Gagliardi,
      J. Garza, N. Gawande, S. Ghosh, K. Glaesemann, A. W. Gotz, J. Hammond,
       V. Helms, E. D. Hermes, K. Hirao, S. Hirata, M. Jacquelin, L. Jensen,
   B. G. Johnson, H. Jonsson, R. A. Kendall, M. Klemm, R. Kobayashi, V. Konkov,
      S. Krishnamoorthy, M. Krishnan, Z. Lin, R. D. Lins, R. J. Littlefield,
      A. J. Logsdail, K. Lopata, W. Ma, A. V. Marenich, J. Martin del Campo,
   D. Mejia-Rodriguez, J. E. Moore, J. M. Mullin, T. Nakajima, D. R. Nascimento,
    J. A. Nichols, P. J. Nichols, J. Nieplocha, A. Otero-de-la-Roza, B. Palmer,
    A. Panyala, T. Pirojsirikul, B. Peng, R. Peverati, J. Pittner, L. Pollack,
   R. M. Richard, P. Sadayappan, G. C. Schatz, W. A. Shelton, D. W. Silverstein,
   D. M. A. Smith, T. A. Soares, D. Song, M. Swart, H. L. Taylor, G. S. Thomas,
            V. Tipparaju, D. G. Truhlar, K. Tsemekhman, T. Van Voorhis,
      A. Vazquez-Mayagoitia, P. Verma, O. Villa, A. Vishnu, K. D. Vogiatzis,
        D. Wang, J. H. Weare, M. J. Williamson, T. L. Windus, K. Wolinski,
        A. T. Wong, Q. Wu, C. Yang, Q. Yu, M. Zacharias, Z. Zhang, Y. Zhao,
                                and R. J. Harrison
                        "NWChem: Past, present, and future
                         J. Chem. Phys. 152, 184102 (2020)
                               doi:10.1063/5.0004997

                                      AUTHORS
                                      -------
  E. Apra, E. J. Bylaska, N. Govind, K. Kowalski, M. Valiev, D. Mejia-Rodriguez,
       A. Kunitsa, N. P. Bauman, A. Panyala, W. A. de Jong, T. P. Straatsma,
   H. J. J. van Dam, D. Wang, T. L. Windus, J. Hammond, J. Autschbach, A. Woods,
    K. Bhaskaran-Nair, J. Brabec, K. Lopata, S. A. Fischer, S. Krishnamoorthy,
     M. Jacquelin, W. Ma, M. Klemm, O. Villa, Y. Chen, V. Anisimov, F. Aquino,
     S. Hirata, M. T. Hackler, E. Hermes, L. Jensen, J. E. Moore, J. C. Becca,
      V. Konjkov, T. Risthaus, M. Malagoli, A. Marenich, A. Otero-de-la-Roza,
        J. Mullin, P. Nichols, R. Peverati, J. Pittner, Y. Zhao, P.-D. Fan,
        A. Fonari, M. J. Williamson, R. J. Harrison, J. R. Rehr, M. Dupuis,
     D. Silverstein, D. M. A. Smith, J. Nieplocha, V. Tipparaju, M. Krishnan,
     B. E. Van Kuiken, A. Vazquez-Mayagoitia, M. Swart, Q. Wu, T. Van Voorhis,
     A. A. Auer, M. Nooijen, L. D. Crosby, E. Brown, G. Cisneros, G. I. Fann,
   H. Fruchtl, J. Garza, K. Hirao, R. A. Kendall, J. A. Nichols, K. Tsemekhman,
    K. Wolinski, J. Anchell, D. E. Bernholdt, P. Borowski, T. Clark, D. Clerc,
   H. Dachsel, M. J. O. Deegan, K. Dyall, D. Elwood, E. Glendening, M. Gutowski,
   A. C. Hess, J. Jaffe, B. G. Johnson, J. Ju, R. Kobayashi, R. Kutteh, Z. Lin,
   R. Littlefield, X. Long, B. Meng, T. Nakajima, S. Niu, L. Pollack, M. Rosing,
   K. Glaesemann, G. Sandrone, M. Stave, H. Taylor, G. Thomas, J. H. van Lenthe,
                               A. T. Wong, Z. Zhang.

 Total times  cpu:      988.3s     wall:      945.1s
