 argument  1 = H2-3.5.nw



============================== echo of input deck ==============================
title "swnc: e theory=pspw4 xc=hf formula=H2 charge=0 mult=1"
#machinejob:expert

echo

start pspw_hf_H2

memory heap 1200 mb stack 1200 mb global 10 mb

charge 0

geometry
H    0.00000    0.00000   -1.75000
H    0.00000    0.00000    1.75000
end

nwpw
  ### pseudopotential block begin ###
  ### pseudopotential block end   ###
  simulation_cell
     SC 15.0000
     boundary_conditions aperiodic
  end

  cutoff 50.0
  mult 1
  xc hf
  lmbfgs
  tolerances 1.0e-9 1.0e-9

  virtual 12
end
set nwpw:cif_filename H2

#set nwpw:CI_maxit_orb 15
#set nwpw:CI_maxit_linesearch 15
set pspw:HFX_screening_radius 14.0


set nwpw:2qintegrals .true.
set nwpw:3x3_virtual .true.

task pspw energy
================================================================================


                                         
                                         


             Northwest Computational Chemistry Package (NWChem) 7.2.3
             --------------------------------------------------------


                    Environmental Molecular Sciences Laboratory
                       Pacific Northwest National Laboratory
                                Richland, WA 99352

                              Copyright (c) 1994-2022
                       Pacific Northwest National Laboratory
                            Battelle Memorial Institute

             NWChem is an open-source computational chemistry package
                        distributed under the terms of the
                      Educational Community License (ECL) 2.0
             A copy of the license is included with this distribution
                              in the LICENSE.TXT file

                                  ACKNOWLEDGMENT
                                  --------------

            This software and its documentation were developed at the
            EMSL at Pacific Northwest National Laboratory, a multiprogram
            national laboratory, operated for the U.S. Department of Energy
            by Battelle under Contract Number DE-AC05-76RL01830. Support
            for this work was provided by the Department of Energy Office
            of Biological and Environmental Research, Office of Basic
            Energy Sciences, and the Office of Advanced Scientific Computing.


           Job information
           ---------------

    hostname        = mqs-al
    program         = nwchem
    date            = Sun Apr  6 20:54:55 2025

    compiled        = Thu_Oct_31_08:55:15_2024
    source          = /home/conda/feedstock_root/build_artifacts/nwchem_1730356057992/work
    nwchem branch   = 7.2.3
    nwchem revision = c400b04
    ga revision     = 5.8.0
    use scalapack   = T
    input           = H2-3.5.nw
    prefix          = pspw_hf_H2.
    data base       = ./pspw_hf_H2.db
    status          = startup
    nproc           =       24
    time left       =     -1s



           Memory information
           ------------------

    heap     =  157286394 doubles =   1200.0 Mbytes
    stack    =  157286399 doubles =   1200.0 Mbytes
    global   =    1310720 doubles =     10.0 Mbytes (distinct from heap & stack)
    total    =  315883513 doubles =   2410.0 Mbytes
    verify   = yes
    hardfail = no 


           Directory information
           ---------------------

  0 permanent = .
  0 scratch   = .




                                NWChem Input Module
                                -------------------


               swnc: e theory=pspw4 xc=hf formula=H2 charge=0 mult=1
               -----------------------------------------------------

 Scaling coordinates for geometry "geometry" by  1.889725989
 (inverse scale =  0.529177249)

  zeroes
  zeroes
  zeroes
  zeroes
  zeroes
  zeroes
  zeroes
  zeroes
  zeroes
  zeroes
  zeroes
  zeroes
  zeroes
  zeroes
  zeroes
  zeroes
  zeroes
  zeroes
  zeroes
  zeroes
  zeroes
  zeroes
  zeroes
  zeroes
  zeroes
  zeroes
  zeroes
  zeroes
  zeroes
  zeroes
  zeroes
  zeroes
  zeroes
  zeroes
  zeroes
  zeroes
  zeroes
  zeroes
  zeroes
  zeroes
  zeroes
  zeroes
  zeroes
  zeroes
  zeroes
  zeroes
  zeroes
  zeroes
 ORDER OF PRIMARY AXIS IS BEING SET TO 4
 D4H symmetry detected

          ------
          auto-z
          ------
     1 autoz failed with cvr_scaling = 1.2 changing to 1.3
     2 autoz failed with cvr_scaling = 1.3 changing to 1.4
     3 autoz failed with cvr_scaling = 1.4 changing to 1.5
     4 autoz failed with cvr_scaling = 1.5 changing to 1.6
     5 autoz failed with cvr_scaling = 1.6 changing to 1.7

 AUTOZ failed to generate good internal coordinates.
 Cartesian coordinates will be used in optimizations.



                             Geometry "geometry" -> ""
                             -------------------------

 Output coordinates in angstroms (scale by  1.889725989 to convert to a.u.)

  No.       Tag          Charge          X              Y              Z
 ---- ---------------- ---------- -------------- -------------- --------------
    1 H                    1.0000     0.00000000     0.00000000    -1.75000000
    2 H                    1.0000     0.00000000     0.00000000     1.75000000

      Atomic Mass 
      ----------- 

      H                  1.007825


 Effective nuclear repulsion energy (a.u.)       0.1511934997

            Nuclear Dipole moment (a.u.) 
            ----------------------------
        X                 Y               Z
 ---------------- ---------------- ----------------
     0.0000000000     0.0000000000     0.0000000000

      Symmetry information
      --------------------

 Group name             D4h       
 Group number             28
 Group order              16
 No. of unique centers     1

      Symmetry unique atoms

     1


            XYZ format geometry
            -------------------
     2
 geometry
 H                     0.00000000     0.00000000    -1.75000000
 H                     0.00000000     0.00000000     1.75000000

          ****************************************************
          *                                                  *
          *               NWPW PSPW Calculation              *
          *                                                  *
          * [ (Grassmann/Stiefel manifold implementation)  ] *
          *                                                  *
          *      [ NorthWest Chemistry implementation ]      *
          *                                                  *
          *            version #5.10   06/12/02              *
          *                                                  *
          *    This code was developed by Eric J. Bylaska,   *
          *    and was based upon algorithms and code        *
          *    developed by the group of Prof. John H. Weare *
          *                                                  *
          ****************************************************
     >>>  JOB STARTED       AT Sun Apr  6 20:54:55 2025  <<<
          ================ input data ========================

 input psi filename:./pspw_hf_H2.movecs

 number of processors used:        24
 processor grid           :  24 x   1
 parallel mapping         :2d-hilbert
 parallel mapping         :  balanced
 number of threads        :         1
 parallel io              :       off

 options:
      boundary conditions  = aperiodic   (version4)
      electron spin        = restricted
      exchange-correlation = Hartree-Fock
      - HFX relaxed
      - HFX restricted orbitals :    1
      - HFX free-space coulomb solver


 elements involved in the cluster:
      1: H   valence charge:  1.0000  lmax=  1
             comment    : Parameterized (Chem.Phys.Lett., vol 322, page 447) Hamman psp
             pseudpotential type            :   0
             highest angular component      :   1
             local potential used           :   1
             number of non-local projections:   1
             aperiodic cutoff radius        :  1.000
             cutoff =   0.800   0.800


 total charge:   0.000

 atomic composition:
     H   :    2

 number of electrons: spin up=     1 (   1 per task)  down=     1 (   1 per task) (Fourier space)
 number of orbitals : spin up=     1 (   1 per task)  down=     1 (   1 per task) (Fourier space)

 supercell:
      cell_name:  cell_default                                      
      lattice:    a1=<  15.000   0.000   0.000 >
                  a2=<   0.000  15.000   0.000 >
                  a3=<   0.000   0.000  15.000 >
      reciprocal: b1=<   0.419   0.000   0.000 >
                  b2=<   0.000   0.419   0.000 >
                  b3=<   0.000   0.000   0.419 >
      lattice:    a=      15.000 b=     15.000 c=      15.000
                  alpha=  90.000 beta=  90.000 gamma=  90.000
                  omega=      3375.0

      density cutoff=100.000  fft= 70x 70x 70(    80618 waves     3359 per task)
      wavefnc cutoff= 50.000  fft= 70x 70x 70(    28526 waves     1188 per task)

 technical parameters:
      time step=      5.80     fictitious mass=  400000.0
      tolerance=0.100E-08 (energy)   0.100E-08 (density)
      maximum iterations =      1000 (   10 inner    100 outer )





== Energy Calculation ==


          ============ Grassmann lmbfgs iteration ============
     >>>  ITERATION STARTED AT Sun Apr  6 20:55:01 2025  <<<
    iter.           Energy         DeltaE       DeltaRho 
    ------------------------------------------------------
      10   -0.8077052129E+00   -0.15187E-02    0.71109E-02
     -  10 steepest descent iterations performed
      20   -0.8128073793E+00   -0.12584E-03    0.62223E-04
      30   -0.8130343091E+00   -0.44341E-05    0.50745E-05
      40   -0.8130484814E+00   -0.24087E-06    0.71644E-07
      50   -0.8130491451E+00   -0.94910E-08    0.89846E-09
      60   -0.8130491720E+00   -0.68630E-09    0.11498E-09
  *** tolerance ok. iteration terminated
     >>>  ITERATION ENDED   AT Sun Apr  6 20:55:07 2025  <<<


==  Summary Of Results  ==

 number of electrons: spin up=    1.00000  down=    1.00000 (real space)

 total     energy    :  -0.8130491720E+00 (   -0.40652E+00/ion)
 total orbital energy:  -0.6392164672E+00 (   -0.63922E+00/electron)
 hartree   energy    :   0.6500524091E+00 (    0.65005E+00/electron)
 exc-corr  energy    :   0.0000000000E+00 (    0.00000E+00/electron)
 HF exchange energy  :  -0.3250262045E+00 (   -0.32503E+00/electron)
 ion-ion   energy    :   0.1511934997E+00 (    0.75597E-01/ion)

 kinetic (planewave) :   0.6171805292E+00 (    0.61718E+00/electron)
 V_local (planewave) :  -0.1759804737E+01 (   -0.17598E+01/electron)
 V_nl    (planewave) :  -0.1466446688E+00 (   -0.14664E+00/electron)
 V_Coul  (planewave) :   0.1300104818E+01 (    0.13001E+01/electron)
 V_xc.   (planewave) :   0.0000000000E+00 (    0.00000E+00/electron)
 K.S. HFX energy     :  -0.6500524091E+00 (   -0.65005E+00/electron)
 Virial Coefficient  :  -0.9824428326E+00

 orbital energies:
    -0.3196082E+00 (  -8.697eV)


== Virtual Orbital Calculation ==


 input epsi filename:./pspw_hf_H2.emovecs

 COVOs Mimimization
 ------------------
CI gradient algorithm =         3
maxit_sweeps          =         3
maxit_orb             =       120
maxit_linesearch      =        15
maxerror              = 0.100E-08

     orb,it,eci,eold,eci-eold=                    1                    1 -0.92068598589358142      -0.92031606494865259       -3.6992094492882543E-004 F
     orb,it,eci,eold,eci-eold=                    1                    2 -0.92082319174862248      -0.92068598589358142       -1.3720585504106708E-004 F
     orb,it,eci,eold,eci-eold=                    1                    3 -0.93656641861404455      -0.92082319174862248       -1.5743226865422066E-002 F
     orb,it,eci,eold,eci-eold=                    1                    4 -0.93826962166028771      -0.93656641861404455       -1.7032030462431624E-003 F
     orb,it,eci,eold,eci-eold=                    1                    5 -0.94080016948377765      -0.93826962166028771       -2.5305478234899370E-003 F
     orb,it,eci,eold,eci-eold=                    1                    6 -0.95021045018870320      -0.94080016948377765       -9.4102807049255555E-003 F
     orb,it,eci,eold,eci-eold=                    1                    7 -0.95121291642639050      -0.95021045018870320       -1.0024662376872939E-003 F
     orb,it,eci,eold,eci-eold=                    1                    8 -0.95136275872593468      -0.95121291642639050       -1.4984229954417838E-004 F
     orb,it,eci,eold,eci-eold=                    1                    9 -0.95500267972290098      -0.95136275872593468       -3.6399209969663060E-003 F
     orb,it,eci,eold,eci-eold=                    1                   10 -0.95716235457800192      -0.95500267972290098       -2.1596748551009348E-003 F
     orb,it,eci,eold,eci-eold=                    1                   11 -0.96070889036706020      -0.95716235457800192       -3.5465357890582805E-003 F
     orb,it,eci,eold,eci-eold=                    1                   12 -0.96133681834771867      -0.96070889036706020       -6.2792798065847144E-004 F
     orb,it,eci,eold,eci-eold=                    1                   13 -0.96169353024639825      -0.96133681834771867       -3.5671189867958475E-004 F
     orb,it,eci,eold,eci-eold=                    1                   14 -0.96329417335496548      -0.96169353024639825       -1.6006431085672235E-003 F
     orb,it,eci,eold,eci-eold=                    1                   15 -0.96458401665037763      -0.96329417335496548       -1.2898432954121519E-003 F
     orb,it,eci,eold,eci-eold=                    1                   16 -0.96658046348344084      -0.96458401665037763       -1.9964468330632146E-003 F
     orb,it,eci,eold,eci-eold=                    1                   17 -0.96708678814173643      -0.96658046348344084       -5.0632465829558715E-004 F
     orb,it,eci,eold,eci-eold=                    1                   18 -0.96750313258329523      -0.96708678814173643       -4.1634444155880246E-004 F
     orb,it,eci,eold,eci-eold=                    1                   19 -0.96867397804821831      -0.96750313258329523       -1.1708454649230760E-003 F
     orb,it,eci,eold,eci-eold=                    1                   20 -0.96940954408683822      -0.96867397804821831       -7.3556603861990588E-004 F
     orb,it,eci,eold,eci-eold=                    1                   21 -0.97030094935959021      -0.96940954408683822       -8.9140527275199943E-004 F
     orb,it,eci,eold,eci-eold=                    1                   22 -0.97044957894663353      -0.97030094935959021       -1.4862958704331408E-004 F
     orb,it,eci,eold,eci-eold=                    1                   23 -0.97077297232837201      -0.97044957894663353       -3.2339338173847931E-004 F
     orb,it,eci,eold,eci-eold=                    1                   24 -0.97180304538937867      -0.97077297232837201       -1.0300730610066644E-003 F
     orb,it,eci,eold,eci-eold=                    1                   25 -0.97241201088298668      -0.97180304538937867       -6.0896549360800467E-004 F
     orb,it,eci,eold,eci-eold=                    1                   26 -0.97283073629071981      -0.97241201088298668       -4.1872540773313371E-004 F
     orb,it,eci,eold,eci-eold=                    1                   27 -0.97300227633962921      -0.97283073629071981       -1.7154004890940211E-004 F
     orb,it,eci,eold,eci-eold=                    1                   28 -0.97363944308678896      -0.97300227633962921       -6.3716674715974531E-004 F
     orb,it,eci,eold,eci-eold=                    1                   29 -0.97407970409048628      -0.97363944308678896       -4.4026100369731758E-004 F
     orb,it,eci,eold,eci-eold=                    1                   30 -0.97424810447791488      -0.97407970409048628       -1.6840038742860219E-004 F
     orb,it,eci,eold,eci-eold=                    1                   31 -0.97463009113918986      -0.97424810447791488       -3.8198666127498004E-004 F
     orb,it,eci,eold,eci-eold=                    1                   32 -0.97464423729065353      -0.97463009113918986       -1.4146151463667600E-005 F
     orb,it,eci,eold,eci-eold=                    1                   33 -0.97469049122975893      -0.97464423729065353       -4.6253939105400654E-005 F
     orb,it,eci,eold,eci-eold=                    1                   34 -0.97505071703399826      -0.97469049122975893       -3.6022580423933359E-004 F
     orb,it,eci,eold,eci-eold=                    1                   35 -0.97529100601557384      -0.97505071703399826       -2.4028898157557599E-004 F
     orb,it,eci,eold,eci-eold=                    1                   36 -0.97565193156443542      -0.97529100601557384       -3.6092554886157924E-004 F
     orb,it,eci,eold,eci-eold=                    1                   37 -0.97582942511267534      -0.97565193156443542       -1.7749354823992647E-004 F
     orb,it,eci,eold,eci-eold=                    1                   38 -0.97606841462111937      -0.97582942511267534       -2.3898950844403188E-004 F
     orb,it,eci,eold,eci-eold=                    1                   39 -0.97623090971437509      -0.97606841462111937       -1.6249509325572120E-004 F
     orb,it,eci,eold,eci-eold=                    1                   40 -0.97653642370337213      -0.97623090971437509       -3.0551398899703042E-004 F
     orb,it,eci,eold,eci-eold=                    1                   41 -0.97654597570607149      -0.97653642370337213       -9.5520026993645146E-006 F
     orb,it,eci,eold,eci-eold=                    1                   42 -0.97656688122475321      -0.97654597570607149       -2.0905518681724189E-005 F
     orb,it,eci,eold,eci-eold=                    1                   43 -0.97679001642316332      -0.97656688122475321       -2.2313519841010709E-004 F
     orb,it,eci,eold,eci-eold=                    1                   44 -0.97691963765027423      -0.97679001642316332       -1.2962122711090984E-004 F
     orb,it,eci,eold,eci-eold=                    1                   45 -0.97706108952092774      -0.97691963765027423       -1.4145187065350839E-004 F
     orb,it,eci,eold,eci-eold=                    1                   46 -0.97713513700151466      -0.97706108952092774       -7.4047480586925118E-005 F
     orb,it,eci,eold,eci-eold=                    1                   47 -0.97727246087514630      -0.97713513700151466       -1.3732387363163401E-004 F
     orb,it,eci,eold,eci-eold=                    1                   48 -0.97735532331021679      -0.97727246087514630       -8.2862435070496510E-005 F
     orb,it,eci,eold,eci-eold=                    1                   49 -0.97744731651045458      -0.97735532331021679       -9.1993200237783235E-005 F
     orb,it,eci,eold,eci-eold=                    1                   50 -0.97748901178121950      -0.97744731651045458       -4.1695270764918746E-005 F
     orb,it,eci,eold,eci-eold=                    1                   51 -0.97756614134123587      -0.97748901178121950       -7.7129560016375720E-005 F
     orb,it,eci,eold,eci-eold=                    1                   52 -0.97757763793938890      -0.97756614134123587       -1.1496598153026838E-005 F
     orb,it,eci,eold,eci-eold=                    1                   53 -0.97758651675975028      -0.97757763793938890       -8.8788203613798800E-006 F
     orb,it,eci,eold,eci-eold=                    1                   54 -0.97764950366655134      -0.97758651675975028       -6.2986906801065778E-005 F
     orb,it,eci,eold,eci-eold=                    1                   55 -0.97768411801473665      -0.97764950366655134       -3.4614348185302291E-005 F
     orb,it,eci,eold,eci-eold=                    1                   56 -0.97769441710127236      -0.97768411801473665       -1.0299086535714430E-005 F
     orb,it,eci,eold,eci-eold=                    1                   57 -0.97773946568020675      -0.97769441710127236       -4.5048578934392403E-005 F
     orb,it,eci,eold,eci-eold=                    1                   58 -0.97776515181367740      -0.97773946568020675       -2.5686133470648187E-005 F
     orb,it,eci,eold,eci-eold=                    1                   59 -0.97777919686970094      -0.97776515181367740       -1.4045056023537228E-005 F
     orb,it,eci,eold,eci-eold=                    1                   60 -0.97782457956499491      -0.97777919686970094       -4.5382695293971764E-005 F
     orb,it,eci,eold,eci-eold=                    1                   61 -0.97784034544353071      -0.97782457956499491       -1.5765878535800582E-005 F
     orb,it,eci,eold,eci-eold=                    1                   62 -0.97784534911403931      -0.97784034544353071       -5.0036705085965139E-006 F
     orb,it,eci,eold,eci-eold=                    1                   63 -0.97787728555099385      -0.97784534911403931       -3.1936436954538294E-005 F
     orb,it,eci,eold,eci-eold=                    1                   64 -0.97789673874514005      -0.97787728555099385       -1.9453194146201724E-005 F
     orb,it,eci,eold,eci-eold=                    1                   65 -0.97790547579082010      -0.97789673874514005       -8.7370456800517360E-006 F
     orb,it,eci,eold,eci-eold=                    1                   66 -0.97793399954116556      -0.97790547579082010       -2.8523750345454957E-005 F
     orb,it,eci,eold,eci-eold=                    1                   67 -0.97794510311930138      -0.97793399954116556       -1.1103578135829295E-005 F
     orb,it,eci,eold,eci-eold=                    1                   68 -0.97794957442827868      -0.97794510311930138       -4.4713089772940862E-006 F
     orb,it,eci,eold,eci-eold=                    1                   69 -0.97797050253494400      -0.97794957442827868       -2.0928106665318857E-005 F
     orb,it,eci,eold,eci-eold=                    1                   70 -0.97798056801937805      -0.97797050253494400       -1.0065484434051974E-005 F
     orb,it,eci,eold,eci-eold=                    1                   71 -0.97798576427857364      -0.97798056801937805       -5.1962591955945214E-006 F
     orb,it,eci,eold,eci-eold=                    1                   72 -0.97800762951835807      -0.97798576427857364       -2.1865239784424340E-005 F
     orb,it,eci,eold,eci-eold=                    1                   73 -0.97802004336913473      -0.97800762951835807       -1.2413850776660240E-005 F
     orb,it,eci,eold,eci-eold=                    1                   74 -0.97802431628822473      -0.97802004336913473       -4.2729190899981617E-006 F
     orb,it,eci,eold,eci-eold=                    1                   75 -0.97803823545652946      -0.97802431628822473       -1.3919168304732388E-005 F
     orb,it,eci,eold,eci-eold=                    1                   76 -0.97804139987849259      -0.97803823545652946       -3.1644219631310477E-006 F
     orb,it,eci,eold,eci-eold=                    1                   77 -0.97804311148776568      -0.97804139987849259       -1.7116092730917742E-006 F
     orb,it,eci,eold,eci-eold=                    1                   78 -0.97805638691109520      -0.97804311148776568       -1.3275423329517366E-005 F
     orb,it,eci,eold,eci-eold=                    1                   79 -0.97806605772459654      -0.97805638691109520       -9.6708135013390262E-006 F
     orb,it,eci,eold,eci-eold=                    1                   80 -0.97806967409828460      -0.97806605772459654       -3.6163736880645558E-006 F
     orb,it,eci,eold,eci-eold=                    1                   81 -0.97807905609971091      -0.97806967409828460       -9.3820014263057416E-006 F
     orb,it,eci,eold,eci-eold=                    1                   82 -0.97808136639588761      -0.97807905609971091       -2.3102961766996444E-006 F
     orb,it,eci,eold,eci-eold=                    1                   83 -0.97808303326809787      -0.97808136639588761       -1.6668722102597400E-006 F
     orb,it,eci,eold,eci-eold=                    1                   84 -0.97809263364569288      -0.97808303326809787       -9.6003775950093129E-006 F
     orb,it,eci,eold,eci-eold=                    1                   85 -0.97809830365783645      -0.97809263364569288       -5.6700121435770967E-006 F
     orb,it,eci,eold,eci-eold=                    1                   86 -0.97809999436168571      -0.97809830365783645       -1.6907038492552928E-006 F
     orb,it,eci,eold,eci-eold=                    1                   87 -0.97810605043654641      -0.97809999436168571       -6.0560748607052517E-006 F
     orb,it,eci,eold,eci-eold=                    1                   88 -0.97810844923264995      -0.97810605043654641       -2.3987961035309979E-006 F
     orb,it,eci,eold,eci-eold=                    1                   89 -0.97810993126081558      -0.97810844923264995       -1.4820281656335865E-006 F
     orb,it,eci,eold,eci-eold=                    1                   90 -0.97811641078999201      -0.97810993126081558       -6.4795291764285778E-006 F
     orb,it,eci,eold,eci-eold=                    1                   91 -0.97811984923246664      -0.97811641078999201       -3.4384424746347619E-006 F
     orb,it,eci,eold,eci-eold=                    1                   92 -0.97812103581327958      -0.97811984923246664       -1.1865808129396527E-006 F
     orb,it,eci,eold,eci-eold=                    1                   93 -0.97812560465859744      -0.97812103581327958       -4.5688453178538424E-006 F
     orb,it,eci,eold,eci-eold=                    1                   94 -0.97812766267602846      -0.97812560465859744       -2.0580174310280697E-006 F
     orb,it,eci,eold,eci-eold=                    1                   95 -0.97812874452940113      -0.97812766267602846       -1.0818533726641988E-006 F
     orb,it,eci,eold,eci-eold=                    1                   96 -0.97813327436397468      -0.97812874452940113       -4.5298345735522716E-006 F
     orb,it,eci,eold,eci-eold=                    1                   97 -0.97813550303500585      -0.97813327436397468       -2.2286710311680835E-006 F
     orb,it,eci,eold,eci-eold=                    1                   98 -0.97813620279688329      -0.97813550303500585       -6.9976187744291707E-007 F
     orb,it,eci,eold,eci-eold=                    1                   99 -0.97813917973809583      -0.97813620279688329       -2.9769412125402184E-006 F
     orb,it,eci,eold,eci-eold=                    1                  100 -0.97814051689786452      -0.97813917973809583       -1.3371597686884229E-006 F
     orb,it,eci,eold,eci-eold=                    1                  101 -0.97814124386716617      -0.97814051689786452       -7.2696930164539708E-007 F
     orb,it,eci,eold,eci-eold=                    1                  102 -0.97814423815939344      -0.97814124386716617       -2.9942922272763184E-006 F
     orb,it,eci,eold,eci-eold=                    1                  103 -0.97814573194271237      -0.97814423815939344       -1.4937833189287986E-006 F
     orb,it,eci,eold,eci-eold=                    1                  104 -0.97814629822402654      -0.97814573194271237       -5.6628131417379990E-007 F
     orb,it,eci,eold,eci-eold=                    1                  105 -0.97814857034078717      -0.97814629822402654       -2.2721167606265524E-006 F
     orb,it,eci,eold,eci-eold=                    1                  106 -0.97814943482369610      -0.97814857034078717       -8.6448290892437996E-007 F
     orb,it,eci,eold,eci-eold=                    1                  107 -0.97814970852160754      -0.97814943482369610       -2.7369791144593592E-007 F
     orb,it,eci,eold,eci-eold=                    1                  108 -0.97815129306051463      -0.97814970852160754       -1.5845389070845428E-006 F
     orb,it,eci,eold,eci-eold=                    1                  109 -0.97815210998513025      -0.97815129306051463       -8.1692461562088425E-007 F
     orb,it,eci,eold,eci-eold=                    1                  110 -0.97815249512446956      -0.97815210998513025       -3.8513933930950373E-007 F
     orb,it,eci,eold,eci-eold=                    1                  111 -0.97815394673489520      -0.97815249512446956       -1.4516104256401263E-006 F
     orb,it,eci,eold,eci-eold=                    1                  112 -0.97815461183310004      -0.97815394673489520       -6.6509820484395021E-007 F
     orb,it,eci,eold,eci-eold=                    1                  113 -0.97815489594459137      -0.97815461183310004       -2.8411149133322766E-007 F
     orb,it,eci,eold,eci-eold=                    1                  114 -0.97815607329251553      -0.97815489594459137       -1.1773479241528051E-006 F
     orb,it,eci,eold,eci-eold=                    1                  115 -0.97815665500316784      -0.97815607329251553       -5.8171065231427121E-007 F
     orb,it,eci,eold,eci-eold=                    1                  116 -0.97815692012989053      -0.97815665500316784       -2.6512672268719228E-007 F
     orb,it,eci,eold,eci-eold=                    1                  117 -0.97815794825788860      -0.97815692012989053       -1.0281279980706159E-006 F
     orb,it,eci,eold,eci-eold=                    1                  118 -0.97815837310429787      -0.97815794825788860       -4.2484640927487050E-007 F
     orb,it,eci,eold,eci-eold=                    1                  119 -0.97815851875683701      -0.97815837310429787       -1.4565253914078369E-007 F
     orb,it,eci,eold,eci-eold=                    1                  120 -0.97815930165172027      -0.97815851875683701       -7.8289488325555823E-007 F
     orb,it,eci,eold,eci-eold=                    1                  121 -0.97815979548124354      -0.97815930165172027       -4.9382952327370333E-007 F
     orbital   1 current e= -0.137176E+00 error=0.589E-01 (eci= -0.978159795E+00 error=0.494E-06) iterations 121(   0 preconditioned, Ep,Sp= 20.0  200.0)
     orb,it,eci,eold,eci-eold=                    1                    1 -0.97816126342808318      -0.97815979548124354       -1.4679468396394668E-006 F
     orb,it,eci,eold,eci-eold=                    1                    2 -0.97816189860942604      -0.97816126342808318       -6.3518134285622807E-007 F
     orb,it,eci,eold,eci-eold=                    1                    3 -0.97816353132214295      -0.97816189860942604       -1.6327127169146749E-006 F
     orb,it,eci,eold,eci-eold=                    1                    4 -0.97816438107665205      -0.97816353132214295       -8.4975450909130501E-007 F
     orb,it,eci,eold,eci-eold=                    1                    5 -0.97816475737091024      -0.97816438107665205       -3.7629425819751816E-007 F
     orb,it,eci,eold,eci-eold=                    1                    6 -0.97816491918179849      -0.97816475737091024       -1.6181088824396284E-007 F
     orb,it,eci,eold,eci-eold=                    1                    7 -0.97816534879855399      -0.97816491918179849       -4.2961675550401424E-007 F
     orb,it,eci,eold,eci-eold=                    1                    8 -0.97816559496258593      -0.97816534879855399       -2.4616403193622460E-007 F
     orb,it,eci,eold,eci-eold=                    1                    9 -0.97816578226907525      -0.97816559496258593       -1.8730648931875038E-007 F
     orb,it,eci,eold,eci-eold=                    1                   10 -0.97816587126654142      -0.97816578226907525       -8.8997466174411954E-008 F
     orb,it,eci,eold,eci-eold=                    1                   11 -0.97816595579027599      -0.97816587126654142       -8.4523734567021336E-008 F
     orb,it,eci,eold,eci-eold=                    1                   12 -0.97816600169824441      -0.97816595579027599       -4.5907968426739387E-008 F
     orb,it,eci,eold,eci-eold=                    1                   13 -0.97816608560142670      -0.97816600169824441       -8.3903182290789857E-008 F
     orb,it,eci,eold,eci-eold=                    1                   14 -0.97816613476506753      -0.97816608560142670       -4.9163640825078403E-008 F
     orb,it,eci,eold,eci-eold=                    1                   15 -0.97816615952968156      -0.97816613476506753       -2.4764614026118181E-008 F
     orb,it,eci,eold,eci-eold=                    1                   16 -0.97816616849948856      -0.97816615952968156       -8.9698070082633308E-009 F
     orb,it,eci,eold,eci-eold=                    1                   17 -0.97816620547815436      -0.97816616849948856       -3.6978665796105759E-008 F
     orb,it,eci,eold,eci-eold=                    1                   18 -0.97816622595951674      -0.97816620547815436       -2.0481362383861779E-008 F
     orb,it,eci,eold,eci-eold=                    1                   19 -0.97816623968825633      -0.97816622595951674       -1.3728739589602412E-008 F
     orb,it,eci,eold,eci-eold=                    1                   20 -0.97816624571653010      -0.97816623968825633       -6.0282737690542376E-009 F
     orb,it,eci,eold,eci-eold=                    1                   21 -0.97816625564807902      -0.97816624571653010       -9.9315489165974213E-009 F
     orb,it,eci,eold,eci-eold=                    1                   22 -0.97816626054457889      -0.97816625564807902       -4.8964998722311748E-009 F
     orb,it,eci,eold,eci-eold=                    1                   23 -0.97816626479693669      -0.97816626054457889       -4.2523577992170658E-009 F
     orb,it,eci,eold,eci-eold=                    1                   24 -0.97816626479693669      -0.97816626479693669        0.0000000000000000      F
     orbital   1 current e= -0.137163E+00 error=0.130E-04 (eci= -0.978166265E+00 error=0.000E+00) iterations  24(   0 preconditioned, Ep,Sp= 20.0  200.0)
     orb,it,eci,eold,eci-eold=                    1                    1 -0.97816626631609560      -0.97816626399144946       -2.3246461422488096E-009 F
     orb,it,eci,eold,eci-eold=                    1                    2 -0.97816626631609560      -0.97816626631609560        0.0000000000000000      F
     orbital   1 current e= -0.137162E+00 error=0.304E-06 (eci= -0.978166266E+00 error=0.000E+00) iterations   2(   0 preconditioned, Ep,Sp= 20.0  200.0)
     orb,it,eci,eold,eci-eold=                    2                    1 -0.81664147845031332      -0.81614495693455891       -4.9652151575441117E-004 F
     orb,it,eci,eold,eci-eold=                    2                    2 -0.81665766435025933      -0.81664147845031332       -1.6185899946008497E-005 F
     orb,it,eci,eold,eci-eold=                    2                    3 -0.81667284835397325      -0.81665766435025933       -1.5184003713919481E-005 F
     orb,it,eci,eold,eci-eold=                    2                    4 -0.81678836996420179      -0.81667284835397325       -1.1552161022854168E-004 F
     orb,it,eci,eold,eci-eold=                    2                    5 -0.81688164306707456      -0.81678836996420179       -9.3273102872770686E-005 F
     orb,it,eci,eold,eci-eold=                    2                    6 -0.81688779976934600      -0.81688164306707456       -6.1567022714426045E-006 F
     orb,it,eci,eold,eci-eold=                    2                    7 -0.81688936478618102      -0.81688779976934600       -1.5650168350145321E-006 F
     orb,it,eci,eold,eci-eold=                    2                    8 -0.81693263972907904      -0.81688936478618102       -4.3274942898019475E-005 F
     orb,it,eci,eold,eci-eold=                    2                    9 -0.81698775110562727      -0.81693263972907904       -5.5111376548233615E-005 F
     orb,it,eci,eold,eci-eold=                    2                   10 -0.81703777069201500      -0.81698775110562727       -5.0019586387728410E-005 F
     orb,it,eci,eold,eci-eold=                    2                   11 -0.81705410190007377      -0.81703777069201500       -1.6331208058772972E-005 F
     orb,it,eci,eold,eci-eold=                    2                   12 -0.81706272783880141      -0.81705410190007377       -8.6259387276355071E-006 F
     orb,it,eci,eold,eci-eold=                    2                   13 -0.81712812295526949      -0.81706272783880141       -6.5395116468081049E-005 F
     orb,it,eci,eold,eci-eold=                    2                   14 -0.81716795668180819      -0.81712812295526949       -3.9833726538707204E-005 F
     orb,it,eci,eold,eci-eold=                    2                   15 -0.81719045979136740      -0.81716795668180819       -2.2503109559202095E-005 F
     orb,it,eci,eold,eci-eold=                    2                   16 -0.81720240901049213      -0.81719045979136740       -1.1949219124729460E-005 F
     orb,it,eci,eold,eci-eold=                    2                   17 -0.81723894652384788      -0.81720240901049213       -3.6537513355749951E-005 F
     orb,it,eci,eold,eci-eold=                    2                   18 -0.81726055529603381      -0.81723894652384788       -2.1608772185932601E-005 F
     orb,it,eci,eold,eci-eold=                    2                   19 -0.81727432476629380      -0.81726055529603381       -1.3769470259994421E-005 F
     orb,it,eci,eold,eci-eold=                    2                   20 -0.81728081791727725      -0.81727432476629380       -6.4931509834442735E-006 F
     orb,it,eci,eold,eci-eold=                    2                   21 -0.81730548170595196      -0.81728081791727725       -2.4663788674716969E-005 F
     orb,it,eci,eold,eci-eold=                    2                   22 -0.81730748886229254      -0.81730548170595196       -2.0071563405776871E-006 F
     orb,it,eci,eold,eci-eold=                    2                   23 -0.81730777081695893      -0.81730748886229254       -2.8195466639235889E-007 F
     orb,it,eci,eold,eci-eold=                    2                   24 -0.81732112675180713      -0.81730777081695893       -1.3355934848191531E-005 F
     orb,it,eci,eold,eci-eold=                    2                   25 -0.81732195294207544      -0.81732112675180713       -8.2619026831043385E-007 F
     orb,it,eci,eold,eci-eold=                    2                   26 -0.81732307097801593      -0.81732195294207544       -1.1180359404949769E-006 F
     orb,it,eci,eold,eci-eold=                    2                   27 -0.81733384497198946      -0.81732307097801593       -1.0773993973534068E-005 F
     orb,it,eci,eold,eci-eold=                    2                   28 -0.81733867792197490      -0.81733384497198946       -4.8329499854338209E-006 F
     orb,it,eci,eold,eci-eold=                    2                   29 -0.81734348797456280      -0.81733867792197490       -4.8100525879002376E-006 F
     orb,it,eci,eold,eci-eold=                    2                   30 -0.81734672239933970      -0.81734348797456280       -3.2344247768989476E-006 F
     orb,it,eci,eold,eci-eold=                    2                   31 -0.81735226410975792      -0.81734672239933970       -5.5417104182220456E-006 F
     orb,it,eci,eold,eci-eold=                    2                   32 -0.81735253266866736      -0.81735226410975792       -2.6855890944421645E-007 F
     orb,it,eci,eold,eci-eold=                    2                   33 -0.81735327122124446      -0.81735253266866736       -7.3855257709531941E-007 F
     orb,it,eci,eold,eci-eold=                    2                   34 -0.81735759447086509      -0.81735327122124446       -4.3232496206302429E-006 F
     orb,it,eci,eold,eci-eold=                    2                   35 -0.81735840669942295      -0.81735759447086509       -8.1222855785600956E-007 F
     orb,it,eci,eold,eci-eold=                    2                   36 -0.81735849410241079      -0.81735840669942295       -8.7402987847262636E-008 F
     orb,it,eci,eold,eci-eold=                    2                   37 -0.81736223247541817      -0.81735849410241079       -3.7383730073781152E-006 F
     orb,it,eci,eold,eci-eold=                    2                   38 -0.81736475276084719      -0.81736223247541817       -2.5202854290196086E-006 F
     orb,it,eci,eold,eci-eold=                    2                   39 -0.81736543801255035      -0.81736475276084719       -6.8525170315858475E-007 F
     orb,it,eci,eold,eci-eold=                    2                   40 -0.81736830194665910      -0.81736543801255035       -2.8639341087544068E-006 F
     orb,it,eci,eold,eci-eold=                    2                   41 -0.81736880500063913      -0.81736830194665910       -5.0305398002770119E-007 F
     orb,it,eci,eold,eci-eold=                    2                   42 -0.81736887713503337      -0.81736880500063913       -7.2134394235590094E-008 F
     orb,it,eci,eold,eci-eold=                    2                   43 -0.81737123703638614      -0.81736887713503337       -2.3599013527775270E-006 F
     orb,it,eci,eold,eci-eold=                    2                   44 -0.81737270798186523      -0.81737123703638614       -1.4709454790873266E-006 F
     orb,it,eci,eold,eci-eold=                    2                   45 -0.81737316245311264      -0.81737270798186523       -4.5447124741304634E-007 F
     orb,it,eci,eold,eci-eold=                    2                   46 -0.81737489039225730      -0.81737316245311264       -1.7279391446578529E-006 F
     orb,it,eci,eold,eci-eold=                    2                   47 -0.81737509794744490      -0.81737489039225730       -2.0755518759241198E-007 F
     orb,it,eci,eold,eci-eold=                    2                   48 -0.81737517993283304      -0.81737509794744490       -8.1985388145078275E-008 F
     orb,it,eci,eold,eci-eold=                    2                   49 -0.81737676731739328      -0.81737517993283304       -1.5873845602421000E-006 F
     orb,it,eci,eold,eci-eold=                    2                   50 -0.81737755497425102      -0.81737676731739328       -7.8765685773696248E-007 F
     orb,it,eci,eold,eci-eold=                    2                   51 -0.81737769579674713      -0.81737755497425102       -1.4082249610858355E-007 F
     orb,it,eci,eold,eci-eold=                    2                   52 -0.81737879176237560      -0.81737769579674713       -1.0959656284725838E-006 F
     orb,it,eci,eold,eci-eold=                    2                   53 -0.81737931037074241      -0.81737879176237560       -5.1860836680628353E-007 F
     orb,it,eci,eold,eci-eold=                    2                   54 -0.81737954393065104      -0.81737931037074241       -2.3355990863560550E-007 F
     orb,it,eci,eold,eci-eold=                    2                   55 -0.81738056086286193      -0.81737954393065104       -1.0169322108843915E-006 F
     orb,it,eci,eold,eci-eold=                    2                   56 -0.81738088568796075      -0.81738056086286193       -3.2482509881859301E-007 F
     orb,it,eci,eold,eci-eold=                    2                   57 -0.81738100499633837      -0.81738088568796075       -1.1930837762186286E-007 F
     orb,it,eci,eold,eci-eold=                    2                   58 -0.81738181195313553      -0.81738100499633837       -8.0695679716136226E-007 F
     orb,it,eci,eold,eci-eold=                    2                   59 -0.81738207928831952      -0.81738181195313553       -2.6733518398991407E-007 F
     orb,it,eci,eold,eci-eold=                    2                   60 -0.81738215501847078      -0.81738207928831952       -7.5730151261055312E-008 F
     orb,it,eci,eold,eci-eold=                    2                   61 -0.81738285319730319      -0.81738215501847078       -6.9817883241451995E-007 F
     orb,it,eci,eold,eci-eold=                    2                   62 -0.81738313995832113      -0.81738285319730319       -2.8676101793134734E-007 F
     orb,it,eci,eold,eci-eold=                    2                   63 -0.81738319680607152      -0.81738313995832113       -5.6847750395938590E-008 F
     orb,it,eci,eold,eci-eold=                    2                   64 -0.81738374362152377      -0.81738319680607152       -5.4681545225143680E-007 F
     orb,it,eci,eold,eci-eold=                    2                   65 -0.81738398132662948      -0.81738374362152377       -2.3770510571008430E-007 F
     orb,it,eci,eold,eci-eold=                    2                   66 -0.81738403338854670      -0.81738398132662948       -5.2061917221735143E-008 F
     orb,it,eci,eold,eci-eold=                    2                   67 -0.81738441204086421      -0.81738403338854670       -3.7865231750089379E-007 F
     orb,it,eci,eold,eci-eold=                    2                   68 -0.81738454151521300      -0.81738441204086421       -1.2947434879784225E-007 F
     orb,it,eci,eold,eci-eold=                    2                   69 -0.81738458949409187      -0.81738454151521300       -4.7978878869869845E-008 F
     orb,it,eci,eold,eci-eold=                    2                   70 -0.81738489664107328      -0.81738458949409187       -3.0714698140421604E-007 F
     orb,it,eci,eold,eci-eold=                    2                   71 -0.81738498323392439      -0.81738489664107328       -8.6592851111788605E-008 F
     orb,it,eci,eold,eci-eold=                    2                   72 -0.81738500944366610      -0.81738498323392439       -2.6209741710303547E-008 F
     orb,it,eci,eold,eci-eold=                    2                   73 -0.81738527447252607      -0.81738500944366610       -2.6502885996926295E-007 F
     orb,it,eci,eold,eci-eold=                    2                   74 -0.81738537946034251      -0.81738527447252607       -1.0498781644052713E-007 F
     orb,it,eci,eold,eci-eold=                    2                   75 -0.81738540075748167      -0.81738537946034251       -2.1297139163323209E-008 F
     orb,it,eci,eold,eci-eold=                    2                   76 -0.81738562479237875      -0.81738540075748167       -2.2403489707834012E-007 F
     orb,it,eci,eold,eci-eold=                    2                   77 -0.81738574621446014      -0.81738562479237875       -1.2142208138943289E-007 F
     orb,it,eci,eold,eci-eold=                    2                   78 -0.81738578309100252      -0.81738574621446014       -3.6876542375274823E-008 F
     orb,it,eci,eold,eci-eold=                    2                   79 -0.81738597059387896      -0.81738578309100252       -1.8750287644753172E-007 F
     orb,it,eci,eold,eci-eold=                    2                   80 -0.81738602650274572      -0.81738597059387896       -5.5908866758436204E-008 F
     orb,it,eci,eold,eci-eold=                    2                   81 -0.81738604026304573      -0.81738602650274572       -1.3760300010545734E-008 F
     orb,it,eci,eold,eci-eold=                    2                   82 -0.81738619732939310      -0.81738604026304573       -1.5706634737266967E-007 F
     orb,it,eci,eold,eci-eold=                    2                   83 -0.81738626278756144      -0.81738619732939310       -6.5458168330145838E-008 F
     orb,it,eci,eold,eci-eold=                    2                   84 -0.81738627414131404      -0.81738626278756144       -1.1353752604748024E-008 F
     orb,it,eci,eold,eci-eold=                    2                   85 -0.81738639590936413      -0.81738627414131404       -1.2176805008756730E-007 F
     orb,it,eci,eold,eci-eold=                    2                   86 -0.81738645090912687      -0.81738639590936413       -5.4999762744145642E-008 F
     orb,it,eci,eold,eci-eold=                    2                   87 -0.81738646572348106      -0.81738645090912687       -1.4814354187819845E-008 F
     orb,it,eci,eold,eci-eold=                    2                   88 -0.81738656475663785      -0.81738646572348106       -9.9033156786276777E-008 F
     orb,it,eci,eold,eci-eold=                    2                   89 -0.81738659879916198      -0.81738656475663785       -3.4042524132971153E-008 F
     orb,it,eci,eold,eci-eold=                    2                   90 -0.81738660697022736      -0.81738659879916198       -8.1710653798694466E-009 F
     orb,it,eci,eold,eci-eold=                    2                   91 -0.81738668364012912      -0.81738660697022736       -7.6669901760695325E-008 F
     orb,it,eci,eold,eci-eold=                    2                   92 -0.81738671488564552      -0.81738668364012912       -3.1245516396438688E-008 F
     orb,it,eci,eold,eci-eold=                    2                   93 -0.81738672466831075      -0.81738671488564552       -9.7826652334376263E-009 F
     orb,it,eci,eold,eci-eold=                    2                   94 -0.81738679135351044      -0.81738672466831075       -6.6685199695548647E-008 F
     orb,it,eci,eold,eci-eold=                    2                   95 -0.81738681356449605      -0.81738679135351044       -2.2210985606285760E-008 F
     orb,it,eci,eold,eci-eold=                    2                   96 -0.81738681702999727      -0.81738681356449605       -3.4655012193240964E-009 F
     orb,it,eci,eold,eci-eold=                    2                   97 -0.81738686491344437      -0.81738681702999727       -4.7883447096275233E-008 F
     orb,it,eci,eold,eci-eold=                    2                   98 -0.81738688389627923      -0.81738686491344437       -1.8982834859571085E-008 F
     orb,it,eci,eold,eci-eold=                    2                   99 -0.81738688810101645      -0.81738688389627923       -4.2047372250664239E-009 F
     orb,it,eci,eold,eci-eold=                    2                  100 -0.81738692582339190      -0.81738688810101645       -3.7722375445525813E-008 F
     orb,it,eci,eold,eci-eold=                    2                  101 -0.81738694504278508      -0.81738692582339190       -1.9219393188052436E-008 F
     orb,it,eci,eold,eci-eold=                    2                  102 -0.81738695324531840      -0.81738694504278508       -8.2025333192348171E-009 F
     orb,it,eci,eold,eci-eold=                    2                  103 -0.81738698939919363      -0.81738695324531840       -3.6153875226929699E-008 F
     orb,it,eci,eold,eci-eold=                    2                  104 -0.81738700153517241      -0.81738698939919363       -1.2135978777472189E-008 F
     orb,it,eci,eold,eci-eold=                    2                  105 -0.81738700578364343      -0.81738700153517241       -4.2484710194301556E-009 F
     orb,it,eci,eold,eci-eold=                    2                  106 -0.81738703702455373      -0.81738700578364343       -3.1240910303154124E-008 F
     orb,it,eci,eold,eci-eold=                    2                  107 -0.81738704654790040      -0.81738703702455373       -9.5233466668176447E-009 F
     orb,it,eci,eold,eci-eold=                    2                  108 -0.81738704683477370      -0.81738704654790040       -2.8687330289045576E-010 F
     orbital   2 current e=  0.349590E+00 error=0.969E-01 (eci= -0.817387047E+00 error=0.287E-09) iterations 108(   0 preconditioned, Ep,Sp= 20.0  200.0)
     orb,it,eci,eold,eci-eold=                    2                    1 -0.81738711516543561      -0.81738704683477370       -6.8330661906479406E-008 F
     orb,it,eci,eold,eci-eold=                    2                    2 -0.81738714585488337      -0.81738711516543561       -3.0689447760856581E-008 F
     orb,it,eci,eold,eci-eold=                    2                    3 -0.81738714754509667      -0.81738714585488337       -1.6902133026519550E-009 F
     orb,it,eci,eold,eci-eold=                    2                    4 -0.81738716545113710      -0.81738714754509667       -1.7906040428172787E-008 F
     orb,it,eci,eold,eci-eold=                    2                    5 -0.81738717399137761      -0.81738716545113710       -8.5402405147760874E-009 F
     orb,it,eci,eold,eci-eold=                    2                    6 -0.81738717790245641      -0.81738717399137761       -3.9110787941609715E-009 F
     orb,it,eci,eold,eci-eold=                    2                    7 -0.81738719400394810      -0.81738717790245641       -1.6101491695508230E-008 F
     orb,it,eci,eold,eci-eold=                    2                    8 -0.81738720167129109      -0.81738719400394810       -7.6673429827422979E-009 F
     orb,it,eci,eold,eci-eold=                    2                    9 -0.81738720384363472      -0.81738720167129109       -2.1723436383069838E-009 F
     orb,it,eci,eold,eci-eold=                    2                   10 -0.81738720512507035      -0.81738720384363472       -1.2814356242785152E-009 F
     orb,it,eci,eold,eci-eold=                    2                   11 -0.81738721209820919      -0.81738720512507035       -6.9731388441240938E-009 F
     orb,it,eci,eold,eci-eold=                    2                   12 -0.81738721504657508      -0.81738721209820919       -2.9483658847695438E-009 F
     orb,it,eci,eold,eci-eold=                    2                   13 -0.81738721599739894      -0.81738721504657508       -9.5082386408762432E-010 F
     orbital   2 current e=  0.349634E+00 error=0.440E-04 (eci= -0.817387216E+00 error=0.951E-09) iterations  13(   0 preconditioned, Ep,Sp= 20.0  200.0)
     orb,it,eci,eold,eci-eold=                    2                    1 -0.81738721909706036      -0.81738721599739894       -3.0996614164280345E-009 F
     orb,it,eci,eold,eci-eold=                    2                    2 -0.81738721909706036      -0.81738721909706036        0.0000000000000000      F
     orbital   2 current e=  0.349640E+00 error=0.552E-05 (eci= -0.817387219E+00 error=0.000E+00) iterations   2(   0 preconditioned, Ep,Sp= 20.0  200.0)
     orb,it,eci,eold,eci-eold=                    3                    1 -0.81491041932392105      -0.81485655569920501       -5.3863624716044001E-005 F
     orb,it,eci,eold,eci-eold=                    3                    2 -0.81494648101865375      -0.81491041932392105       -3.6061694732691940E-005 F
     orb,it,eci,eold,eci-eold=                    3                    3 -0.81497875962404265      -0.81494648101865375       -3.2278605388902371E-005 F
     orb,it,eci,eold,eci-eold=                    3                    4 -0.81499820937421730      -0.81497875962404265       -1.9449750174649338E-005 F
     orb,it,eci,eold,eci-eold=                    3                    5 -0.81508883815668676      -0.81499820937421730       -9.0628782469459601E-005 F
     orb,it,eci,eold,eci-eold=                    3                    6 -0.81513739179248557      -0.81508883815668676       -4.8553635798809225E-005 F
     orb,it,eci,eold,eci-eold=                    3                    7 -0.81515740505982659      -0.81513739179248557       -2.0013267341023599E-005 F
     orb,it,eci,eold,eci-eold=                    3                    8 -0.81516768973565434      -0.81515740505982659       -1.0284675827754164E-005 F
     orb,it,eci,eold,eci-eold=                    3                    9 -0.81520758572133167      -0.81516768973565434       -3.9895985677329548E-005 F
     orb,it,eci,eold,eci-eold=                    3                   10 -0.81523012784463411      -0.81520758572133167       -2.2542123302438100E-005 F
     orb,it,eci,eold,eci-eold=                    3                   11 -0.81524671791912617      -0.81523012784463411       -1.6590074492062179E-005 F
     orb,it,eci,eold,eci-eold=                    3                   12 -0.81525619781457392      -0.81524671791912617       -9.4798954477504083E-006 F
     orb,it,eci,eold,eci-eold=                    3                   13 -0.81528041603302315      -0.81525619781457392       -2.4218218449223450E-005 F
     orb,it,eci,eold,eci-eold=                    3                   14 -0.81529449693780442      -0.81528041603302315       -1.4080904781277326E-005 F
     orb,it,eci,eold,eci-eold=                    3                   15 -0.81530472824072842      -0.81529449693780442       -1.0231302923990881E-005 F
     orb,it,eci,eold,eci-eold=                    3                   16 -0.81530900852939125      -0.81530472824072842       -4.2802886628390269E-006 F
     orb,it,eci,eold,eci-eold=                    3                   17 -0.81532188159606045      -0.81530900852939125       -1.2873066669194522E-005 F
     orb,it,eci,eold,eci-eold=                    3                   18 -0.81532445575835344      -0.81532188159606045       -2.5741622929897900E-006 F
     orb,it,eci,eold,eci-eold=                    3                   19 -0.81532549063431048      -0.81532445575835344       -1.0348759570399935E-006 F
     orb,it,eci,eold,eci-eold=                    3                   20 -0.81533328103096658      -0.81532549063431048       -7.7903966561043703E-006 F
     orb,it,eci,eold,eci-eold=                    3                   21 -0.81533557244090804      -0.81533328103096658       -2.2914099414572675E-006 F
     orb,it,eci,eold,eci-eold=                    3                   22 -0.81533693059632695      -0.81533557244090804       -1.3581554189068257E-006 F
     orb,it,eci,eold,eci-eold=                    3                   23 -0.81534395833862217      -0.81533693059632695       -7.0277422952180757E-006 F
     orb,it,eci,eold,eci-eold=                    3                   24 -0.81534602384914745      -0.81534395833862217       -2.0655105252842532E-006 F
     orb,it,eci,eold,eci-eold=                    3                   25 -0.81534699181742343      -0.81534602384914745       -9.6796827597778190E-007 F
     orb,it,eci,eold,eci-eold=                    3                   26 -0.81535357561685595      -0.81534699181742343       -6.5837994325246285E-006 F
     orb,it,eci,eold,eci-eold=                    3                   27 -0.81535531878198020      -0.81535357561685595       -1.7431651242461044E-006 F
     orb,it,eci,eold,eci-eold=                    3                   28 -0.81535591015209796      -0.81535531878198020       -5.9137011776400072E-007 F
     orb,it,eci,eold,eci-eold=                    3                   29 -0.81536210922427566      -0.81535591015209796       -6.1990721776927771E-006 F
     orb,it,eci,eold,eci-eold=                    3                   30 -0.81536511931301903      -0.81536210922427566       -3.0100887433714973E-006 F
     orb,it,eci,eold,eci-eold=                    3                   31 -0.81536699033140514      -0.81536511931301903       -1.8710183861125884E-006 F
     orb,it,eci,eold,eci-eold=                    3                   32 -0.81536784157668296      -0.81536699033140514       -8.5124527782198811E-007 F
     orb,it,eci,eold,eci-eold=                    3                   33 -0.81537013114409285      -0.81536784157668296       -2.2895674098855068E-006 F
     orb,it,eci,eold,eci-eold=                    3                   34 -0.81537043997865666      -0.81537013114409285       -3.0883456381136654E-007 F
     orb,it,eci,eold,eci-eold=                    3                   35 -0.81537072982439263      -0.81537043997865666       -2.8984573596790852E-007 F
     orb,it,eci,eold,eci-eold=                    3                   36 -0.81537284521794584      -0.81537072982439263       -2.1153935532147727E-006 F
     orb,it,eci,eold,eci-eold=                    3                   37 -0.81537373769034283      -0.81537284521794584       -8.9247239698497793E-007 F
     orb,it,eci,eold,eci-eold=                    3                   38 -0.81537403888127957      -0.81537373769034283       -3.0119093674674247E-007 F
     orb,it,eci,eold,eci-eold=                    3                   39 -0.81537597248384519      -0.81537403888127957       -1.9336025656180311E-006 F
     orb,it,eci,eold,eci-eold=                    3                   40 -0.81537691459648243      -0.81537597248384519       -9.4211263723664729E-007 F
     orb,it,eci,eold,eci-eold=                    3                   41 -0.81537721397701080      -0.81537691459648243       -2.9938052836797624E-007 F
     orb,it,eci,eold,eci-eold=                    3                   42 -0.81537879692591375      -0.81537721397701080       -1.5829489029561827E-006 F
     orb,it,eci,eold,eci-eold=                    3                   43 -0.81537944566101705      -0.81537879692591375       -6.4873510330354378E-007 F
     orb,it,eci,eold,eci-eold=                    3                   44 -0.81537969721333681      -0.81537944566101705       -2.5155231975215742E-007 F
     orb,it,eci,eold,eci-eold=                    3                   45 -0.81538103612873147      -0.81537969721333681       -1.3389153946663512E-006 F
     orb,it,eci,eold,eci-eold=                    3                   46 -0.81538148296941615      -0.81538103612873147       -4.4684068467581994E-007 F
     orb,it,eci,eold,eci-eold=                    3                   47 -0.81538163742915781      -0.81538148296941615       -1.5445974166361509E-007 F
     orb,it,eci,eold,eci-eold=                    3                   48 -0.81538273510763992      -0.81538163742915781       -1.0976784821092878E-006 F
     orb,it,eci,eold,eci-eold=                    3                   49 -0.81538302512945737      -0.81538273510763992       -2.9002181745063638E-007 F
     orb,it,eci,eold,eci-eold=                    3                   50 -0.81538305271327594      -0.81538302512945737       -2.7583818562604279E-008 F
     orb,it,eci,eold,eci-eold=                    3                   51 -0.81538384881694714      -0.81538305271327594       -7.9610367120785952E-007 F
     orb,it,eci,eold,eci-eold=                    3                   52 -0.81538419860605993      -0.81538384881694714       -3.4978911278571445E-007 F
     orb,it,eci,eold,eci-eold=                    3                   53 -0.81538428356901949      -0.81538419860605993       -8.4962959556733608E-008 F
     orb,it,eci,eold,eci-eold=                    3                   54 -0.81538491387697509      -0.81538428356901949       -6.3030795560692354E-007 F
     orb,it,eci,eold,eci-eold=                    3                   55 -0.81538512123803608      -0.81538491387697509       -2.0736106098873108E-007 F
     orb,it,eci,eold,eci-eold=                    3                   56 -0.81538517946527267      -0.81538512123803608       -5.8227236587882203E-008 F
     orb,it,eci,eold,eci-eold=                    3                   57 -0.81538569309216125      -0.81538517946527267       -5.1362688857636840E-007 F
     orb,it,eci,eold,eci-eold=                    3                   58 -0.81538586277407898      -0.81538569309216125       -1.6968191773880648E-007 F
     orb,it,eci,eold,eci-eold=                    3                   59 -0.81538590365272401      -0.81538586277407898       -4.0878645024555738E-008 F
     orb,it,eci,eold,eci-eold=                    3                   60 -0.81538636286090060      -0.81538590365272401       -4.5920817659528268E-007 F
     orb,it,eci,eold,eci-eold=                    3                   61 -0.81538655429192897      -0.81538636286090060       -1.9143102836238768E-007 F
     orb,it,eci,eold,eci-eold=                    3                   62 -0.81538658954524257      -0.81538655429192897       -3.5253313601657510E-008 F
     orb,it,eci,eold,eci-eold=                    3                   63 -0.81538698631563888      -0.81538658954524257       -3.9677039631591526E-007 F
     orb,it,eci,eold,eci-eold=                    3                   64 -0.81538716890352680      -0.81538698631563888       -1.8258788792024916E-007 F
     orb,it,eci,eold,eci-eold=                    3                   65 -0.81538720883930682      -0.81538716890352680       -3.9935780016264744E-008 F
     orb,it,eci,eold,eci-eold=                    3                   66 -0.81538756025405612      -0.81538720883930682       -3.5141474930000527E-007 F
     orb,it,eci,eold,eci-eold=                    3                   67 -0.81538770362547930      -0.81538756025405612       -1.4337142317799589E-007 F
     orb,it,eci,eold,eci-eold=                    3                   68 -0.81538772651795233      -0.81538770362547930       -2.2892473028335303E-008 F
     orb,it,eci,eold,eci-eold=                    3                   69 -0.81538799199509215      -0.81538772651795233       -2.6547713982694177E-007 F
     orb,it,eci,eold,eci-eold=                    3                   70 -0.81538806988421686      -0.81538799199509215       -7.7889124705521340E-008 F
     orb,it,eci,eold,eci-eold=                    3                   71 -0.81538807094491328      -0.81538806988421686       -1.0606964195858382E-009 F
     orb,it,eci,eold,eci-eold=                    3                   72 -0.81538826094299155      -0.81538807094491328       -1.8999807827047022E-007 F
     orb,it,eci,eold,eci-eold=                    3                   73 -0.81538836713915841      -0.81538826094299155       -1.0619616686025068E-007 F
     orb,it,eci,eold,eci-eold=                    3                   74 -0.81538840729725548      -0.81538836713915841       -4.0158097069920018E-008 F
     orb,it,eci,eold,eci-eold=                    3                   75 -0.81538859522794116      -0.81538840729725548       -1.8793068568001559E-007 F
     orb,it,eci,eold,eci-eold=                    3                   76 -0.81538866618869221      -0.81538859522794116       -7.0960751052950855E-008 F
     orb,it,eci,eold,eci-eold=                    3                   77 -0.81538869166579153      -0.81538866618869221       -2.5477099319104468E-008 F
     orb,it,eci,eold,eci-eold=                    3                   78 -0.81538884224391994      -0.81538869166579153       -1.5057812841057228E-007 F
     orb,it,eci,eold,eci-eold=                    3                   79 -0.81538887801137738      -0.81538884224391994       -3.5767457440272210E-008 F
     orb,it,eci,eold,eci-eold=                    3                   80 -0.81538888148297617      -0.81538887801137738       -3.4715987862199427E-009 F
     orb,it,eci,eold,eci-eold=                    3                   81 -0.81538898762622392      -0.81538888148297617       -1.0614324774671502E-007 F
     orb,it,eci,eold,eci-eold=                    3                   82 -0.81538902204069885      -0.81538898762622392       -3.4414474936461659E-008 F
     orb,it,eci,eold,eci-eold=                    3                   83 -0.81538902562074322      -0.81538902204069885       -3.5800443720646058E-009 F
     orb,it,eci,eold,eci-eold=                    3                   84 -0.81538911149575943      -0.81538902562074322       -8.5875016209158161E-008 F
     orb,it,eci,eold,eci-eold=                    3                   85 -0.81538914647354188      -0.81538911149575943       -3.4977782448208927E-008 F
     orb,it,eci,eold,eci-eold=                    3                   86 -0.81538915129219269      -0.81538914647354188       -4.8186508116998539E-009 F
     orb,it,eci,eold,eci-eold=                    3                   87 -0.81538921808683007      -0.81538915129219269       -6.6794637376688115E-008 F
     orb,it,eci,eold,eci-eold=                    3                   88 -0.81538924761162024      -0.81538921808683007       -2.9524790168267145E-008 F
     orb,it,eci,eold,eci-eold=                    3                   89 -0.81538925584067434      -0.81538924761162024       -8.2290541048024579E-009 F
     orb,it,eci,eold,eci-eold=                    3                   90 -0.81538931652648383      -0.81538925584067434       -6.0685809488703057E-008 F
     orb,it,eci,eold,eci-eold=                    3                   91 -0.81538934316145228      -0.81538931652648383       -2.6634968453009833E-008 F
     orb,it,eci,eold,eci-eold=                    3                   92 -0.81538935104457422      -0.81538934316145228       -7.8831219330055546E-009 F
     orb,it,eci,eold,eci-eold=                    3                   93 -0.81538940359273082      -0.81538935104457422       -5.2548156603826612E-008 F
     orb,it,eci,eold,eci-eold=                    3                   94 -0.81538942185991514      -0.81538940359273082       -1.8267184320741592E-008 F
     orb,it,eci,eold,eci-eold=                    3                   95 -0.81538942595689234      -0.81538942185991514       -4.0969772019394668E-009 F
     orb,it,eci,eold,eci-eold=                    3                   96 -0.81538947123921579      -0.81538942595689234       -4.5282323446471651E-008 F
     orb,it,eci,eold,eci-eold=                    3                   97 -0.81538948938917999      -0.81538947123921579       -1.8149964198244106E-008 F
     orb,it,eci,eold,eci-eold=                    3                   98 -0.81538949226191781      -0.81538948938917999       -2.8727378253989855E-009 F
     orb,it,eci,eold,eci-eold=                    3                   99 -0.81538952888441507      -0.81538949226191781       -3.6622497256999509E-008 F
     orb,it,eci,eold,eci-eold=                    3                  100 -0.81538954139905839      -0.81538952888441507       -1.2514643321637209E-008 F
     orb,it,eci,eold,eci-eold=                    3                  101 -0.81538954178239786      -0.81538954139905839       -3.8333947127711099E-010 F
     orbital   3 current e=  0.383158E+00 error=0.582E-01 (eci= -0.815389542E+00 error=0.383E-09) iterations 101(   0 preconditioned, Ep,Sp= 20.0  200.0)
     orb,it,eci,eold,eci-eold=                    3                    1 -0.81538957677333568      -0.81538954178239786       -3.4990937813894618E-008 F
     orb,it,eci,eold,eci-eold=                    3                    2 -0.81538959621879870      -0.81538957677333568       -1.9445463017575548E-008 F
     orb,it,eci,eold,eci-eold=                    3                    3 -0.81538966135248592      -0.81538959621879870       -6.5133687221496928E-008 F
     orb,it,eci,eold,eci-eold=                    3                    4 -0.81538966999267859      -0.81538966135248592       -8.6401926724377631E-009 F
     orb,it,eci,eold,eci-eold=                    3                    5 -0.81538968661801670      -0.81538966999267859       -1.6625338106202037E-008 F
     orb,it,eci,eold,eci-eold=                    3                    6 -0.81538970363724061      -0.81538968661801670       -1.7019223919056969E-008 F
     orb,it,eci,eold,eci-eold=                    3                    7 -0.81538971374147451      -0.81538970363724061       -1.0104233894026038E-008 F
     orb,it,eci,eold,eci-eold=                    3                    8 -0.81538972501329710      -0.81538971374147451       -1.1271822586422786E-008 F
     orb,it,eci,eold,eci-eold=                    3                    9 -0.81538973143324456      -0.81538972501329710       -6.4199474625326047E-009 F
     orb,it,eci,eold,eci-eold=                    3                   10 -0.81538973836534701      -0.81538973143324456       -6.9321024476209914E-009 F
     orb,it,eci,eold,eci-eold=                    3                   11 -0.81538974196969982      -0.81538973836534701       -3.6043528162110761E-009 F
     orb,it,eci,eold,eci-eold=                    3                   12 -0.81538974490003058      -0.81538974196969982       -2.9303307558237179E-009 F
     orb,it,eci,eold,eci-eold=                    3                   13 -0.81538974490003058      -0.81538974490003058        0.0000000000000000      F
     orbital   3 current e=  0.383342E+00 error=0.184E-03 (eci= -0.815389745E+00 error=0.000E+00) iterations  13(   0 preconditioned, Ep,Sp= 20.0  200.0)
     orb,it,eci,eold,eci-eold=                    3                    1 -0.81538974817054766      -0.81538974405697884       -4.1135688189086750E-009 F
     orb,it,eci,eold,eci-eold=                    3                    2 -0.81538975022465898      -0.81538974817054766       -2.0541113254779475E-009 F
     orb,it,eci,eold,eci-eold=                    3                    3 -0.81538975067825659      -0.81538975022465898       -4.5359760392216231E-010 F
     orbital   3 current e=  0.383359E+00 error=0.161E-04 (eci= -0.815389751E+00 error=0.454E-09) iterations   3(   0 preconditioned, Ep,Sp= 20.0  200.0)
     orb,it,eci,eold,eci-eold=                    4                    1 -0.81469751605129603      -0.81460090569104149       -9.6610360254545391E-005 F
     orb,it,eci,eold,eci-eold=                    4                    2 -0.81470612625227345      -0.81469751605129603       -8.6102009774213784E-006 F
     orb,it,eci,eold,eci-eold=                    4                    3 -0.81474845429816756      -0.81470612625227345       -4.2328045894102218E-005 F
     orb,it,eci,eold,eci-eold=                    4                    4 -0.81478187754101983      -0.81474845429816756       -3.3423242852270718E-005 F
     orb,it,eci,eold,eci-eold=                    4                    5 -0.81478797577764095      -0.81478187754101983       -6.0982366211215222E-006 F
     orb,it,eci,eold,eci-eold=                    4                    6 -0.81478992467504019      -0.81478797577764095       -1.9488973992398684E-006 F
     orb,it,eci,eold,eci-eold=                    4                    7 -0.81481824024284610      -0.81478992467504019       -2.8315567805914377E-005 F
     orb,it,eci,eold,eci-eold=                    4                    8 -0.81482879079468928      -0.81481824024284610       -1.0550551843180322E-005 F
     orb,it,eci,eold,eci-eold=                    4                    9 -0.81483908157274931      -0.81482879079468928       -1.0290778060029204E-005 F
     orb,it,eci,eold,eci-eold=                    4                   10 -0.81484411217965758      -0.81483908157274931       -5.0306069082628468E-006 F
     orb,it,eci,eold,eci-eold=                    4                   11 -0.81484910949732170      -0.81484411217965758       -4.9973176641238126E-006 F
     orb,it,eci,eold,eci-eold=                    4                   12 -0.81485473693118493      -0.81484910949732170       -5.6274338632311682E-006 F
     orb,it,eci,eold,eci-eold=                    4                   13 -0.81485524490818673      -0.81485473693118493       -5.0797700179572303E-007 F
     orb,it,eci,eold,eci-eold=                    4                   14 -0.81485687909461690      -0.81485524490818673       -1.6341864301772091E-006 F
     orb,it,eci,eold,eci-eold=                    4                   15 -0.81486151200415902      -0.81485687909461690       -4.6329095421127064E-006 F
     orb,it,eci,eold,eci-eold=                    4                   16 -0.81486761414615039      -0.81486151200415902       -6.1021419913709352E-006 F
     orb,it,eci,eold,eci-eold=                    4                   17 -0.81487133988642135      -0.81486761414615039       -3.7257402709656162E-006 F
     orb,it,eci,eold,eci-eold=                    4                   18 -0.81487948070994998      -0.81487133988642135       -8.1408235286239972E-006 F
     orb,it,eci,eold,eci-eold=                    4                   19 -0.81488030998955607      -0.81487948070994998       -8.2927960609602280E-007 F
     orb,it,eci,eold,eci-eold=                    4                   20 -0.81488049341361191      -0.81488030998955607       -1.8342405583293697E-007 F
     orb,it,eci,eold,eci-eold=                    4                   21 -0.81488492819448843      -0.81488049341361191       -4.4347808765277108E-006 F
     orb,it,eci,eold,eci-eold=                    4                   22 -0.81488691550099179      -0.81488492819448843       -1.9873065033593207E-006 F
     orb,it,eci,eold,eci-eold=                    4                   23 -0.81488778849465149      -0.81488691550099179       -8.7299365969517595E-007 F
     orb,it,eci,eold,eci-eold=                    4                   24 -0.81489172549480293      -0.81488778849465149       -3.9370001514438258E-006 F
     orb,it,eci,eold,eci-eold=                    4                   25 -0.81489334648140166      -0.81489172549480293       -1.6209865987271144E-006 F
     orb,it,eci,eold,eci-eold=                    4                   26 -0.81489420553096881      -0.81489334648140166       -8.5904956714788483E-007 F
     orb,it,eci,eold,eci-eold=                    4                   27 -0.81489735283385389      -0.81489420553096881       -3.1473028850870222E-006 F
     orb,it,eci,eold,eci-eold=                    4                   28 -0.81489949421694230      -0.81489735283385389       -2.1413830884053908E-006 F
     orb,it,eci,eold,eci-eold=                    4                   29 -0.81490147875355001      -0.81489949421694230       -1.9845366077131388E-006 F
     orb,it,eci,eold,eci-eold=                    4                   30 -0.81490253241600985      -0.81490147875355001       -1.0536624598378452E-006 F
     orb,it,eci,eold,eci-eold=                    4                   31 -0.81490490918102831      -0.81490253241600985       -2.3767650184636224E-006 F
     orb,it,eci,eold,eci-eold=                    4                   32 -0.81490621869152591      -0.81490490918102831       -1.3095104975935357E-006 F
     orb,it,eci,eold,eci-eold=                    4                   33 -0.81490720273677597      -0.81490621869152591       -9.8404525006312582E-007 F
     orb,it,eci,eold,eci-eold=                    4                   34 -0.81490765644491203      -0.81490720273677597       -4.5370813606115945E-007 F
     orb,it,eci,eold,eci-eold=                    4                   35 -0.81490883119573065      -0.81490765644491203       -1.1747508186221722E-006 F
     orb,it,eci,eold,eci-eold=                    4                   36 -0.81490910560516061      -0.81490883119573065       -2.7440942995671236E-007 F
     orb,it,eci,eold,eci-eold=                    4                   37 -0.81490924747315052      -0.81490910560516061       -1.4186798991122629E-007 F
     orb,it,eci,eold,eci-eold=                    4                   38 -0.81490999076425941      -0.81490924747315052       -7.4329110888449179E-007 F
     orb,it,eci,eold,eci-eold=                    4                   39 -0.81491011829243687      -0.81490999076425941       -1.2752817746264355E-007 F
     orb,it,eci,eold,eci-eold=                    4                   40 -0.81491019122316188      -0.81491011829243687       -7.2930725014686004E-008 F
     orb,it,eci,eold,eci-eold=                    4                   41 -0.81491092733881754      -0.81491019122316188       -7.3611565565290249E-007 F
     orb,it,eci,eold,eci-eold=                    4                   42 -0.81491132502824204      -0.81491092733881754       -3.9768942450280065E-007 F
     orb,it,eci,eold,eci-eold=                    4                   43 -0.81491143259601950      -0.81491132502824204       -1.0756777746312451E-007 F
     orb,it,eci,eold,eci-eold=                    4                   44 -0.81491194067542549      -0.81491143259601950       -5.0807940599195689E-007 F
     orb,it,eci,eold,eci-eold=                    4                   45 -0.81491213571535825      -0.81491194067542549       -1.9503993275993281E-007 F
     orb,it,eci,eold,eci-eold=                    4                   46 -0.81491223398462509      -0.81491213571535825       -9.8269266834982716E-008 F
     orb,it,eci,eold,eci-eold=                    4                   47 -0.81491265951180181      -0.81491223398462509       -4.2552717671728857E-007 F
     orb,it,eci,eold,eci-eold=                    4                   48 -0.81491280368595398      -0.81491265951180181       -1.4417415217238272E-007 F
     orb,it,eci,eold,eci-eold=                    4                   49 -0.81491288746760471      -0.81491280368595398       -8.3781650728198542E-008 F
     orb,it,eci,eold,eci-eold=                    4                   50 -0.81491329960068337      -0.81491288746760471       -4.1213307866438953E-007 F
     orb,it,eci,eold,eci-eold=                    4                   51 -0.81491333647274944      -0.81491329960068337       -3.6872066067061837E-008 F
     orb,it,eci,eold,eci-eold=                    4                   52 -0.81491335121712027      -0.81491333647274944       -1.4744370835373388E-008 F
[...]
   10    7   10   10       -0.0036916816
   10    7   11   10        0.0001316359
   10    7   12   10        0.0000001626
   10    7   13   10       -0.0000923668
   10    7   11   11       -0.0049659271
   10    7   12   11        0.0000067873
   10    7   13   11       -0.0067549049
   10    7   12   12        0.0029299809
   10    7   13   12       -0.0000115768
   10    7   13   13        0.0091957522
   11    7   11    7        0.0227672294
   11    7   12    7       -0.0000236290
   11    7   13    7        0.0181634876
   11    7    8    8       -0.0001353995
   11    7    9    8        0.0000000675
   11    7   10    8        0.0000000177
   11    7   11    8        0.0000065538
   11    7   12    8       -0.0128194096
   11    7   13    8        0.0000057421
   11    7    9    9       -0.0001355064
   11    7   10    9       -0.0000000073
   11    7   11    9       -0.0000021193
   11    7   12    9        0.0044995503
   11    7   13    9        0.0000459970
   11    7   10   10       -0.0001407234
   11    7   11   10       -0.0162339829
   11    7   12   10       -0.0000210466
   11    7   13   10        0.0109337207
   11    7   11   11       -0.0002558274
   11    7   12   11        0.0000001723
   11    7   13   11       -0.0001698961
   11    7   12   12       -0.0001135468
   11    7   13   12        0.0000002063
   11    7   13   13       -0.0002347234
   12    7   12    7        0.0101351422
   12    7   13    7       -0.0000973451
   12    7    8    8        0.0000003383
   12    7    9    8       -0.0000000044
   12    7   10    8        0.0000183238
   12    7   11    8       -0.0042218466
   12    7   12    8        0.0000758736
   12    7   13    8       -0.0021137340
   12    7    9    9        0.0000003317
   12    7   10    9       -0.0000064244
   12    7   11    9        0.0014816620
   12    7   12    9       -0.0000270008
   12    7   13    9        0.0007429860
   12    7   10   10        0.0000004252
   12    7   11   10        0.0000964772
   12    7   12   10        0.0073370301
   12    7   13   10       -0.0000387205
   12    7   11   11        0.0000007944
   12    7   12   11        0.0000066441
   12    7   13   11        0.0000009003
   12    7   12   12        0.0000001830
   12    7   13   12        0.0000032100
   12    7   13   13        0.0000008829
   13    7   13    7        0.0782940350
   13    7    8    8       -0.0002520775
   13    7    9    8        0.0000002216
   13    7   10    8        0.0000000532
   13    7   11    8        0.0000138605
   13    7   12    8       -0.0519351661
   13    7   13    8       -0.0000015075
   13    7    9    9       -0.0002520078
   13    7   10    9       -0.0000000951
   13    7   11    9        0.0000134405
   13    7   12    9        0.0182295018
   13    7   13    9        0.0001994033
   13    7   10   10       -0.0003280301
   13    7   11   10       -0.0682630914
   13    7   12   10       -0.0000616720
   13    7   13   10        0.0364227168
   13    7   11   11       -0.0005859419
   13    7   12   11        0.0000006881
   13    7   13   11       -0.0006016909
   13    7   12   12       -0.0001681265
   13    7   13   12        0.0000007438
   13    7   13   13       -0.0005539615
    8    8    8    8        0.3281047730
    8    8    9    8        0.0000008208
    8    8   10    8       -0.0000001549
    8    8   11    8       -0.0000000962
    8    8   12    8        0.0001022085
    8    8   13    8       -0.0000002054
    8    8    9    9        0.3003956848
    8    8   10    9       -0.0000002890
    8    8   11    9        0.0000000234
    8    8   12    9       -0.0000313744
    8    8   13    9       -0.0000001229
    8    8   10   10        0.3162369217
    8    8   11   10        0.0001991671
    8    8   12   10       -0.0000000649
    8    8   13   10        0.0001421384
    8    8   11   11        0.3129537356
    8    8   12   11        0.0000183659
    8    8   13   11       -0.0111086573
    8    8   12   12        0.3098610130
    8    8   13   12        0.0000133628
    8    8   13   13        0.2974633696
    9    8    9    8        0.0145028192
    9    8   10    8       -0.0000001631
    9    8   11    8        0.0000000044
    9    8   12    8       -0.0000024771
    9    8   13    8       -0.0000000106
    9    8    9    9       -0.0000007959
    9    8   10    9        0.0000002250
    9    8   11    9       -0.0000000111
    9    8   12    9        0.0000067010
    9    8   13    9       -0.0000000123
    9    8   10   10        0.0000000056
    9    8   11   10       -0.0000002653
    9    8   12   10       -0.0000000002
    9    8   13   10        0.0000001259
    9    8   11   11        0.0000000041
    9    8   12   11        0.0000011004
    9    8   13   11        0.0000000045
    9    8   12   12       -0.0062902027
    9    8   13   12       -0.0000352863
    9    8   13   13       -0.0000000144
   10    8   10    8        0.0169236268
   10    8   11    8        0.0000117653
   10    8   12    8       -0.0000000267
   10    8   13    8       -0.0000119634
   10    8    9    9       -0.0000004492
   10    8   10    9        0.0000000003
   10    8   11    9       -0.0000000226
   10    8   12    9        0.0000000159
   10    8   13    9        0.0000000140
   10    8   10   10       -0.0000012303
   10    8   11   10       -0.0000000768
   10    8   12   10       -0.0000065796
   10    8   13   10        0.0000000227
   10    8   11   11       -0.0000041334
   10    8   12   11        0.0106463448
   10    8   13   11        0.0000044730
   10    8   12   12        0.0000097623
   10    8   13   12       -0.0022375815
   10    8   13   13        0.0000092180
   11    8   11    8        0.0101288810
   11    8   12    8       -0.0000048720
   11    8   13    8       -0.0040094904
   11    8    9    9       -0.0000000756
   11    8   10    9       -0.0000000228
   11    8   11    9       -0.0000000009
   11    8   12    9        0.0000044786
   11    8   13    9        0.0000000460
   11    8   10   10       -0.0000000936
   11    8   11   10       -0.0000134703
   11    8   12   10        0.0006428814
   11    8   13   10        0.0000053769
   11    8   11   11       -0.0000001493
   11    8   12   11        0.0000234253
   11    8   13   11       -0.0000001267
   11    8   12   12       -0.0000001366
   11    8   13   12        0.0000415217
   11    8   13   13       -0.0000001116
   12    8   12    8        0.0541596435
   12    8   13    8       -0.0000066869
   12    8    9    9        0.0000893968
   12    8   10    9        0.0000000180
   12    8   11    9        0.0000028756
   12    8   12    9       -0.0170008560
   12    8   13    9       -0.0001610033
   12    8   10   10        0.0001076830
   12    8   11   10        0.0569345309
   12    8   12   10        0.0000402988
   12    8   13   10       -0.0228428598
   12    8   11   11        0.0003145500
   12    8   12   11       -0.0000005552
   12    8   13   11        0.0004678555
   12    8   12   12        0.0000005525
   12    8   13   12       -0.0000006882
   12    8   13   13        0.0003252783
   13    8   13    8        0.0112841749
   13    8    9    9       -0.0000001798
   13    8   10    9        0.0000000138
   13    8   11    9       -0.0000000004
   13    8   12    9       -0.0000210764
   13    8   13    9       -0.0000000137
   13    8   10   10       -0.0000002031
   13    8   11   10       -0.0000001740
   13    8   12   10        0.0054075381
   13    8   13   10        0.0000129517
   13    8   11   11       -0.0000002249
   13    8   12   11        0.0000339446
   13    8   13   11       -0.0000000088
   13    8   12   12       -0.0000003006
   13    8   13   12        0.0000416083
   13    8   13   13       -0.0000001973
    9    9    9    9        0.3281931649
    9    9   10    9       -0.0000006211
    9    9   11    9        0.0000000305
    9    9   12    9       -0.0000358560
    9    9   13    9       -0.0000001429
    9    9   10   10        0.3162772169
    9    9   11   10        0.0001989731
    9    9   12   10       -0.0000000661
    9    9   13   10        0.0001421419
    9    9   11   11        0.3129961289
    9    9   12   11        0.0000219898
    9    9   13   11       -0.0111110400
    9    9   12   12        0.2944917631
    9    9   13   12        0.0000328076
    9    9   13   13        0.2975110367
   10    9   10    9        0.0169199567
   10    9   11    9        0.0000117481
   10    9   12    9        0.0000000112
   10    9   13    9       -0.0000120121
   10    9   10   10        0.0000001998
   10    9   11   10        0.0000000296
   10    9   12   10        0.0000023167
   10    9   13   10        0.0000000060
   10    9   11   11        0.0000000963
   10    9   12   11       -0.0037350906
   10    9   13   11       -0.0000408845
   10    9   12   12       -0.0000045760
   10    9   13   12        0.0007845769
   10    9   13   13        0.0000113741
   11    9   11    9        0.0101303511
   11    9   12    9        0.0000064553
   11    9   13    9       -0.0040104433
   11    9   10   10        0.0000000285
   11    9   11   10        0.0000024392
   11    9   12   10       -0.0002238836
   11    9   13   10       -0.0000035985
   11    9   11   11        0.0000000384
   11    9   12   11       -0.0000082127
   11    9   13   11       -0.0000000529
   11    9   12   12        0.0000000481
   11    9   13   12       -0.0000145774
   11    9   13   13       -0.0000002684
   12    9   12    9        0.0118625330
   12    9   13    9        0.0000533269
   12    9   10   10       -0.0000377563
   12    9   11   10       -0.0199828051
   12    9   12   10       -0.0000148882
   12    9   13   10        0.0080182901
   12    9   11   11       -0.0001103682
   12    9   12   11        0.0000001942
   12    9   13   11       -0.0001642297
   12    9   12   12       -0.0000001096
   12    9   13   12        0.0000002526
   12    9   13   13       -0.0001141745
   13    9   13    9        0.0112885670
   13    9   10   10       -0.0000001654
   13    9   11   10       -0.0002100065
   13    9   12   10       -0.0018975807
   13    9   13   10        0.0000607556
   13    9   11   11       -0.0000009066
   13    9   12   11       -0.0000119077
   13    9   13   11       -0.0000018479
   13    9   12   12        0.0000002515
   13    9   13   12       -0.0000146053
   13    9   13   13       -0.0000012011
   10   10   10   10        0.3607682518
   10   10   11   10        0.0002807396
   10   10   12   10       -0.0000000757
   10   10   13   10        0.0002040167
   10   10   11   11        0.3583606989
   10   10   12   11        0.0000289985
   10   10   13   11       -0.0143534298
   10   10   12   12        0.3229313831
   10   10   13   12        0.0000205145
   10   10   13   13        0.3249299528
   11   10   11   10        0.0944144258
   11   10   12   10        0.0000680409
   11   10   13   10       -0.0335314471
   11   10   11   11        0.0006002419
   11   10   12   11       -0.0000007442
   11   10   13   11        0.0006946578
   11   10   12   12        0.0000598239
   11   10   13   12       -0.0000008095
   11   10   13   13        0.0004629648
   12   10   12   10        0.0210134224
   12   10   13   10       -0.0000292632
   12   10   11   11        0.0000000904
   12   10   12   11        0.0000078773
   12   10   13   11        0.0000005829
   12   10   12   12       -0.0000002660
   12   10   13   12        0.0000306865
   12   10   13   13        0.0000002250
   13   10   13   10        0.0388698199
   13   10   11   11        0.0001364947
   13   10   12   11        0.0000003527
   13   10   13   11       -0.0003139355
   13   10   12   12        0.0002203918
   13   10   13   12        0.0000003952
   13   10   13   13        0.0000766744
   11   11   11   11        0.3708198494
   11   11   12   11        0.0000198204
   11   11   13   11       -0.0101131575
   11   11   12   12        0.3239009020
   11   11   13   12        0.0000224351
   11   11   13   13        0.3250831229
   12   11   12   11        0.0153655895
   12   11   13   11        0.0000105718
   12   11   12   12        0.0000266489
   12   11   13   12       -0.0009608175
   12   11   13   13        0.0000247393
   13   11   13   11        0.0108414349
   13   11   12   12       -0.0124013471
   13   11   13   12       -0.0000051277
   13   11   13   13       -0.0117492381
   12   12   12   12        0.3245753551
   12   12   13   12        0.0000258285
   12   12   13   13        0.3018369861
   13   12   13   12        0.0105674931
   13   12   13   13        0.0000000562
   13   13   13   13        0.3306129680
 end_two_electron_integrals


 output epsi filename:./pspw_hf_H2.emovecs

 Total PSPW energy     :  -0.8130491720E+00


=== Spin Contamination ===

 <Sexact^2> =    0.0000000000000000     
 <S^2>      =    0.0000000000000000     



== Center of Charge ==

spin up     (    0.0000,    0.0000,    0.0013 )
spin down   (    0.0000,    0.0000,    0.0013 )
     total  (    0.0000,    0.0000,    0.0013 )
ionic       (    0.0000,    0.0000,    0.0000 )


== Molecular Dipole wrt Center of Mass ==

mu   =  (   -0.0000,   -0.0000,   -0.0026 ) au
|mu| =     0.0026 au,       0.0065 Debye

 output psi filename:./pspw_hf_H2.movecs

 Writing Crystallographic Information File:./H2.cif
   - cell not shifted (nwpw:cif_shift_cell .false.)


== Timing ==

cputime in seconds
  prologue    :   0.638027E+01
  main loop   :   0.413193E+03
  epilogue    :   0.168018E-01
  total       :   0.419590E+03
  cputime/step:   0.297261E+01       (     139 evalulations,      58 linesearches)


Time spent doing                        total          step       percent
  total time                 :   0.419613E+03  0.301880E+01       100.0 %
  i/o time                   :   0.305307E+00  0.219645E-02         0.1 %
  FFTs                       :   0.290173E+03  0.208758E+01        69.2 %
  dot products               :   0.226933E+02  0.163261E+00         5.4 %
  geodesic                   :   0.606905E-01  0.436622E-03         0.0 %
  ffm_dgemm                  :   0.105505E-01  0.759026E-04         0.0 %
  fmf_dgemm                  :   0.640207E-02  0.460580E-04         0.0 %
  mmm_dgemm                  :   0.243028E-02  0.174841E-04         0.0 %
  m_diagonalize              :   0.118185E-02  0.850253E-05         0.0 %
  local pseudopotentials     :   0.599590E+01  0.431360E-01         1.4 %
  non-local pseudopotentials :   0.213929E+02  0.153905E+00         5.1 %
  structure factors          :   0.766892E+00  0.551721E-02         0.2 %
  phase factors              :   0.813700E-05  0.585396E-07         0.0 %
  masking and packing        :   0.739744E+01  0.532190E-01         1.8 %
  queue fft                  :   0.989184E+01  0.711643E-01         2.4 %
  queue fft (serial)         :   0.293592E+01  0.211217E-01         0.7 %
  queue fft (message passing):   0.691746E+01  0.497659E-01         1.6 %
  HFX potential              :   0.371219E+01  0.267064E-01         0.9 %
  non-local psp FFM          :   0.209319E+02  0.150590E+00         5.0 %
  non-local psp FMF          :   0.985891E-01  0.709274E-03         0.0 %
  non-local psp FFM A        :   0.428161E-01  0.308030E-03         0.0 %
  non-local psp FFM B        :   0.144961E+00  0.104288E-02         0.0 %

== HFX Counters ==
  HFX Evalulations         =   139
  Lin ACE HFX Evalulations =     0


     >>>  JOB COMPLETED     AT Sun Apr  6 21:01:54 2025  <<<

 Task  times  cpu:      392.1s     wall:      419.6s


                                NWChem Input Module
                                -------------------


 Summary of allocated global arrays
-----------------------------------
  No active global arrays


MA_summarize_allocated_blocks: starting scan ...
MA_summarize_allocated_blocks: scan completed: 0 heap blocks, 0 stack blocks
MA usage statistics:

	allocation statistics:
					      heap	     stack
					      ----	     -----
	current number of blocks	         0	         0
	maximum number of blocks	       313	        36
	current total bytes		         0	         0
	maximum total bytes		  16458992	   5334744
	maximum total K-bytes		     16459	      5335
	maximum total M-bytes		        17	         6


                                     CITATION
                                     --------
                Please cite the following reference when publishing
                           results obtained with NWChem:

          E. Apra, E. J. Bylaska, W. A. de Jong, N. Govind, K. Kowalski,
       T. P. Straatsma, M. Valiev, H. J. J. van Dam, Y. Alexeev, J. Anchell,
       V. Anisimov, F. W. Aquino, R. Atta-Fynn, J. Autschbach, N. P. Bauman,
     J. C. Becca, D. E. Bernholdt, K. Bhaskaran-Nair, S. Bogatko, P. Borowski,
         J. Boschen, J. Brabec, A. Bruner, E. Cauet, Y. Chen, G. N. Chuev,
      C. J. Cramer, J. Daily, M. J. O. Deegan, T. H. Dunning Jr., M. Dupuis,
   K. G. Dyall, G. I. Fann, S. A. Fischer, A. Fonari, H. Fruchtl, L. Gagliardi,
      J. Garza, N. Gawande, S. Ghosh, K. Glaesemann, A. W. Gotz, J. Hammond,
       V. Helms, E. D. Hermes, K. Hirao, S. Hirata, M. Jacquelin, L. Jensen,
   B. G. Johnson, H. Jonsson, R. A. Kendall, M. Klemm, R. Kobayashi, V. Konkov,
      S. Krishnamoorthy, M. Krishnan, Z. Lin, R. D. Lins, R. J. Littlefield,
      A. J. Logsdail, K. Lopata, W. Ma, A. V. Marenich, J. Martin del Campo,
   D. Mejia-Rodriguez, J. E. Moore, J. M. Mullin, T. Nakajima, D. R. Nascimento,
    J. A. Nichols, P. J. Nichols, J. Nieplocha, A. Otero-de-la-Roza, B. Palmer,
    A. Panyala, T. Pirojsirikul, B. Peng, R. Peverati, J. Pittner, L. Pollack,
   R. M. Richard, P. Sadayappan, G. C. Schatz, W. A. Shelton, D. W. Silverstein,
   D. M. A. Smith, T. A. Soares, D. Song, M. Swart, H. L. Taylor, G. S. Thomas,
            V. Tipparaju, D. G. Truhlar, K. Tsemekhman, T. Van Voorhis,
      A. Vazquez-Mayagoitia, P. Verma, O. Villa, A. Vishnu, K. D. Vogiatzis,
        D. Wang, J. H. Weare, M. J. Williamson, T. L. Windus, K. Wolinski,
        A. T. Wong, Q. Wu, C. Yang, Q. Yu, M. Zacharias, Z. Zhang, Y. Zhao,
                                and R. J. Harrison
                        "NWChem: Past, present, and future
                         J. Chem. Phys. 152, 184102 (2020)
                               doi:10.1063/5.0004997

                                      AUTHORS
                                      -------
  E. Apra, E. J. Bylaska, N. Govind, K. Kowalski, M. Valiev, D. Mejia-Rodriguez,
       A. Kunitsa, N. P. Bauman, A. Panyala, W. A. de Jong, T. P. Straatsma,
   H. J. J. van Dam, D. Wang, T. L. Windus, J. Hammond, J. Autschbach, A. Woods,
    K. Bhaskaran-Nair, J. Brabec, K. Lopata, S. A. Fischer, S. Krishnamoorthy,
     M. Jacquelin, W. Ma, M. Klemm, O. Villa, Y. Chen, V. Anisimov, F. Aquino,
     S. Hirata, M. T. Hackler, E. Hermes, L. Jensen, J. E. Moore, J. C. Becca,
      V. Konjkov, T. Risthaus, M. Malagoli, A. Marenich, A. Otero-de-la-Roza,
        J. Mullin, P. Nichols, R. Peverati, J. Pittner, Y. Zhao, P.-D. Fan,
        A. Fonari, M. J. Williamson, R. J. Harrison, J. R. Rehr, M. Dupuis,
     D. Silverstein, D. M. A. Smith, J. Nieplocha, V. Tipparaju, M. Krishnan,
     B. E. Van Kuiken, A. Vazquez-Mayagoitia, M. Swart, Q. Wu, T. Van Voorhis,
     A. A. Auer, M. Nooijen, L. D. Crosby, E. Brown, G. Cisneros, G. I. Fann,
   H. Fruchtl, J. Garza, K. Hirao, R. A. Kendall, J. A. Nichols, K. Tsemekhman,
    K. Wolinski, J. Anchell, D. E. Bernholdt, P. Borowski, T. Clark, D. Clerc,
   H. Dachsel, M. J. O. Deegan, K. Dyall, D. Elwood, E. Glendening, M. Gutowski,
   A. C. Hess, J. Jaffe, B. G. Johnson, J. Ju, R. Kobayashi, R. Kutteh, Z. Lin,
   R. Littlefield, X. Long, B. Meng, T. Nakajima, S. Niu, L. Pollack, M. Rosing,
   K. Glaesemann, G. Sandrone, M. Stave, H. Taylor, G. Thomas, J. H. van Lenthe,
                               A. T. Wong, Z. Zhang.

 Total times  cpu:      392.2s     wall:      419.8s
