 argument  1 = H2-4.5.nw



============================== echo of input deck ==============================
title "swnc: e theory=pspw4 xc=hf formula=H2 charge=0 mult=1"
#machinejob:expert

echo

start pspw_hf_H2

memory heap 1200 mb stack 1200 mb global 10 mb

charge 0

geometry
H    0.00000    0.00000   -2.25000
H    0.00000    0.00000    2.25000
end

nwpw
  ### pseudopotential block begin ###
  ### pseudopotential block end   ###
  simulation_cell
     SC 15.0000
     boundary_conditions aperiodic
  end

  cutoff 50.0
  mult 1
  xc hf
  lmbfgs
  tolerances 1.0e-9 1.0e-9

  virtual 12
end
set nwpw:cif_filename H2

#set nwpw:CI_maxit_orb 15
#set nwpw:CI_maxit_linesearch 15
set pspw:HFX_screening_radius 14.0


set nwpw:2qintegrals .true.
set nwpw:3x3_virtual .true.

task pspw energy
================================================================================


                                         
                                         


             Northwest Computational Chemistry Package (NWChem) 7.2.3
             --------------------------------------------------------


                    Environmental Molecular Sciences Laboratory
                       Pacific Northwest National Laboratory
                                Richland, WA 99352

                              Copyright (c) 1994-2022
                       Pacific Northwest National Laboratory
                            Battelle Memorial Institute

             NWChem is an open-source computational chemistry package
                        distributed under the terms of the
                      Educational Community License (ECL) 2.0
             A copy of the license is included with this distribution
                              in the LICENSE.TXT file

                                  ACKNOWLEDGMENT
                                  --------------

            This software and its documentation were developed at the
            EMSL at Pacific Northwest National Laboratory, a multiprogram
            national laboratory, operated for the U.S. Department of Energy
            by Battelle under Contract Number DE-AC05-76RL01830. Support
            for this work was provided by the Department of Energy Office
            of Biological and Environmental Research, Office of Basic
            Energy Sciences, and the Office of Advanced Scientific Computing.


           Job information
           ---------------

    hostname        = mqs-al
    program         = nwchem
    date            = Sun Apr  6 20:05:52 2025

    compiled        = Thu_Oct_31_08:55:15_2024
    source          = /home/conda/feedstock_root/build_artifacts/nwchem_1730356057992/work
    nwchem branch   = 7.2.3
    nwchem revision = c400b04
    ga revision     = 5.8.0
    use scalapack   = T
    input           = H2-4.5.nw
    prefix          = pspw_hf_H2.
    data base       = ./pspw_hf_H2.db
    status          = startup
    nproc           =       24
    time left       =     -1s



           Memory information
           ------------------

    heap     =  157286400 doubles =   1200.0 Mbytes
    stack    =  157286397 doubles =   1200.0 Mbytes
    global   =    1310720 doubles =     10.0 Mbytes (distinct from heap & stack)
    total    =  315883517 doubles =   2410.0 Mbytes
    verify   = yes
    hardfail = no 


           Directory information
           ---------------------

  0 permanent = .
  0 scratch   = .




                                NWChem Input Module
                                -------------------


               swnc: e theory=pspw4 xc=hf formula=H2 charge=0 mult=1
               -----------------------------------------------------

 Scaling coordinates for geometry "geometry" by  1.889725989
 (inverse scale =  0.529177249)

  zeroes
  zeroes
  zeroes
  zeroes
  zeroes
  zeroes
  zeroes
  zeroes
  zeroes
  zeroes
  zeroes
  zeroes
  zeroes
  zeroes
  zeroes
  zeroes
  zeroes
  zeroes
  zeroes
  zeroes
  zeroes
  zeroes
  zeroes
  zeroes
  zeroes
  zeroes
  zeroes
  zeroes
  zeroes
  zeroes
  zeroes
  zeroes
  zeroes
  zeroes
  zeroes
  zeroes
  zeroes
  zeroes
  zeroes
  zeroes
  zeroes
  zeroes
  zeroes
  zeroes
  zeroes
  zeroes
  zeroes
  zeroes
 ORDER OF PRIMARY AXIS IS BEING SET TO 4
 D4H symmetry detected

          ------
          auto-z
          ------
     1 autoz failed with cvr_scaling = 1.2 changing to 1.3
     2 autoz failed with cvr_scaling = 1.3 changing to 1.4
     3 autoz failed with cvr_scaling = 1.4 changing to 1.5
     4 autoz failed with cvr_scaling = 1.5 changing to 1.6
     5 autoz failed with cvr_scaling = 1.6 changing to 1.7

 AUTOZ failed to generate good internal coordinates.
 Cartesian coordinates will be used in optimizations.



                             Geometry "geometry" -> ""
                             -------------------------

 Output coordinates in angstroms (scale by  1.889725989 to convert to a.u.)

  No.       Tag          Charge          X              Y              Z
 ---- ---------------- ---------- -------------- -------------- --------------
    1 H                    1.0000     0.00000000     0.00000000    -2.25000000
    2 H                    1.0000     0.00000000     0.00000000     2.25000000

      Atomic Mass 
      ----------- 

      H                  1.007825


 Effective nuclear repulsion energy (a.u.)       0.1175949442

            Nuclear Dipole moment (a.u.) 
            ----------------------------
        X                 Y               Z
 ---------------- ---------------- ----------------
     0.0000000000     0.0000000000     0.0000000000

      Symmetry information
      --------------------

 Group name             D4h       
 Group number             28
 Group order              16
 No. of unique centers     1

      Symmetry unique atoms

     1


            XYZ format geometry
            -------------------
     2
 geometry
 H                     0.00000000     0.00000000    -2.25000000
 H                     0.00000000     0.00000000     2.25000000

          ****************************************************
          *                                                  *
          *               NWPW PSPW Calculation              *
          *                                                  *
          * [ (Grassmann/Stiefel manifold implementation)  ] *
          *                                                  *
          *      [ NorthWest Chemistry implementation ]      *
          *                                                  *
          *            version #5.10   06/12/02              *
          *                                                  *
          *    This code was developed by Eric J. Bylaska,   *
          *    and was based upon algorithms and code        *
          *    developed by the group of Prof. John H. Weare *
          *                                                  *
          ****************************************************
     >>>  JOB STARTED       AT Sun Apr  6 20:05:52 2025  <<<
          ================ input data ========================

 input psi filename:./pspw_hf_H2.movecs

 number of processors used:        24
 processor grid           :  24 x   1
 parallel mapping         :2d-hilbert
 parallel mapping         :  balanced
 number of threads        :         1
 parallel io              :       off

 options:
      boundary conditions  = aperiodic   (version4)
      electron spin        = restricted
      exchange-correlation = Hartree-Fock
      - HFX relaxed
      - HFX restricted orbitals :    1
      - HFX free-space coulomb solver


 elements involved in the cluster:
      1: H   valence charge:  1.0000  lmax=  1
             comment    : Parameterized (Chem.Phys.Lett., vol 322, page 447) Hamman psp
             pseudpotential type            :   0
             highest angular component      :   1
             local potential used           :   1
             number of non-local projections:   1
             aperiodic cutoff radius        :  1.000
             cutoff =   0.800   0.800


 total charge:   0.000

 atomic composition:
     H   :    2

 number of electrons: spin up=     1 (   1 per task)  down=     1 (   1 per task) (Fourier space)
 number of orbitals : spin up=     1 (   1 per task)  down=     1 (   1 per task) (Fourier space)

 supercell:
      cell_name:  cell_default                                      
      lattice:    a1=<  15.000   0.000   0.000 >
                  a2=<   0.000  15.000   0.000 >
                  a3=<   0.000   0.000  15.000 >
      reciprocal: b1=<   0.419   0.000   0.000 >
                  b2=<   0.000   0.419   0.000 >
                  b3=<   0.000   0.000   0.419 >
      lattice:    a=      15.000 b=     15.000 c=      15.000
                  alpha=  90.000 beta=  90.000 gamma=  90.000
                  omega=      3375.0

      density cutoff=100.000  fft= 70x 70x 70(    80618 waves     3359 per task)
      wavefnc cutoff= 50.000  fft= 70x 70x 70(    28526 waves     1188 per task)

 technical parameters:
      time step=      5.80     fictitious mass=  400000.0
      tolerance=0.100E-08 (energy)   0.100E-08 (density)
      maximum iterations =      1000 (   10 inner    100 outer )





== Energy Calculation ==


          ============ Grassmann lmbfgs iteration ============
     >>>  ITERATION STARTED AT Sun Apr  6 20:05:59 2025  <<<
    iter.           Energy         DeltaE       DeltaRho 
    ------------------------------------------------------
      10   -0.7896235160E+00   -0.16012E-02    0.70344E-02
     -  10 steepest descent iterations performed
      20   -0.7947226131E+00   -0.14292E-03    0.65094E-04
      30   -0.7949907840E+00   -0.73613E-05    0.55379E-05
      40   -0.7950102070E+00   -0.30879E-06    0.30423E-06
      50   -0.7950112940E+00   -0.22272E-07    0.24934E-08
      60   -0.7950113697E+00   -0.22287E-08    0.10694E-09
      70   -0.7950113753E+00   -0.76996E-09    0.11160E-10
  *** tolerance ok. iteration terminated
     >>>  ITERATION ENDED   AT Sun Apr  6 20:06:05 2025  <<<


==  Summary Of Results  ==

 number of electrons: spin up=    1.00000  down=    1.00000 (real space)

 total     energy    :  -0.7950113753E+00 (   -0.39751E+00/ion)
 total orbital energy:  -0.6083014347E+00 (   -0.60830E+00/electron)
 hartree   energy    :   0.6086097695E+00 (    0.60861E+00/electron)
 exc-corr  energy    :   0.0000000000E+00 (    0.00000E+00/electron)
 HF exchange energy  :  -0.3043048848E+00 (   -0.30430E+00/electron)
 ion-ion   energy    :   0.1175949442E+00 (    0.58797E-01/ion)

 kinetic (planewave) :   0.6156507415E+00 (    0.61565E+00/electron)
 V_local (planewave) :  -0.1685782791E+01 (   -0.16858E+01/electron)
 V_nl    (planewave) :  -0.1467791544E+00 (   -0.14678E+00/electron)
 V_Coul  (planewave) :   0.1217219539E+01 (    0.12172E+01/electron)
 V_xc.   (planewave) :   0.0000000000E+00 (    0.00000E+00/electron)
 K.S. HFX energy     :  -0.6086097695E+00 (   -0.60861E+00/electron)
 Virial Coefficient  :  -0.9994991725E+00

 orbital energies:
    -0.3041507E+00 (  -8.276eV)


== Virtual Orbital Calculation ==


 input epsi filename:./pspw_hf_H2.emovecs

 COVOs Mimimization
 ------------------
CI gradient algorithm =         3
maxit_sweeps          =         3
maxit_orb             =       120
maxit_linesearch      =        15
maxerror              = 0.100E-08

     orb,it,eci,eold,eci-eold=                    1                    1 -0.91878886579946339      -0.91620996471498217       -2.5789010844812221E-003 F
     orb,it,eci,eold,eci-eold=                    1                    2 -0.91916021187217134      -0.91878886579946339       -3.7134607270794540E-004 F
     orb,it,eci,eold,eci-eold=                    1                    3 -0.93365070521985172      -0.91916021187217134       -1.4490493347680378E-002 F
     orb,it,eci,eold,eci-eold=                    1                    4 -0.93444608412641705      -0.93365070521985172       -7.9537890656533605E-004 F
     orb,it,eci,eold,eci-eold=                    1                    5 -0.93715918623702088      -0.93444608412641705       -2.7131021106038267E-003 F
     orb,it,eci,eold,eci-eold=                    1                    6 -0.94173399040169004      -0.93715918623702088       -4.5748041646691551E-003 F
     orb,it,eci,eold,eci-eold=                    1                    7 -0.94570893398262368      -0.94173399040169004       -3.9749435809336431E-003 F
     orb,it,eci,eold,eci-eold=                    1                    8 -0.94729532297788177      -0.94570893398262368       -1.5863889952580923E-003 F
     orb,it,eci,eold,eci-eold=                    1                    9 -0.94830002187507489      -0.94729532297788177       -1.0046988971931237E-003 F
     orb,it,eci,eold,eci-eold=                    1                   10 -0.95440442965226024      -0.94830002187507489       -6.1044077771853500E-003 F
     orb,it,eci,eold,eci-eold=                    1                   11 -0.95489231911070693      -0.95440442965226024       -4.8788945844668863E-004 F
     orb,it,eci,eold,eci-eold=                    1                   12 -0.95493917526838423      -0.95489231911070693       -4.6856157677299670E-005 F
     orb,it,eci,eold,eci-eold=                    1                   13 -0.95833548387750211      -0.95493917526838423       -3.3963086091178818E-003 F
     orb,it,eci,eold,eci-eold=                    1                   14 -0.95891344950468516      -0.95833548387750211       -5.7796562718304134E-004 F
     orb,it,eci,eold,eci-eold=                    1                   15 -0.95921235791672210      -0.95891344950468516       -2.9890841203694674E-004 F
     orb,it,eci,eold,eci-eold=                    1                   16 -0.96185772011819370      -0.95921235791672210       -2.6453622014716016E-003 F
     orb,it,eci,eold,eci-eold=                    1                   17 -0.96193176432447003      -0.96185772011819370       -7.4044206276324687E-005 F
     orb,it,eci,eold,eci-eold=                    1                   18 -0.96195457719251665      -0.96193176432447003       -2.2812868046617751E-005 F
     orb,it,eci,eold,eci-eold=                    1                   19 -0.96381819383682776      -0.96195457719251665       -1.8636166443111168E-003 F
     orb,it,eci,eold,eci-eold=                    1                   20 -0.96476891441381896      -0.96381819383682776       -9.5072057699119306E-004 F
     orb,it,eci,eold,eci-eold=                    1                   21 -0.96652041643932218      -0.96476891441381896       -1.7515020255032265E-003 F
     orb,it,eci,eold,eci-eold=                    1                   22 -0.96676992754321789      -0.96652041643932218       -2.4951110389570541E-004 F
     orb,it,eci,eold,eci-eold=                    1                   23 -0.96706179784320856      -0.96676992754321789       -2.9187029999067082E-004 F
     orb,it,eci,eold,eci-eold=                    1                   24 -0.96840535131071481      -0.96706179784320856       -1.3435534675062533E-003 F
     orb,it,eci,eold,eci-eold=                    1                   25 -0.96881153562869315      -0.96840535131071481       -4.0618431797834198E-004 F
     orb,it,eci,eold,eci-eold=                    1                   26 -0.96905091617037886      -0.96881153562869315       -2.3938054168570755E-004 F
     orb,it,eci,eold,eci-eold=                    1                   27 -0.97017691459914646      -0.96905091617037886       -1.1259984287675939E-003 F
     orb,it,eci,eold,eci-eold=                    1                   28 -0.97033764431813463      -0.97017691459914646       -1.6072971898817290E-004 F
     orb,it,eci,eold,eci-eold=                    1                   29 -0.97034579918278807      -0.97033764431813463       -8.1548646534423952E-006 F
     orb,it,eci,eold,eci-eold=                    1                   30 -0.97116275117049944      -0.97034579918278807       -8.1695198771136734E-004 F
     orb,it,eci,eold,eci-eold=                    1                   31 -0.97155610955254568      -0.97116275117049944       -3.9335838204623830E-004 F
     orb,it,eci,eold,eci-eold=                    1                   32 -0.97165668586183040      -0.97155610955254568       -1.0057630928472783E-004 F
     orb,it,eci,eold,eci-eold=                    1                   33 -0.97233278783663957      -0.97165668586183040       -6.7610197480916234E-004 F
     orb,it,eci,eold,eci-eold=                    1                   34 -0.97264227878084453      -0.97233278783663957       -3.0949094420495982E-004 F
     orb,it,eci,eold,eci-eold=                    1                   35 -0.97274677451472080      -0.97264227878084453       -1.0449573387627531E-004 F
     orb,it,eci,eold,eci-eold=                    1                   36 -0.97327219705255841      -0.97274677451472080       -5.2542253783760540E-004 F
     orb,it,eci,eold,eci-eold=                    1                   37 -0.97353312643866086      -0.97327219705255841       -2.6092938610244865E-004 F
     orb,it,eci,eold,eci-eold=                    1                   38 -0.97366195692440316      -0.97353312643866086       -1.2883048574230394E-004 F
     orb,it,eci,eold,eci-eold=                    1                   39 -0.97406306153570377      -0.97366195692440316       -4.0110461130060671E-004 F
     orb,it,eci,eold,eci-eold=                    1                   40 -0.97413116142987122      -0.97406306153570377       -6.8099894167450437E-005 F
     orb,it,eci,eold,eci-eold=                    1                   41 -0.97417638836851683      -0.97413116142987122       -4.5226938645615000E-005 F
     orb,it,eci,eold,eci-eold=                    1                   42 -0.97448684971452859      -0.97417638836851683       -3.1046134601175890E-004 F
     orb,it,eci,eold,eci-eold=                    1                   43 -0.97459114990196627      -0.97448684971452859       -1.0430018743767810E-004 F
     orb,it,eci,eold,eci-eold=                    1                   44 -0.97462651845091963      -0.97459114990196627       -3.5368548953362833E-005 F
     orb,it,eci,eold,eci-eold=                    1                   45 -0.97486147295003200      -0.97462651845091963       -2.3495449911237198E-004 F
     orb,it,eci,eold,eci-eold=                    1                   46 -0.97496149242069952      -0.97486147295003200       -1.0001947066751171E-004 F
     orb,it,eci,eold,eci-eold=                    1                   47 -0.97500074169830619      -0.97496149242069952       -3.9249277606678845E-005 F
     orb,it,eci,eold,eci-eold=                    1                   48 -0.97517366161815566      -0.97500074169830619       -1.7291991984946797E-004 F
     orb,it,eci,eold,eci-eold=                    1                   49 -0.97523121640878907      -0.97517366161815566       -5.7554790633407293E-005 F
     orb,it,eci,eold,eci-eold=                    1                   50 -0.97526537809578717      -0.97523121640878907       -3.4161686998102070E-005 F
     orb,it,eci,eold,eci-eold=                    1                   51 -0.97542048731062758      -0.97526537809578717       -1.5510921484040985E-004 F
     orb,it,eci,eold,eci-eold=                    1                   52 -0.97544493257665166      -0.97542048731062758       -2.4445266024075707E-005 F
     orb,it,eci,eold,eci-eold=                    1                   53 -0.97544727152201638      -0.97544493257665166       -2.3389453647215674E-006 F
     orb,it,eci,eold,eci-eold=                    1                   54 -0.97557429750951252      -0.97544727152201638       -1.2702598749614324E-004 F
     orb,it,eci,eold,eci-eold=                    1                   55 -0.97563587853897094      -0.97557429750951252       -6.1581029458412928E-005 F
     orb,it,eci,eold,eci-eold=                    1                   56 -0.97564346464627349      -0.97563587853897094       -7.5861073025595971E-006 F
     orb,it,eci,eold,eci-eold=                    1                   57 -0.97574091046527622      -0.97564346464627349       -9.7445819002728307E-005 F
     orb,it,eci,eold,eci-eold=                    1                   58 -0.97579221980967512      -0.97574091046527622       -5.1309344398897672E-005 F
     orb,it,eci,eold,eci-eold=                    1                   59 -0.97580801971882614      -0.97579221980967512       -1.5799909151015257E-005 F
     orb,it,eci,eold,eci-eold=                    1                   60 -0.97589441792294129      -0.97580801971882614       -8.6398204115156751E-005 F
     orb,it,eci,eold,eci-eold=                    1                   61 -0.97591939844773790      -0.97589441792294129       -2.4980524796602843E-005 F
     orb,it,eci,eold,eci-eold=                    1                   62 -0.97592288840016395      -0.97591939844773790       -3.4899524260501025E-006 F
     orb,it,eci,eold,eci-eold=                    1                   63 -0.97599115789102464      -0.97592288840016395       -6.8269490860695115E-005 F
     orb,it,eci,eold,eci-eold=                    1                   64 -0.97602410189948841      -0.97599115789102464       -3.2944008463764440E-005 F
     orb,it,eci,eold,eci-eold=                    1                   65 -0.97603151025223933      -0.97602410189948841       -7.4083527509261060E-006 F
     orb,it,eci,eold,eci-eold=                    1                   66 -0.97608854373209819      -0.97603151025223933       -5.7033479858858982E-005 F
     orb,it,eci,eold,eci-eold=                    1                   67 -0.97611484491229694      -0.97608854373209819       -2.6301180198751162E-005 F
     orb,it,eci,eold,eci-eold=                    1                   68 -0.97612248085081255      -0.97611484491229694       -7.6359385156044013E-006 F
     orb,it,eci,eold,eci-eold=                    1                   69 -0.97616606977434972      -0.97612248085081255       -4.3588923537174473E-005 F
     orb,it,eci,eold,eci-eold=                    1                   70 -0.97617869163234827      -0.97616606977434972       -1.2621857998551533E-005 F
     orb,it,eci,eold,eci-eold=                    1                   71 -0.97618177773517001      -0.97617869163234827       -3.0861028217366027E-006 F
     orb,it,eci,eold,eci-eold=                    1                   72 -0.97621280228141438      -0.97618177773517001       -3.1024546244373674E-005 F
     orb,it,eci,eold,eci-eold=                    1                   73 -0.97622217737609329      -0.97621280228141438       -9.3750946789095124E-006 F
     orb,it,eci,eold,eci-eold=                    1                   74 -0.97622436666850210      -0.97622217737609329       -2.1892924088051657E-006 F
     orb,it,eci,eold,eci-eold=                    1                   75 -0.97624816240105694      -0.97622436666850210       -2.3795732554843241E-005 F
     orb,it,eci,eold,eci-eold=                    1                   76 -0.97625672324242885      -0.97624816240105694       -8.5608413719073795E-006 F
     orb,it,eci,eold,eci-eold=                    1                   77 -0.97625873541315311      -0.97625672324242885       -2.0121707242637399E-006 F
     orb,it,eci,eold,eci-eold=                    1                   78 -0.97627703493128282      -0.97625873541315311       -1.8299518129705206E-005 F
     orb,it,eci,eold,eci-eold=                    1                   79 -0.97628542019187803      -0.97627703493128282       -8.3852605952117187E-006 F
     orb,it,eci,eold,eci-eold=                    1                   80 -0.97628845448013590      -0.97628542019187803       -3.0342882578748842E-006 F
     orb,it,eci,eold,eci-eold=                    1                   81 -0.97630336318055211      -0.97628845448013590       -1.4908700416205178E-005 F
     orb,it,eci,eold,eci-eold=                    1                   82 -0.97630799337847485      -0.97630336318055211       -4.6301979227392209E-006 F
     orb,it,eci,eold,eci-eold=                    1                   83 -0.97630966433487187      -0.97630799337847485       -1.6709563970263019E-006 F
     orb,it,eci,eold,eci-eold=                    1                   84 -0.97632182832526726      -0.97630966433487187       -1.2163990395386293E-005 F
     orb,it,eci,eold,eci-eold=                    1                   85 -0.97632576479245614      -0.97632182832526726       -3.9364671888808545E-006 F
     orb,it,eci,eold,eci-eold=                    1                   86 -0.97632665270901497      -0.97632576479245614       -8.8791655883380116E-007 F
     orb,it,eci,eold,eci-eold=                    1                   87 -0.97633678969500703      -0.97632665270901497       -1.0136985992059699E-005 F
     orb,it,eci,eold,eci-eold=                    1                   88 -0.97634092775379255      -0.97633678969500703       -4.1380587855188722E-006 F
     orb,it,eci,eold,eci-eold=                    1                   89 -0.97634162213977216      -0.97634092775379255       -6.9438597960491677E-007 F
     orb,it,eci,eold,eci-eold=                    1                   90 -0.97634968894451912      -0.97634162213977216       -8.0668047469645288E-006 F
     orb,it,eci,eold,eci-eold=                    1                   91 -0.97635346133352718      -0.97634968894451912       -3.7723890080609834E-006 F
     orb,it,eci,eold,eci-eold=                    1                   92 -0.97635438540883546      -0.97635346133352718       -9.2407530827287587E-007 F
     orb,it,eci,eold,eci-eold=                    1                   93 -0.97636074334900824      -0.97635438540883546       -6.3579401727853480E-006 F
     orb,it,eci,eold,eci-eold=                    1                   94 -0.97636252136756441      -0.97636074334900824       -1.7780185561644402E-006 F
     orb,it,eci,eold,eci-eold=                    1                   95 -0.97636280452330082      -0.97636252136756441       -2.8315573641357616E-007 F
     orb,it,eci,eold,eci-eold=                    1                   96 -0.97636811495409670      -0.97636280452330082       -5.3104307958795616E-006 F
     orb,it,eci,eold,eci-eold=                    1                   97 -0.97637052247716571      -0.97636811495409670       -2.4075230690145943E-006 F
     orb,it,eci,eold,eci-eold=                    1                   98 -0.97637094734717222      -0.97637052247716571       -4.2487000651014739E-007 F
     orb,it,eci,eold,eci-eold=                    1                   99 -0.97637512979176000      -0.97637094734717222       -4.1824445877747252E-006 F
     orb,it,eci,eold,eci-eold=                    1                  100 -0.97637694388260510      -0.97637512979176000       -1.8140908450980930E-006 F
     orb,it,eci,eold,eci-eold=                    1                  101 -0.97637734916424090      -0.97637694388260510       -4.0528163580688670E-007 F
     orb,it,eci,eold,eci-eold=                    1                  102 -0.97638024976119808      -0.97637734916424090       -2.9005969571782586E-006 F
     orb,it,eci,eold,eci-eold=                    1                  103 -0.97638079689382729      -0.97638024976119808       -5.4713262920280670E-007 F
     orb,it,eci,eold,eci-eold=                    1                  104 -0.97638083354387062      -0.97638079689382729       -3.6650043333530391E-008 F
     orb,it,eci,eold,eci-eold=                    1                  105 -0.97638308143126384      -0.97638083354387062       -2.2478873932252341E-006 F
     orb,it,eci,eold,eci-eold=                    1                  106 -0.97638425312190646      -0.97638308143126384       -1.1716906426206819E-006 F
     orb,it,eci,eold,eci-eold=                    1                  107 -0.97638461484670047      -0.97638425312190646       -3.6172479400686797E-007 F
     orb,it,eci,eold,eci-eold=                    1                  108 -0.97638653824649735      -0.97638461484670047       -1.9233997968770566E-006 F
     orb,it,eci,eold,eci-eold=                    1                  109 -0.97638729366380161      -0.97638653824649735       -7.5541730426564868E-007 F
     orb,it,eci,eold,eci-eold=                    1                  110 -0.97638756645630786      -0.97638729366380161       -2.7279250625067419E-007 F
     orb,it,eci,eold,eci-eold=                    1                  111 -0.97638915043195762      -0.97638756645630786       -1.5839756497548763E-006 F
     orb,it,eci,eold,eci-eold=                    1                  112 -0.97638973165277543      -0.97638915043195762       -5.8122081780798140E-007 F
     orb,it,eci,eold,eci-eold=                    1                  113 -0.97638992355786758      -0.97638973165277543       -1.9190509215061269E-007 F
     orb,it,eci,eold,eci-eold=                    1                  114 -0.97639121943006502      -0.97638992355786758       -1.2958721974376530E-006 F
     orb,it,eci,eold,eci-eold=                    1                  115 -0.97639165997659605      -0.97639121943006502       -4.4054653103309249E-007 F
     orb,it,eci,eold,eci-eold=                    1                  116 -0.97639175457217309      -0.97639165997659605       -9.4595577038170120E-008 F
     orb,it,eci,eold,eci-eold=                    1                  117 -0.97639269494304315      -0.97639175457217309       -9.4037087006171305E-007 F
     orb,it,eci,eold,eci-eold=                    1                  118 -0.97639294826862888      -0.97639269494304315       -2.5332558573065711E-007 F
     orb,it,eci,eold,eci-eold=                    1                  119 -0.97639296654435070      -0.97639294826862888       -1.8275721824778657E-008 F
     orb,it,eci,eold,eci-eold=                    1                  120 -0.97639366521604043      -0.97639296654435070       -6.9867168972503890E-007 F
     orb,it,eci,eold,eci-eold=                    1                  121 -0.97639399942947858      -0.97639366521604043       -3.3421343814676874E-007 F
     orbital   1 current e= -0.156134E+00 error=0.713E-01 (eci= -0.976393999E+00 error=0.334E-06) iterations 121(   0 preconditioned, Ep,Sp= 20.0  200.0)
     orb,it,eci,eold,eci-eold=                    1                    1 -0.97639562856831397      -0.97639399942947858       -1.6291388353906200E-006 F
     orb,it,eci,eold,eci-eold=                    1                    2 -0.97639614865943614      -0.97639562856831397       -5.2009112216921949E-007 F
     orb,it,eci,eold,eci-eold=                    1                    3 -0.97639657330392660      -0.97639614865943614       -4.2464449045986896E-007 F
     orb,it,eci,eold,eci-eold=                    1                    4 -0.97639720857473911      -0.97639657330392660       -6.3527081251013584E-007 F
     orb,it,eci,eold,eci-eold=                    1                    5 -0.97639736532790899      -0.97639720857473911       -1.5675316988872368E-007 F
     orb,it,eci,eold,eci-eold=                    1                    6 -0.97639742875323132      -0.97639736532790899       -6.3425322327503864E-008 F
     orb,it,eci,eold,eci-eold=                    1                    7 -0.97639761998417784      -0.97639742875323132       -1.9123094652240269E-007 F
     orb,it,eci,eold,eci-eold=                    1                    8 -0.97639774372569776      -0.97639761998417784       -1.2374151991956239E-007 F
     orb,it,eci,eold,eci-eold=                    1                    9 -0.97639791212505311      -0.97639774372569776       -1.6839935534918027E-007 F
     orb,it,eci,eold,eci-eold=                    1                   10 -0.97639794744910957      -0.97639791212505311       -3.5324056457675113E-008 F
     orb,it,eci,eold,eci-eold=                    1                   11 -0.97639798391849897      -0.97639794744910957       -3.6469389397275620E-008 F
     orb,it,eci,eold,eci-eold=                    1                   12 -0.97639803127396840      -0.97639798391849897       -4.7355469434684494E-008 F
     orb,it,eci,eold,eci-eold=                    1                   13 -0.97639804192386914      -0.97639803127396840       -1.0649900739068130E-008 F
     orb,it,eci,eold,eci-eold=                    1                   14 -0.97639808239627890      -0.97639804192386914       -4.0472409756908689E-008 F
     orb,it,eci,eold,eci-eold=                    1                   15 -0.97639813647797924      -0.97639808239627890       -5.4081700340269379E-008 F
     orb,it,eci,eold,eci-eold=                    1                   16 -0.97639815854217060      -0.97639813647797924       -2.2064191362858310E-008 F
     orb,it,eci,eold,eci-eold=                    1                   17 -0.97639818350188567      -0.97639815854217060       -2.4959715072547795E-008 F
     orb,it,eci,eold,eci-eold=                    1                   18 -0.97639820021837509      -0.97639818350188567       -1.6716489414925206E-008 F
     orb,it,eci,eold,eci-eold=                    1                   19 -0.97639821880088695      -0.97639820021837509       -1.8582511862597073E-008 F
     orb,it,eci,eold,eci-eold=                    1                   20 -0.97639822755485328      -0.97639821880088695       -8.7539663295999048E-009 F
     orb,it,eci,eold,eci-eold=                    1                   21 -0.97639823997261854      -0.97639822755485328       -1.2417765260508418E-008 F
     orb,it,eci,eold,eci-eold=                    1                   22 -0.97639824609707071      -0.97639823997261854       -6.1244521676329100E-009 F
     orb,it,eci,eold,eci-eold=                    1                   23 -0.97639825261381419      -0.97639824609707071       -6.5167434781798761E-009 F
     orb,it,eci,eold,eci-eold=                    1                   24 -0.97639825261381419      -0.97639825261381419        0.0000000000000000      F
     orbital   1 current e= -0.156139E+00 error=0.507E-05 (eci= -0.976398253E+00 error=0.000E+00) iterations  24(   0 preconditioned, Ep,Sp= 20.0  200.0)
     orb,it,eci,eold,eci-eold=                    1                    1 -0.97639825881744902      -0.97639825260642354       -6.2110254717140378E-009 F
     orb,it,eci,eold,eci-eold=                    1                    2 -0.97639826140242547      -0.97639825881744902       -2.5849764551111321E-009 F
     orb,it,eci,eold,eci-eold=                    1                    3 -0.97639826581997502      -0.97639826140242547       -4.4175495483855798E-009 F
     orb,it,eci,eold,eci-eold=                    1                    4 -0.97639826842162747      -0.97639826581997502       -2.6016524490302118E-009 F
     orb,it,eci,eold,eci-eold=                    1                    5 -0.97639826960669618      -0.97639826842162747       -1.1850687098302615E-009 F
     orb,it,eci,eold,eci-eold=                    1                    6 -0.97639826960669618      -0.97639826960669618        0.0000000000000000      F
     orbital   1 current e= -0.156139E+00 error=0.314E-06 (eci= -0.976398270E+00 error=0.000E+00) iterations   6(   0 preconditioned, Ep,Sp= 20.0  200.0)
     orb,it,eci,eold,eci-eold=                    2                    1 -0.79795506511456804      -0.79792672947960364       -2.8335634964404832E-005 F
     orb,it,eci,eold,eci-eold=                    2                    2 -0.79797397441269102      -0.79795506511456804       -1.8909298122982143E-005 F
     orb,it,eci,eold,eci-eold=                    2                    3 -0.79821282350798684      -0.79797397441269102       -2.3884909529581222E-004 F
     orb,it,eci,eold,eci-eold=                    2                    4 -0.79832932595046846      -0.79821282350798684       -1.1650244248162522E-004 F
     orb,it,eci,eold,eci-eold=                    2                    5 -0.79847254248381250      -0.79832932595046846       -1.4321653334403717E-004 F
     orb,it,eci,eold,eci-eold=                    2                    6 -0.79849068815762891      -0.79847254248381250       -1.8145673816416519E-005 F
     orb,it,eci,eold,eci-eold=                    2                    7 -0.79849260282412082      -0.79849068815762891       -1.9146664919089673E-006 F
     orb,it,eci,eold,eci-eold=                    2                    8 -0.79852959497018117      -0.79849260282412082       -3.6992146060343956E-005 F
     orb,it,eci,eold,eci-eold=                    2                    9 -0.79855307236257289      -0.79852959497018117       -2.3477392391724194E-005 F
     orb,it,eci,eold,eci-eold=                    2                   10 -0.79857838886056243      -0.79855307236257289       -2.5316497989535947E-005 F
     orb,it,eci,eold,eci-eold=                    2                   11 -0.79863040285088205      -0.79857838886056243       -5.2013990319621506E-005 F
     orb,it,eci,eold,eci-eold=                    2                   12 -0.79869280651631946      -0.79863040285088205       -6.2403665437416045E-005 F
     orb,it,eci,eold,eci-eold=                    2                   13 -0.79872524888800611      -0.79869280651631946       -3.2442371686647320E-005 F
     orb,it,eci,eold,eci-eold=                    2                   14 -0.79880446068559663      -0.79872524888800611       -7.9211797590517108E-005 F
     orb,it,eci,eold,eci-eold=                    2                   15 -0.79882889446109562      -0.79880446068559663       -2.4433775498988730E-005 F
     orb,it,eci,eold,eci-eold=                    2                   16 -0.79883663556787443      -0.79882889446109562       -7.7411067788135668E-006 F
     orb,it,eci,eold,eci-eold=                    2                   17 -0.79887466340261604      -0.79883663556787443       -3.8027834741605204E-005 F
     orb,it,eci,eold,eci-eold=                    2                   18 -0.79889071399462575      -0.79887466340261604       -1.6050592009708708E-005 F
     orb,it,eci,eold,eci-eold=                    2                   19 -0.79890835737790833      -0.79889071399462575       -1.7643383282583969E-005 F
     orb,it,eci,eold,eci-eold=                    2                   20 -0.79895991001868205      -0.79890835737790833       -5.1552640773722125E-005 F
     orb,it,eci,eold,eci-eold=                    2                   21 -0.79898976108584630      -0.79895991001868205       -2.9851067164243794E-005 F
     orb,it,eci,eold,eci-eold=                    2                   22 -0.79901429514998212      -0.79898976108584630       -2.4534064135828260E-005 F
     orb,it,eci,eold,eci-eold=                    2                   23 -0.79902590458487055      -0.79901429514998212       -1.1609434888426584E-005 F
     orb,it,eci,eold,eci-eold=                    2                   24 -0.79905206132149531      -0.79902590458487055       -2.6156736624760590E-005 F
     orb,it,eci,eold,eci-eold=                    2                   25 -0.79905526295407636      -0.79905206132149531       -3.2016325810513280E-006 F
     orb,it,eci,eold,eci-eold=                    2                   26 -0.79905645090889221      -0.79905526295407636       -1.1879548158511000E-006 F
     orb,it,eci,eold,eci-eold=                    2                   27 -0.79907065478825712      -0.79905645090889221       -1.4203879364904637E-005 F
     orb,it,eci,eold,eci-eold=                    2                   28 -0.79907629312439954      -0.79907065478825712       -5.6383361424217071E-006 F
     orb,it,eci,eold,eci-eold=                    2                   29 -0.79908059832673284      -0.79907629312439954       -4.3052023332990075E-006 F
     orb,it,eci,eold,eci-eold=                    2                   30 -0.79909897343119674      -0.79908059832673284       -1.8375104463896896E-005 F
     orb,it,eci,eold,eci-eold=                    2                   31 -0.79910219694798035      -0.79909897343119674       -3.2235167836125456E-006 F
     orb,it,eci,eold,eci-eold=                    2                   32 -0.79910330329639445      -0.79910219694798035       -1.1063484141038415E-006 F
     orb,it,eci,eold,eci-eold=                    2                   33 -0.79911793085275939      -0.79910330329639445       -1.4627556364943395E-005 F
     orb,it,eci,eold,eci-eold=                    2                   34 -0.79911835043726398      -0.79911793085275939       -4.1958450458512431E-007 F
     orb,it,eci,eold,eci-eold=                    2                   35 -0.79911899620698368      -0.79911835043726398       -6.4576971969820818E-007 F
     orb,it,eci,eold,eci-eold=                    2                   36 -0.79913011473419771      -0.79911899620698368       -1.1118527214026841E-005 F
     orb,it,eci,eold,eci-eold=                    2                   37 -0.79913668628871526      -0.79913011473419771       -6.5715545175537571E-006 F
     orb,it,eci,eold,eci-eold=                    2                   38 -0.79914153853258529      -0.79913668628871526       -4.8522438700349113E-006 F
     orb,it,eci,eold,eci-eold=                    2                   39 -0.79914371827169595      -0.79914153853258529       -2.1797391106526121E-006 F
     orb,it,eci,eold,eci-eold=                    2                   40 -0.79914922749619399      -0.79914371827169595       -5.5092244980459171E-006 F
     orb,it,eci,eold,eci-eold=                    2                   41 -0.79914992966447462      -0.79914922749619399       -7.0216828063074388E-007 F
     orb,it,eci,eold,eci-eold=                    2                   42 -0.79914999260127750      -0.79914992966447462       -6.2936802880386722E-008 F
     orb,it,eci,eold,eci-eold=                    2                   43 -0.79915326224587924      -0.79914999260127750       -3.2696446017332903E-006 F
     orb,it,eci,eold,eci-eold=                    2                   44 -0.79915499020187508      -0.79915326224587924       -1.7279559958449653E-006 F
     orb,it,eci,eold,eci-eold=                    2                   45 -0.79915575317031284      -0.79915499020187508       -7.6296843776191281E-007 F
     orb,it,eci,eold,eci-eold=                    2                   46 -0.79915912481579787      -0.79915575317031284       -3.3716454850285515E-006 F
     orb,it,eci,eold,eci-eold=                    2                   47 -0.79916011871472203      -0.79915912481579787       -9.9389892416201775E-007 F
     orb,it,eci,eold,eci-eold=                    2                   48 -0.79916019747142863      -0.79916011871472203       -7.8756706600735527E-008 F
     orb,it,eci,eold,eci-eold=                    2                   49 -0.79916224374713640      -0.79916019747142863       -2.0462757077677196E-006 F
     orb,it,eci,eold,eci-eold=                    2                   50 -0.79916345877751649      -0.79916224374713640       -1.2150303800861906E-006 F
     orb,it,eci,eold,eci-eold=                    2                   51 -0.79916398309735648      -0.79916345877751649       -5.2431983998957321E-007 F
     orb,it,eci,eold,eci-eold=                    2                   52 -0.79916580090180123      -0.79916398309735648       -1.8178044447481057E-006 F
     orb,it,eci,eold,eci-eold=                    2                   53 -0.79916615345503172      -0.79916580090180123       -3.5255323049820930E-007 F
     orb,it,eci,eold,eci-eold=                    2                   54 -0.79916620984174480      -0.79916615345503172       -5.6386713076506112E-008 F
     orb,it,eci,eold,eci-eold=                    2                   55 -0.79916738144426747      -0.79916620984174480       -1.1716025226649052E-006 F
     orb,it,eci,eold,eci-eold=                    2                   56 -0.79916813005961473      -0.79916738144426747       -7.4861534726800016E-007 F
     orb,it,eci,eold,eci-eold=                    2                   57 -0.79916851483561813      -0.79916813005961473       -3.8477600339259510E-007 F
     orb,it,eci,eold,eci-eold=                    2                   58 -0.79916963262418772      -0.79916851483561813       -1.1177885695934364E-006 F
     orb,it,eci,eold,eci-eold=                    2                   59 -0.79916976879223545      -0.79916963262418772       -1.3616804772631497E-007 F
     orb,it,eci,eold,eci-eold=                    2                   60 -0.79916979344862926      -0.79916976879223545       -2.4656393815547517E-008 F
     orb,it,eci,eold,eci-eold=                    2                   61 -0.79917058300502919      -0.79916979344862926       -7.8955639992717153E-007 F
     orb,it,eci,eold,eci-eold=                    2                   62 -0.79917107210854366      -0.79917058300502919       -4.8910351446718181E-007 F
     orb,it,eci,eold,eci-eold=                    2                   63 -0.79917125648141707      -0.79917107210854366       -1.8437287341299680E-007 F
     orb,it,eci,eold,eci-eold=                    2                   64 -0.79917194010805859      -0.79917125648141707       -6.8362664151777608E-007 F
     orb,it,eci,eold,eci-eold=                    2                   65 -0.79917213956930522      -0.79917194010805859       -1.9946124663050568E-007 F
     orb,it,eci,eold,eci-eold=                    2                   66 -0.79917220203705153      -0.79917213956930522       -6.2467746309025074E-008 F
     orb,it,eci,eold,eci-eold=                    2                   67 -0.79917268385879314      -0.79917220203705153       -4.8182174161581770E-007 F
     orb,it,eci,eold,eci-eold=                    2                   68 -0.79917286151788058      -0.79917268385879314       -1.7765908744138414E-007 F
     orb,it,eci,eold,eci-eold=                    2                   69 -0.79917291464727347      -0.79917286151788058       -5.3129392885153948E-008 F
     orb,it,eci,eold,eci-eold=                    2                   70 -0.79917327517241776      -0.79917291464727347       -3.6052514429396609E-007 F
     orb,it,eci,eold,eci-eold=                    2                   71 -0.79917340532026881      -0.79917327517241776       -1.3014785105180948E-007 F
     orb,it,eci,eold,eci-eold=                    2                   72 -0.79917345080552749      -0.79917340532026881       -4.5485258670652229E-008 F
     orb,it,eci,eold,eci-eold=                    2                   73 -0.79917375821646308      -0.79917345080552749       -3.0741093559605304E-007 F
     orb,it,eci,eold,eci-eold=                    2                   74 -0.79917389283333562      -0.79917375821646308       -1.3461687253801813E-007 F
     orb,it,eci,eold,eci-eold=                    2                   75 -0.79917393091849886      -0.79917389283333562       -3.8085163245327180E-008 F
     orb,it,eci,eold,eci-eold=                    2                   76 -0.79917415369803879      -0.79917393091849886       -2.2277953992677624E-007 F
     orb,it,eci,eold,eci-eold=                    2                   77 -0.79917424247420588      -0.79917415369803879       -8.8776167084247959E-008 F
     orb,it,eci,eold,eci-eold=                    2                   78 -0.79917427657078277      -0.79917424247420588       -3.4096576895237263E-008 F
     orb,it,eci,eold,eci-eold=                    2                   79 -0.79917445966767875      -0.79917427657078277       -1.8309689597817425E-007 F
     orb,it,eci,eold,eci-eold=                    2                   80 -0.79917452936452427      -0.79917445966767875       -6.9696845517164263E-008 F
     orb,it,eci,eold,eci-eold=                    2                   81 -0.79917455427717998      -0.79917452936452427       -2.4912655716136101E-008 F
     orb,it,eci,eold,eci-eold=                    2                   82 -0.79917470182040840      -0.79917455427717998       -1.4754322841259437E-007 F
     orb,it,eci,eold,eci-eold=                    2                   83 -0.79917475770494995      -0.79917470182040840       -5.5884541549922062E-008 F
     orb,it,eci,eold,eci-eold=                    2                   84 -0.79917477629901901      -0.79917475770494995       -1.8594069062238816E-008 F
     orb,it,eci,eold,eci-eold=                    2                   85 -0.79917490325973373      -0.79917477629901901       -1.2696071471918202E-007 F
     orb,it,eci,eold,eci-eold=                    2                   86 -0.79917495283001649      -0.79917490325973373       -4.9570282767419371E-008 F
     orb,it,eci,eold,eci-eold=                    2                   87 -0.79917496253024689      -0.79917495283001649       -9.7002303967030912E-009 F
     orb,it,eci,eold,eci-eold=                    2                   88 -0.79917505645030062      -0.79917496253024689       -9.3920053734208864E-008 F
     orb,it,eci,eold,eci-eold=                    2                   89 -0.79917509762275896      -0.79917505645030062       -4.1172458331573125E-008 F
     orb,it,eci,eold,eci-eold=                    2                   90 -0.79917510810808912      -0.79917509762275896       -1.0485330159681894E-008 F
     orb,it,eci,eold,eci-eold=                    2                   91 -0.79917518316753977      -0.79917510810808912       -7.5059450654890725E-008 F
     orb,it,eci,eold,eci-eold=                    2                   92 -0.79917521539404057      -0.79917518316753977       -3.2226500801257885E-008 F
     orb,it,eci,eold,eci-eold=                    2                   93 -0.79917522464046198      -0.79917521539404057       -9.2464214063170402E-009 F
     orb,it,eci,eold,eci-eold=                    2                   94 -0.79917528405554217      -0.79917522464046198       -5.9415080189140212E-008 F
     orb,it,eci,eold,eci-eold=                    2                   95 -0.79917530762113964      -0.79917528405554217       -2.3565597473407252E-008 F
     orb,it,eci,eold,eci-eold=                    2                   96 -0.79917531376972273      -0.79917530762113964       -6.1485830871177427E-009 F
     orb,it,eci,eold,eci-eold=                    2                   97 -0.79917535722958899      -0.79917531376972273       -4.3459866261308377E-008 F
     orb,it,eci,eold,eci-eold=                    2                   98 -0.79917537578024223      -0.79917535722958899       -1.8550653235749337E-008 F
     orb,it,eci,eold,eci-eold=                    2                   99 -0.79917538197865912      -0.79917537578024223       -6.1984168908679749E-009 F
     orb,it,eci,eold,eci-eold=                    2                  100 -0.79917541501177314      -0.79917538197865912       -3.3033114021918664E-008 F
     orb,it,eci,eold,eci-eold=                    2                  101 -0.79917542951206988      -0.79917541501177314       -1.4500296741104535E-008 F
     orb,it,eci,eold,eci-eold=                    2                  102 -0.79917543636663935      -0.79917542951206988       -6.8545694675847813E-009 F
     orb,it,eci,eold,eci-eold=                    2                  103 -0.79917546532485173      -0.79917543636663935       -2.8958212383578541E-008 F
     orb,it,eci,eold,eci-eold=                    2                  104 -0.79917547586892679      -0.79917546532485173       -1.0544075057516977E-008 F
     orb,it,eci,eold,eci-eold=                    2                  105 -0.79917547981141546      -0.79917547586892679       -3.9424886688621541E-009 F
     orb,it,eci,eold,eci-eold=                    2                  106 -0.79917550079202537      -0.79917547981141546       -2.0980609916065873E-008 F
     orb,it,eci,eold,eci-eold=                    2                  107 -0.79917550716929742      -0.79917550079202537       -6.3772720437782482E-009 F
     orb,it,eci,eold,eci-eold=                    2                  108 -0.79917550932651393      -0.79917550716929742       -2.1572165165295587E-009 F
     orb,it,eci,eold,eci-eold=                    2                  109 -0.79917552602710351      -0.79917550932651393       -1.6700589577922642E-008 F
     orb,it,eci,eold,eci-eold=                    2                  110 -0.79917553299046828      -0.79917552602710351       -6.9633647736822013E-009 F
     orb,it,eci,eold,eci-eold=                    2                  111 -0.79917553522274143      -0.79917553299046828       -2.2322731441093424E-009 F
     orb,it,eci,eold,eci-eold=                    2                  112 -0.79917554915210354      -0.79917553522274143       -1.3929362108200394E-008 F
     orb,it,eci,eold,eci-eold=                    2                  113 -0.79917555449005029      -0.79917554915210354       -5.3379467512826295E-009 F
     orb,it,eci,eold,eci-eold=                    2                  114 -0.79917555594085288      -0.79917555449005029       -1.4508025891757370E-009 F
     orb,it,eci,eold,eci-eold=                    2                  115 -0.79917556746450624      -0.79917555594085288       -1.1523653364875486E-008 F
     orb,it,eci,eold,eci-eold=                    2                  116 -0.79917557254613603      -0.79917556746450624       -5.0816297836320246E-009 F
     orb,it,eci,eold,eci-eold=                    2                  117 -0.79917557368903602      -0.79917557254613603       -1.1428999968643438E-009 F
     orb,it,eci,eold,eci-eold=                    2                  118 -0.79917558228398811      -0.79917557368903602       -8.5949520833850102E-009 F
     orb,it,eci,eold,eci-eold=                    2                  119 -0.79917558592667304      -0.79917558228398811       -3.6426849314707965E-009 F
     orb,it,eci,eold,eci-eold=                    2                  120 -0.79917558702420322      -0.79917558592667304       -1.0975301778515245E-009 F
     orb,it,eci,eold,eci-eold=                    2                  121 -0.79917559413959127      -0.79917558702420322       -7.1153880565333338E-009 F
     orbital   2 current e=  0.345160E+00 error=0.114E+00 (eci= -0.799175594E+00 error=0.712E-08) iterations 121(   0 preconditioned, Ep,Sp= 20.0  200.0)
     orb,it,eci,eold,eci-eold=                    2                    1 -0.79917561548381955      -0.79917559413959127       -2.1344228273711963E-008 F
     orb,it,eci,eold,eci-eold=                    2                    2 -0.79917562071666393      -0.79917561548381955       -5.2328443800320201E-009 F
     orb,it,eci,eold,eci-eold=                    2                    3 -0.79917562308103951      -0.79917562071666393       -2.3643755842073233E-009 F
     orb,it,eci,eold,eci-eold=                    2                    4 -0.79917562366364903      -0.79917562308103951       -5.8260951618649415E-010 F
     orbital   2 current e=  0.345172E+00 error=0.118E-04 (eci= -0.799175624E+00 error=0.583E-09) iterations   4(   0 preconditioned, Ep,Sp= 20.0  200.0)
     orb,it,eci,eold,eci-eold=                    2                    1 -0.79917563070775044      -0.79917562366364903       -7.0441014132782698E-009 F
     orb,it,eci,eold,eci-eold=                    2                    2 -0.79917563374820388      -0.79917563070775044       -3.0404534445693798E-009 F
     orb,it,eci,eold,eci-eold=                    2                    3 -0.79917563421433191      -0.79917563374820388       -4.6612802506729167E-010 F
     orbital   2 current e=  0.345180E+00 error=0.791E-05 (eci= -0.799175634E+00 error=0.466E-09) iterations   3(   0 preconditioned, Ep,Sp= 20.0  200.0)
     orb,it,eci,eold,eci-eold=                    3                    1 -0.79681223088838127      -0.79668840948001340       -1.2382140836786348E-004 F
     orb,it,eci,eold,eci-eold=                    3                    2 -0.79684096015308159      -0.79681223088838127       -2.8729264700322332E-005 F
     orb,it,eci,eold,eci-eold=                    3                    3 -0.79686888558098135      -0.79684096015308159       -2.7925427899755384E-005 F
     orb,it,eci,eold,eci-eold=                    3                    4 -0.79688859609823626      -0.79686888558098135       -1.9710517254911686E-005 F
     orb,it,eci,eold,eci-eold=                    3                    5 -0.79693571289265808      -0.79688859609823626       -4.7116794421819819E-005 F
     orb,it,eci,eold,eci-eold=                    3                    6 -0.79696010287252439      -0.79693571289265808       -2.4389979866312750E-005 F
     orb,it,eci,eold,eci-eold=                    3                    7 -0.79698778938254078      -0.79696010287252439       -2.7686510016389221E-005 F
     orb,it,eci,eold,eci-eold=                    3                    8 -0.79700568583565290      -0.79698778938254078       -1.7896453112120625E-005 F
     orb,it,eci,eold,eci-eold=                    3                    9 -0.79702684419403014      -0.79700568583565290       -2.1158358377237896E-005 F
     orb,it,eci,eold,eci-eold=                    3                   10 -0.79703693642125328      -0.79702684419403014       -1.0092227223146288E-005 F
     orb,it,eci,eold,eci-eold=                    3                   11 -0.79705437696213666      -0.79703693642125328       -1.7440540883373323E-005 F
     orb,it,eci,eold,eci-eold=                    3                   12 -0.79705573625415638      -0.79705437696213666       -1.3592920197202929E-006 F
     orb,it,eci,eold,eci-eold=                    3                   13 -0.79706057651865669      -0.79705573625415638       -4.8402645003164935E-006 F
     orb,it,eci,eold,eci-eold=                    3                   14 -0.79707367100635884      -0.79706057651865669       -1.3094487702147717E-005 F
     orb,it,eci,eold,eci-eold=                    3                   15 -0.79707702028457006      -0.79707367100635884       -3.3492782112176656E-006 F
     orb,it,eci,eold,eci-eold=                    3                   16 -0.79708148278061797      -0.79707702028457006       -4.4624960479078268E-006 F
     orb,it,eci,eold,eci-eold=                    3                   17 -0.79709460649656227      -0.79708148278061797       -1.3123715944307612E-005 F
     orb,it,eci,eold,eci-eold=                    3                   18 -0.79709858743016082      -0.79709460649656227       -3.9809335985463434E-006 F
     orb,it,eci,eold,eci-eold=                    3                   19 -0.79710172180834604      -0.79709858743016082       -3.1343781852211094E-006 F
     orb,it,eci,eold,eci-eold=                    3                   20 -0.79711281410847812      -0.79710172180834604       -1.1092300132076183E-005 F
     orb,it,eci,eold,eci-eold=                    3                   21 -0.79711339483159538      -0.79711281410847812       -5.8072311726053982E-007 F
     orb,it,eci,eold,eci-eold=                    3                   22 -0.79711418943820045      -0.79711339483159538       -7.9460660507013614E-007 F
     orb,it,eci,eold,eci-eold=                    3                   23 -0.79712236957352423      -0.79711418943820045       -8.1801353237764829E-006 F
     orb,it,eci,eold,eci-eold=                    3                   24 -0.79712652727574529      -0.79712236957352423       -4.1577022210637082E-006 F
     orb,it,eci,eold,eci-eold=                    3                   25 -0.79713102339879693      -0.79712652727574529       -4.4961230516449291E-006 F
     orb,it,eci,eold,eci-eold=                    3                   26 -0.79713351404045762      -0.79713102339879693       -2.4906416606906845E-006 F
     orb,it,eci,eold,eci-eold=                    3                   27 -0.79713749567972358      -0.79713351404045762       -3.9816392659597355E-006 F
     orb,it,eci,eold,eci-eold=                    3                   28 -0.79713786407099452      -0.79713749567972358       -3.6839127093291069E-007 F
     orb,it,eci,eold,eci-eold=                    3                   29 -0.79713865908339332      -0.79713786407099452       -7.9501239880208630E-007 F
     orb,it,eci,eold,eci-eold=                    3                   30 -0.79714190650078665      -0.79713865908339332       -3.2474173933261241E-006 F
     orb,it,eci,eold,eci-eold=                    3                   31 -0.79714264622757114      -0.79714190650078665       -7.3972678449329976E-007 F
     orb,it,eci,eold,eci-eold=                    3                   32 -0.79714303793595509      -0.79714264622757114       -3.9170838395108376E-007 F
     orb,it,eci,eold,eci-eold=                    3                   33 -0.79714585389417003      -0.79714303793595509       -2.8159582149411833E-006 F
     orb,it,eci,eold,eci-eold=                    3                   34 -0.79714686902983878      -0.79714585389417003       -1.0151356687471136E-006 F
     orb,it,eci,eold,eci-eold=                    3                   35 -0.79714715291746774      -0.79714686902983878       -2.8388762896014441E-007 F
     orb,it,eci,eold,eci-eold=                    3                   36 -0.79714972531028105      -0.79714715291746774       -2.5723928133158935E-006 F
     orb,it,eci,eold,eci-eold=                    3                   37 -0.79715085195471436      -0.79714972531028105       -1.1266444333024594E-006 F
     orb,it,eci,eold,eci-eold=                    3                   38 -0.79715101402555755      -0.79715085195471436       -1.6207084319042053E-007 F
     orb,it,eci,eold,eci-eold=                    3                   39 -0.79715276720161232      -0.79715101402555755       -1.7531760547750963E-006 F
     orb,it,eci,eold,eci-eold=                    3                   40 -0.79715344385420139      -0.79715276720161232       -6.7665258907112502E-007 F
     orb,it,eci,eold,eci-eold=                    3                   41 -0.79715363556518892      -0.79715344385420139       -1.9171098752934768E-007 F
     orb,it,eci,eold,eci-eold=                    3                   42 -0.79715510784430244      -0.79715363556518892       -1.4722791135124424E-006 F
     orb,it,eci,eold,eci-eold=                    3                   43 -0.79715580369224293      -0.79715510784430244       -6.9584794049060150E-007 F
     orb,it,eci,eold,eci-eold=                    3                   44 -0.79715606882423695      -0.79715580369224293       -2.6513199402611320E-007 F
     orb,it,eci,eold,eci-eold=                    3                   45 -0.79715724170217706      -0.79715606882423695       -1.1728779401032341E-006 F
     orb,it,eci,eold,eci-eold=                    3                   46 -0.79715761034864618      -0.79715724170217706       -3.6864646912881938E-007 F
     orb,it,eci,eold,eci-eold=                    3                   47 -0.79715779757629623      -0.79715761034864618       -1.8722765005030340E-007 F
     orb,it,eci,eold,eci-eold=                    3                   48 -0.79715883307888302      -0.79715779757629623       -1.0355025867880840E-006 F
     orb,it,eci,eold,eci-eold=                    3                   49 -0.79715912160059910      -0.79715883307888302       -2.8852171607418597E-007 F
     orb,it,eci,eold,eci-eold=                    3                   50 -0.79715920267040052      -0.79715912160059910       -8.1069801427524624E-008 F
     orb,it,eci,eold,eci-eold=                    3                   51 -0.79716008041000819      -0.79715920267040052       -8.7773960766313053E-007 F
     orb,it,eci,eold,eci-eold=                    3                   52 -0.79716039603189792      -0.79716008041000819       -3.1562188973488503E-007 F
     orb,it,eci,eold,eci-eold=                    3                   53 -0.79716042979747215      -0.79716039603189792       -3.3765574225519401E-008 F
     orb,it,eci,eold,eci-eold=                    3                   54 -0.79716108711123002      -0.79716042979747215       -6.5731375786803881E-007 F
     orb,it,eci,eold,eci-eold=                    3                   55 -0.79716135913649944      -0.79716108711123002       -2.7202526942105010E-007 F
     orb,it,eci,eold,eci-eold=                    3                   56 -0.79716139931981544      -0.79716135913649944       -4.0183316007968983E-008 F
     orb,it,eci,eold,eci-eold=                    3                   57 -0.79716187433008501      -0.79716139931981544       -4.7501026956275894E-007 F
     orb,it,eci,eold,eci-eold=                    3                   58 -0.79716209148368522      -0.79716187433008501       -2.1715360021268282E-007 F
     orb,it,eci,eold,eci-eold=                    3                   59 -0.79716217622490571      -0.79716209148368522       -8.4741220485184954E-008 F
     orb,it,eci,eold,eci-eold=                    3                   60 -0.79716260961382379      -0.79716217622490571       -4.3338891808630819E-007 F
     orb,it,eci,eold,eci-eold=                    3                   61 -0.79716274803341625      -0.79716260961382379       -1.3841959245475266E-007 F
     orb,it,eci,eold,eci-eold=                    3                   62 -0.79716279383029132      -0.79716274803341625       -4.5796875070003296E-008 F
     orb,it,eci,eold,eci-eold=                    3                   63 -0.79716316336766135      -0.79716279383029132       -3.6953737003742049E-007 F
     orb,it,eci,eold,eci-eold=                    3                   64 -0.79716328500655675      -0.79716316336766135       -1.2163889540062200E-007 F
     orb,it,eci,eold,eci-eold=                    3                   65 -0.79716330397888502      -0.79716328500655675       -1.8972328263977545E-008 F
     orb,it,eci,eold,eci-eold=                    3                   66 -0.79716361056836926      -0.79716330397888502       -3.0658948424466814E-007 F
     orb,it,eci,eold,eci-eold=                    3                   67 -0.79716373167420240      -0.79716361056836926       -1.2110583313962309E-007 F
     orb,it,eci,eold,eci-eold=                    3                   68 -0.79716373824657993      -0.79716373167420240       -6.5723775310999599E-009 F
     orb,it,eci,eold,eci-eold=                    3                   69 -0.79716394911541966      -0.79716373824657993       -2.1086883972287751E-007 F
     orb,it,eci,eold,eci-eold=                    3                   70 -0.79716402714159185      -0.79716394911541966       -7.8026172189993304E-008 F
     orb,it,eci,eold,eci-eold=                    3                   71 -0.79716403844271777      -0.79716402714159185       -1.1301125923957045E-008 F
     orb,it,eci,eold,eci-eold=                    3                   72 -0.79716421378156221      -0.79716403844271777       -1.7533884444365100E-007 F
     orb,it,eci,eold,eci-eold=                    3                   73 -0.79716431701661716      -0.79716421378156221       -1.0323505494902463E-007 F
     orb,it,eci,eold,eci-eold=                    3                   74 -0.79716435825697762      -0.79716431701661716       -4.1240360459937619E-008 F
     orb,it,eci,eold,eci-eold=                    3                   75 -0.79716453096468842      -0.79716435825697762       -1.7270771079935798E-007 F
     orb,it,eci,eold,eci-eold=                    3                   76 -0.79716458352144692      -0.79716453096468842       -5.2556758500799106E-008 F
     orb,it,eci,eold,eci-eold=                    3                   77 -0.79716459820831154      -0.79716458352144692       -1.4686864613366879E-008 F
     orb,it,eci,eold,eci-eold=                    3                   78 -0.79716473299201018      -0.79716459820831154       -1.3478369864650119E-007 F
     orb,it,eci,eold,eci-eold=                    3                   79 -0.79716477166304589      -0.79716473299201018       -3.8671035706983048E-008 F
     orb,it,eci,eold,eci-eold=                    3                   80 -0.79716477317110057      -0.79716477166304589       -1.5080546811319095E-009 F
     orb,it,eci,eold,eci-eold=                    3                   81 -0.79716486969329958      -0.79716477317110057       -9.6522199011239707E-008 F
     orb,it,eci,eold,eci-eold=                    3                   82 -0.79716490541420881      -0.79716486969329958       -3.5720909230541054E-008 F
     orb,it,eci,eold,eci-eold=                    3                   83 -0.79716490897255254      -0.79716490541420881       -3.5583437307806776E-009 F
     orb,it,eci,eold,eci-eold=                    3                   84 -0.79716498477306819      -0.79716490897255254       -7.5800515642043820E-008 F
     orb,it,eci,eold,eci-eold=                    3                   85 -0.79716501909636805      -0.79716498477306819       -3.4323299868965762E-008 F
     orb,it,eci,eold,eci-eold=                    3                   86 -0.79716502714376847      -0.79716501909636805       -8.0474004127140120E-009 F
     orb,it,eci,eold,eci-eold=                    3                   87 -0.79716508878404468      -0.79716502714376847       -6.1640276216579082E-008 F
     orb,it,eci,eold,eci-eold=                    3                   88 -0.79716511322637695      -0.79716508878404468       -2.4442332269281053E-008 F
     orb,it,eci,eold,eci-eold=                    3                   89 -0.79716512103070136      -0.79716511322637695       -7.8043244089442965E-009 F
     orb,it,eci,eold,eci-eold=                    3                   90 -0.79716517439305212      -0.79716512103070136       -5.3362350760366439E-008 F
     orb,it,eci,eold,eci-eold=                    3                   91 -0.79716519514040962      -0.79716517439305212       -2.0747357498684948E-008 F
     orb,it,eci,eold,eci-eold=                    3                   92 -0.79716520107768507      -0.79716519514040962       -5.9372754490638613E-009 F
     orb,it,eci,eold,eci-eold=                    3                   93 -0.79716524398529476      -0.79716520107768507       -4.2907609687503623E-008 F
     orb,it,eci,eold,eci-eold=                    3                   94 -0.79716525905918068      -0.79716524398529476       -1.5073885917260554E-008 F
     orb,it,eci,eold,eci-eold=                    3                   95 -0.79716526316603198      -0.79716525905918068       -4.1068513034758780E-009 F
     orb,it,eci,eold,eci-eold=                    3                   96 -0.79716529911971878      -0.79716526316603198       -3.5953686805534346E-008 F
     orb,it,eci,eold,eci-eold=                    3                   97 -0.79716531045771588      -0.79716529911971878       -1.1337997096738661E-008 F
     orb,it,eci,eold,eci-eold=                    3                   98 -0.79716531179456340      -0.79716531045771588       -1.3368475215713715E-009 F
     orb,it,eci,eold,eci-eold=                    3                   99 -0.79716534007191853      -0.79716531179456340       -2.8277355124117776E-008 F
     orb,it,eci,eold,eci-eold=                    3                  100 -0.79716535103061659      -0.79716534007191853       -1.0958698060115069E-008 F
     orb,it,eci,eold,eci-eold=                    3                  101 -0.79716535196941196      -0.79716535103061659       -9.3879537477192798E-010 F
     orbital   3 current e=  0.377594E+00 error=0.140E-01 (eci= -0.797165352E+00 error=0.939E-09) iterations 101(   0 preconditioned, Ep,Sp= 20.0  200.0)
     orb,it,eci,eold,eci-eold=                    3                    1 -0.79716536087775081      -0.79716535196941196       -8.9083388443711442E-009 F
     orb,it,eci,eold,eci-eold=                    3                    2 -0.79716536192491239      -0.79716536087775081       -1.0471615796703304E-009 F
     orb,it,eci,eold,eci-eold=                    3                    3 -0.79716544452703308      -0.79716536192491239       -8.2602120698993531E-008 F
     orb,it,eci,eold,eci-eold=                    3                    4 -0.79716547378283464      -0.79716544452703308       -2.9255801559102679E-008 F
     orb,it,eci,eold,eci-eold=                    3                    5 -0.79716547609997024      -0.79716547378283464       -2.3171355945095229E-009 F
     orb,it,eci,eold,eci-eold=                    3                    6 -0.79716547670656679      -0.79716547609997024       -6.0659655076733543E-010 F
     orbital   3 current e=  0.377397E+00 error=0.197E-03 (eci= -0.797165477E+00 error=0.607E-09) iterations   6(   0 preconditioned, Ep,Sp= 20.0  200.0)
     orb,it,eci,eold,eci-eold=                    3                    1 -0.79716549127815806      -0.79716547670656679       -1.4571591266943074E-008 F
     orb,it,eci,eold,eci-eold=                    3                    2 -0.79716549737991249      -0.79716549127815806       -6.1017544350505659E-009 F
     orb,it,eci,eold,eci-eold=                    3                    3 -0.79716550215162840      -0.79716549737991249       -4.7717159112892205E-009 F
     orb,it,eci,eold,eci-eold=                    3                    4 -0.79716550574693645      -0.79716550215162840       -3.5953080512740598E-009 F
     orb,it,eci,eold,eci-eold=                    3                    5 -0.79716550913414252      -0.79716550574693645       -3.3872060711814811E-009 F
     orb,it,eci,eold,eci-eold=                    3                    6 -0.79716550952289067      -0.79716550913414252       -3.8874814478617736E-010 F
     orbital   3 current e=  0.377254E+00 error=0.143E-03 (eci= -0.797165510E+00 error=0.389E-09) iterations   6(   0 preconditioned, Ep,Sp= 20.0  200.0)
     orb,it,eci,eold,eci-eold=                    4                    1 -0.79653413852502963      -0.79644477699644867       -8.9361528580966798E-005 F
     orb,it,eci,eold,eci-eold=                    4                    2 -0.79654341355770764      -0.79653413852502963       -9.2750326780022263E-006 F
     orb,it,eci,eold,eci-eold=                    4                    3 -0.79658305716154154      -0.79654341355770764       -3.9643603833905416E-005 F
     orb,it,eci,eold,eci-eold=                    4                    4 -0.79661300702005367      -0.79658305716154154       -2.9949858512123839E-005 F
     orb,it,eci,eold,eci-eold=                    4                    5 -0.79661914786959498      -0.79661300702005367       -6.1408495413139974E-006 F
     orb,it,eci,eold,eci-eold=                    4                    6 -0.79661971023788547      -0.79661914786959498       -5.6236829049094439E-007 F
     orb,it,eci,eold,eci-eold=                    4                    7 -0.79663836517820275      -0.79661971023788547       -1.8654940317275326E-005 F
     orb,it,eci,eold,eci-eold=                    4                    8 -0.79664906340386088      -0.79663836517820275       -1.0698225658134497E-005 F
     orb,it,eci,eold,eci-eold=                    4                    9 -0.79665983005726571      -0.79664906340386088       -1.0766653404825632E-005 F
     orb,it,eci,eold,eci-eold=                    4                   10 -0.79666402047358109      -0.79665983005726571       -4.1904163153860807E-006 F
     orb,it,eci,eold,eci-eold=                    4                   11 -0.79666818789944460      -0.79666402047358109       -4.1674258635104877E-006 F
     orb,it,eci,eold,eci-eold=                    4                   12 -0.79667315107915948      -0.79666818789944460       -4.9631797148785850E-006 F
     orb,it,eci,eold,eci-eold=                    4                   13 -0.79667659997823159      -0.79667315107915948       -3.4488990721115442E-006 F
     orb,it,eci,eold,eci-eold=                    4                   14 -0.79668612610520029      -0.79667659997823159       -9.5261269686952588E-006 F
     orb,it,eci,eold,eci-eold=                    4                   15 -0.79668846202165633      -0.79668612610520029       -2.3359164560421419E-006 F
     orb,it,eci,eold,eci-eold=                    4                   16 -0.79668890083575494      -0.79668846202165633       -4.3881409861334930E-007 F
     orb,it,eci,eold,eci-eold=                    4                   17 -0.79669384713004021      -0.79668890083575494       -4.9462942852684932E-006 F
     orb,it,eci,eold,eci-eold=                    4                   18 -0.79669610379172529      -0.79669384713004021       -2.2566616850738797E-006 F
     orb,it,eci,eold,eci-eold=                    4                   19 -0.79669734447827856      -0.79669610379172529       -1.2406865532721412E-006 F
     orb,it,eci,eold,eci-eold=                    4                   20 -0.79670212468369028      -0.79669734447827856       -4.7802054117251913E-006 F
     orb,it,eci,eold,eci-eold=                    4                   21 -0.79670394600499272      -0.79670212468369028       -1.8213213024420583E-006 F
     orb,it,eci,eold,eci-eold=                    4                   22 -0.79670482355916572      -0.79670394600499272       -8.7755417299550942E-007 F
     orb,it,eci,eold,eci-eold=                    4                   23 -0.79670797071486665      -0.79670482355916572       -3.1471557009332685E-006 F
     orb,it,eci,eold,eci-eold=                    4                   24 -0.79671017123534404      -0.79670797071486665       -2.2005204773911657E-006 F
     orb,it,eci,eold,eci-eold=                    4                   25 -0.79671263392986091      -0.79671017123534404       -2.4626945168693126E-006 F
     orb,it,eci,eold,eci-eold=                    4                   26 -0.79671270694725504      -0.79671263392986091       -7.3017394131014157E-008 F
     orb,it,eci,eold,eci-eold=                    4                   27 -0.79671334031361807      -0.79671270694725504       -6.3336636302313565E-007 F
     orb,it,eci,eold,eci-eold=                    4                   28 -0.79671536428808132      -0.79671334031361807       -2.0239744632499779E-006 F
     orb,it,eci,eold,eci-eold=                    4                   29 -0.79671659692236574      -0.79671536428808132       -1.2326342844204419E-006 F
     orb,it,eci,eold,eci-eold=                    4                   30 -0.79671787361208457      -0.79671659692236574       -1.2766897188321025E-006 F
     orb,it,eci,eold,eci-eold=                    4                   31 -0.79671863440695179      -0.79671787361208457       -7.6079486721614131E-007 F
     orb,it,eci,eold,eci-eold=                    4                   32 -0.79672027139556900      -0.79671863440695179       -1.6369886172151737E-006 F
     orb,it,eci,eold,eci-eold=                    4                   33 -0.79672030254350601      -0.79672027139556900       -3.1147937007425242E-008 F
     orb,it,eci,eold,eci-eold=                    4                   34 -0.79672037263392448      -0.79672030254350601       -7.0090418469170856E-008 F
     orb,it,eci,eold,eci-eold=                    4                   35 -0.79672156275644113      -0.79672037263392448       -1.1901225166477403E-006 F
     orb,it,eci,eold,eci-eold=                    4                   36 -0.79672175439936921      -0.79672156275644113       -1.9164292808238059E-007 F
     orb,it,eci,eold,eci-eold=                    4                   37 -0.79672185133652218      -0.79672175439936921       -9.6937152971321439E-008 F
     orb,it,eci,eold,eci-eold=                    4                   38 -0.79672290928592682      -0.79672185133652218       -1.0579494046369931E-006 F
     orb,it,eci,eold,eci-eold=                    4                   39 -0.79672301981030402      -0.79672290928592682       -1.1052437720593389E-007 F
     orb,it,eci,eold,eci-eold=                    4                   40 -0.79672309301098021      -0.79672301981030402       -7.3200676187212821E-008 F
     orb,it,eci,eold,eci-eold=                    4                   41 -0.79672391200542492      -0.79672309301098021       -8.1899444470678873E-007 F
     orb,it,eci,eold,eci-eold=                    4                   42 -0.79672438132699486      -0.79672391200542492       -4.6932156994028418E-007 F
     orb,it,eci,eold,eci-eold=                    4                   43 -0.79672482305555570      -0.79672438132699486       -4.4172856084045975E-007 F
     orb,it,eci,eold,eci-eold=                    4                   44 -0.79672503402183081      -0.79672482305555570       -2.1096627511596466E-007 F
     orb,it,eci,eold,eci-eold=                    4                   45 -0.79672548373657459      -0.79672503402183081       -4.4971474377764054E-007 F
     orb,it,eci,eold,eci-eold=                    4                   46 -0.79672560556514549      -0.79672548373657459       -1.2182857089815258E-007 F
     orb,it,eci,eold,eci-eold=                    4                   47 -0.79672567160799690      -0.79672560556514549       -6.6042851409875425E-008 F
[...]
   10    7   10   10        0.0009117483
   10    7   11   10        0.0002121998
   10    7   12   10        0.0017309700
   10    7   13   10       -0.0000313710
   10    7   11   11       -0.0034612455
   10    7   12   11        0.0091386434
   10    7   13   11       -0.0001637311
   10    7   12   12       -0.0060077508
   10    7   13   12       -0.0000349876
   10    7   13   13       -0.0084460811
   11    7   11    7        0.0843307068
   11    7   12    7       -0.0066605849
   11    7   13    7        0.0001029846
   11    7    8    8       -0.0010582793
   11    7    9    8       -0.0000007000
   11    7   10    8       -0.0000000983
   11    7   11    8       -0.0000135234
   11    7   12    8       -0.0006615746
   11    7   13    8       -0.0494427112
   11    7    9    9       -0.0010591106
   11    7   10    9        0.0000000575
   11    7   11    9        0.0000055528
   11    7   12    9        0.0009007063
   11    7   13    9        0.0173349675
   11    7   10   10        0.0021888830
   11    7   11   10       -0.0082409108
   11    7   12   10        0.0745845561
   11    7   13   10       -0.0013343711
   11    7   11   11       -0.0022865263
   11    7   12   11       -0.0045001528
   11    7   13   11        0.0000790831
   11    7   12   12       -0.0036600038
   11    7   13   12        0.0000743223
   11    7   13   13       -0.0010004923
   12    7   12    7        0.0197516838
   12    7   13    7       -0.0000553615
   12    7    8    8       -0.0010759540
   12    7    9    8        0.0000001218
   12    7   10    8       -0.0000038598
   12    7   11    8       -0.0000180356
   12    7   12    8        0.0000038614
   12    7   13    8        0.0058634845
   12    7    9    9       -0.0010752856
   12    7   10    9       -0.0000032999
   12    7   11    9        0.0000154693
   12    7   12    9        0.0000413734
   12    7   13    9       -0.0020551860
   12    7   10   10       -0.0015052541
   12    7   11   10       -0.0012209123
   12    7   12   10       -0.0159412825
   12    7   13   10        0.0000487320
   12    7   11   11       -0.0017695421
   12    7   12   11        0.0004674380
   12    7   13   11       -0.0000064340
   12    7   12   12       -0.0011441826
   12    7   13   12       -0.0000094344
   12    7   13   13       -0.0013159926
   13    7   13    7        0.0169481826
   13    7    8    8        0.0000183809
   13    7    9    8       -0.0000000444
   13    7   10    8       -0.0001003231
   13    7   11    8       -0.0013728567
   13    7   12    8       -0.0058825246
   13    7   13    8        0.0000096391
   13    7    9    9        0.0000182777
   13    7   10    9        0.0000351857
   13    7   11    9        0.0004797032
   13    7   12    9        0.0020656263
   13    7   13    9       -0.0000035151
   13    7   10   10        0.0000251349
   13    7   11   10        0.0000247041
   13    7   12   10        0.0000399462
   13    7   13   10       -0.0134933705
   13    7   11   11        0.0000299721
   13    7   12   11       -0.0000060772
   13    7   13   11       -0.0000381881
   13    7   12   12        0.0000134917
   13    7   13   12       -0.0001327753
   13    7   13   13        0.0000271690
    8    8    8    8        0.3068136075
    8    8    9    8        0.0000009358
    8    8   10    8       -0.0000011984
    8    8   11    8        0.0000001525
    8    8   12    8        0.0000271970
    8    8   13    8        0.0006122119
    8    8    9    9        0.2798334518
    8    8   10    9        0.0000005139
    8    8   11    9       -0.0000000600
    8    8   12    9        0.0000641292
    8    8   13    9       -0.0001907339
    8    8   10   10        0.2840478736
    8    8   11   10       -0.0001783612
    8    8   12   10       -0.0005458418
    8    8   13   10        0.0000132809
    8    8   11   11        0.2844124495
    8    8   12   11       -0.0019465338
    8    8   13   11        0.0000295041
    8    8   12   12        0.2853448282
    8    8   13   12        0.0000764774
    8    8   13   13        0.2965012500
    9    8    9    8        0.0140848979
    9    8   10    8        0.0000000572
    9    8   11    8       -0.0000000017
    9    8   12    8        0.0000026894
    9    8   13    8       -0.0000114167
    9    8    9    9       -0.0000009156
    9    8   10    9       -0.0000000020
    9    8   11    9        0.0000000033
    9    8   12    9        0.0000012026
    9    8   13    9        0.0000348620
    9    8   10   10       -0.0000000361
    9    8   11   10        0.0000000640
    9    8   12   10       -0.0000008143
    9    8   13   10        0.0000000050
    9    8   11   11        0.0000000142
    9    8   12   11        0.0000008993
    9    8   13   11       -0.0000014664
    9    8   12   12       -0.0000068642
    9    8   13   12       -0.0002148057
    9    8   13   13       -0.0065498079
   10    8   10    8        0.0155674848
   10    8   11    8       -0.0000582426
   10    8   12    8       -0.0000722188
   10    8   13    8        0.0000013474
   10    8    9    9       -0.0000011157
   10    8   10    9       -0.0000000037
   10    8   11    9        0.0000000179
   10    8   12    9       -0.0000001846
   10    8   13    9       -0.0000000220
   10    8   10   10       -0.0000017671
   10    8   11   10        0.0000000456
   10    8   12   10       -0.0000061283
   10    8   13   10       -0.0001189480
   10    8   11   11       -0.0000005107
   10    8   12   11       -0.0000302972
   10    8   13   11       -0.0018804129
   10    8   12   12       -0.0002375345
   10    8   13   12       -0.0088333875
   10    8   13   13        0.0003133548
   11    8   11    8        0.0094896571
   11    8   12    8       -0.0038557819
   11    8   13    8        0.0000775722
   11    8    9    9        0.0000001444
   11    8   10    9        0.0000000175
   11    8   11    9       -0.0000000013
   11    8   12    9        0.0000014172
   11    8   13    9       -0.0000039330
   11    8   10   10       -0.0000004391
   11    8   11   10       -0.0000001552
   11    8   12   10       -0.0000914258
   11    8   13   10       -0.0056086784
   11    8   11   11        0.0000003291
   11    8   12   11        0.0000058104
   11    8   13   11        0.0001379230
   11    8   12   12        0.0000042091
   11    8   13   12        0.0001979246
   11    8   13   13       -0.0000066078
   12    8   12    8        0.0119990292
   12    8   13    8        0.0004702930
   12    8    9    9        0.0000247455
   12    8   10    9       -0.0000001846
   12    8   11    9        0.0000015174
   12    8   12    9       -0.0000147451
   12    8   13    9       -0.0002734841
   12    8   10   10       -0.0000037354
   12    8   11   10        0.0000269969
   12    8   12   10       -0.0007040751
   12    8   13   10        0.0014255855
   12    8   11   11        0.0000398532
   12    8   12   11        0.0000340825
   12    8   13   11        0.0002046875
   12    8   12   12        0.0000558495
   12    8   13   12        0.0001798524
   12    8   13   13        0.0000205750
   13    8   13    8        0.0488574484
   13    8    9    9        0.0005447700
   13    8   10    9       -0.0000000359
   13    8   11    9       -0.0000044168
   13    8   12    9       -0.0007089134
   13    8   13    9       -0.0151028900
   13    8   10   10       -0.0015521198
   13    8   11   10        0.0023706928
   13    8   12   10       -0.0542696659
   13    8   13   10        0.0009463069
   13    8   11   11        0.0011926984
   13    8   12   11        0.0026556905
   13    8   13   11       -0.0000500127
   13    8   12   12        0.0022182772
   13    8   13   12       -0.0000492318
   13    8   13   13        0.0006095298
    9    9    9    9        0.3067561401
    9    9   10    9        0.0000004622
    9    9   11    9       -0.0000000638
    9    9   12    9        0.0000696680
    9    9   13    9       -0.0002155563
    9    9   10   10        0.2840255359
    9    9   11   10       -0.0001782770
    9    9   12   10       -0.0005462111
    9    9   13   10        0.0000132712
    9    9   11   11        0.2843754993
    9    9   12   11       -0.0019411278
    9    9   13   11        0.0000261783
    9    9   12   12        0.2853127726
    9    9   13   12       -0.0000557668
    9    9   13   13        0.2803951532
   10    9   10    9        0.0155766814
   10    9   11    9       -0.0000584051
   10    9   12    9       -0.0000723824
   10    9   13    9        0.0000012993
   10    9   10   10        0.0000007094
   10    9   11   10       -0.0000000193
   10    9   12   10       -0.0000102219
   10    9   13   10        0.0000416516
   10    9   11   11        0.0000002516
   10    9   12   11        0.0000238939
   10    9   13   11        0.0006589287
   10    9   12   12        0.0003160829
   10    9   13   12        0.0030959456
   10    9   13   13       -0.0001097605
   11    9   11    9        0.0094872534
   11    9   12    9       -0.0038507869
   11    9   13    9        0.0000682010
   11    9   10   10        0.0000001815
   11    9   11   10        0.0000001141
   11    9   12   10        0.0000971651
   11    9   13   10        0.0019661670
   11    9   11   11       -0.0000001361
   11    9   12   11        0.0000088295
   11    9   13   11       -0.0000483858
   11    9   12   12       -0.0000103666
   11    9   13   12       -0.0000693219
   11    9   13   13        0.0000023092
   12    9   12    9        0.0119917434
   12    9   13    9        0.0001663729
   12    9   10   10        0.0001065935
   12    9   11   10       -0.0000661335
   12    9   12   10        0.0009589200
   12    9   13   10       -0.0005115805
   12    9   11   11        0.0000766484
   12    9   12   11       -0.0000628193
   12    9   13   11       -0.0000709546
   12    9   12   12        0.0000517969
   12    9   13   12       -0.0000624283
   12    9   13   13        0.0000840479
   13    9   13    9        0.0112377443
   13    9   10   10        0.0005436317
   13    9   11   10       -0.0008328858
   13    9   12   10        0.0190268435
   13    9   13   10       -0.0003317203
   13    9   11   11       -0.0004185408
   13    9   12   11       -0.0009309096
   13    9   13   11        0.0000175322
   13    9   12   12       -0.0007778466
   13    9   13   12        0.0000239279
   13    9   13   13       -0.0002140392
   10   10   10   10        0.3142253582
   10   10   11   10       -0.0002836168
   10   10   12   10        0.0036190623
   10   10   13   10       -0.0000588812
   10   10   11   11        0.2970690493
   10   10   12   11        0.0016158402
   10   10   13   11       -0.0000342173
   10   10   12   12        0.3171605668
   10   10   13   12       -0.0004615461
   10   10   13   13        0.2952591788
   11   10   11   10        0.0198981208
   11   10   12   10       -0.0024934419
   11   10   13   10        0.0000469776
   11   10   11   11       -0.0001851419
   11   10   12   11        0.0003855145
   11   10   13   11       -0.0000070217
   11   10   12   12       -0.0004225370
   11   10   13   12        0.0000011451
   11   10   13   13       -0.0002343239
   12   10   12   10        0.1008599333
   12   10   13   10       -0.0014065903
   12   10   11   11       -0.0014986217
   12   10   12   11       -0.0046745894
   12   10   13   11        0.0000809409
   12   10   12   12       -0.0036030404
   12   10   13   12        0.0000915163
   12   10   13   13       -0.0003650462
   13   10   13   10        0.0233394226
   13   10   11   11        0.0000316010
   13   10   12   11        0.0000826750
   13   10   13   11       -0.0000159598
   13   10   12   12        0.0000792827
   13   10   13   12        0.0001265519
   13   10   13   13        0.0000074817
   11   11   11   11        0.3307119748
   11   11   12   11       -0.0001888853
   11   11   13   11       -0.0000073342
   11   11   12   12        0.3054276078
   11   11   13   12       -0.0001690299
   11   11   13   13        0.2995291402
   12   11   12   11        0.0112418442
   12   11   13   11        0.0000187487
   12   11   12   12       -0.0007443430
   12   11   13   12       -0.0000301833
   12   11   13   13       -0.0036015810
   13   11   13   11        0.0125666960
   13   11   12   12        0.0000482459
   13   11   13   12        0.0009919499
   13   11   13   13        0.0000180862
   12   12   12   12        0.3321764180
   12   12   13   12       -0.0002109376
   12   12   13   13        0.3023470657
   13   12   13   12        0.0117956601
   13   12   13   13       -0.0002296579
   13   13   13   13        0.3167626547
 end_two_electron_integrals


 output epsi filename:./pspw_hf_H2.emovecs

 Total PSPW energy     :  -0.7950113753E+00


=== Spin Contamination ===

 <Sexact^2> =    0.0000000000000000     
 <S^2>      =    0.0000000000000000     



== Center of Charge ==

spin up     (    0.0000,    0.0000,    0.0082 )
spin down   (    0.0000,    0.0000,    0.0082 )
     total  (    0.0000,    0.0000,    0.0082 )
ionic       (    0.0000,    0.0000,    0.0000 )


== Molecular Dipole wrt Center of Mass ==

mu   =  (   -0.0000,   -0.0000,   -0.0163 ) au
|mu| =     0.0163 au,       0.0414 Debye

 output psi filename:./pspw_hf_H2.movecs

 Writing Crystallographic Information File:./H2.cif
   - cell not shifted (nwpw:cif_shift_cell .false.)


== Timing ==

cputime in seconds
  prologue    :   0.627067E+01
  main loop   :   0.433115E+03
  epilogue    :   0.160997E-01
  total       :   0.439402E+03
  cputime/step:   0.283082E+01       (     153 evalulations,      64 linesearches)


Time spent doing                        total          step       percent
  total time                 :   0.439422E+03  0.287204E+01       100.0 %
  i/o time                   :   0.317183E+00  0.207309E-02         0.1 %
  FFTs                       :   0.300152E+03  0.196178E+01        68.3 %
  dot products               :   0.252462E+02  0.165008E+00         5.7 %
  geodesic                   :   0.670027E-01  0.437926E-03         0.0 %
  ffm_dgemm                  :   0.107584E-01  0.703161E-04         0.0 %
  fmf_dgemm                  :   0.691037E-02  0.451658E-04         0.0 %
  mmm_dgemm                  :   0.256800E-02  0.167843E-04         0.0 %
  m_diagonalize              :   0.129068E-02  0.843582E-05         0.0 %
  local pseudopotentials     :   0.629778E+01  0.411620E-01         1.4 %
  non-local pseudopotentials :   0.238087E+02  0.155613E+00         5.4 %
  structure factors          :   0.675855E+00  0.441735E-02         0.2 %
  phase factors              :   0.700900E-05  0.458105E-07         0.0 %
  masking and packing        :   0.743749E+01  0.486111E-01         1.7 %
  queue fft                  :   0.999362E+01  0.653178E-01         2.3 %
  queue fft (serial)         :   0.312272E+01  0.204099E-01         0.7 %
  queue fft (message passing):   0.683157E+01  0.446508E-01         1.6 %
  HFX potential              :   0.390730E+01  0.255379E-01         0.9 %
  non-local psp FFM          :   0.233158E+02  0.152391E+00         5.3 %
  non-local psp FMF          :   0.105670E+00  0.690653E-03         0.0 %
  non-local psp FFM A        :   0.440780E-01  0.288092E-03         0.0 %
  non-local psp FFM B        :   0.142950E+00  0.934316E-03         0.0 %

== HFX Counters ==
  HFX Evalulations         =   153
  Lin ACE HFX Evalulations =     0


     >>>  JOB COMPLETED     AT Sun Apr  6 20:13:12 2025  <<<

 Task  times  cpu:      414.3s     wall:      439.5s


                                NWChem Input Module
                                -------------------


 Summary of allocated global arrays
-----------------------------------
  No active global arrays


MA_summarize_allocated_blocks: starting scan ...
MA_summarize_allocated_blocks: scan completed: 0 heap blocks, 0 stack blocks
MA usage statistics:

	allocation statistics:
					      heap	     stack
					      ----	     -----
	current number of blocks	         0	         0
	maximum number of blocks	       313	        36
	current total bytes		         0	         0
	maximum total bytes		  16458944	   5334728
	maximum total K-bytes		     16459	      5335
	maximum total M-bytes		        17	         6


                                     CITATION
                                     --------
                Please cite the following reference when publishing
                           results obtained with NWChem:

          E. Apra, E. J. Bylaska, W. A. de Jong, N. Govind, K. Kowalski,
       T. P. Straatsma, M. Valiev, H. J. J. van Dam, Y. Alexeev, J. Anchell,
       V. Anisimov, F. W. Aquino, R. Atta-Fynn, J. Autschbach, N. P. Bauman,
     J. C. Becca, D. E. Bernholdt, K. Bhaskaran-Nair, S. Bogatko, P. Borowski,
         J. Boschen, J. Brabec, A. Bruner, E. Cauet, Y. Chen, G. N. Chuev,
      C. J. Cramer, J. Daily, M. J. O. Deegan, T. H. Dunning Jr., M. Dupuis,
   K. G. Dyall, G. I. Fann, S. A. Fischer, A. Fonari, H. Fruchtl, L. Gagliardi,
      J. Garza, N. Gawande, S. Ghosh, K. Glaesemann, A. W. Gotz, J. Hammond,
       V. Helms, E. D. Hermes, K. Hirao, S. Hirata, M. Jacquelin, L. Jensen,
   B. G. Johnson, H. Jonsson, R. A. Kendall, M. Klemm, R. Kobayashi, V. Konkov,
      S. Krishnamoorthy, M. Krishnan, Z. Lin, R. D. Lins, R. J. Littlefield,
      A. J. Logsdail, K. Lopata, W. Ma, A. V. Marenich, J. Martin del Campo,
   D. Mejia-Rodriguez, J. E. Moore, J. M. Mullin, T. Nakajima, D. R. Nascimento,
    J. A. Nichols, P. J. Nichols, J. Nieplocha, A. Otero-de-la-Roza, B. Palmer,
    A. Panyala, T. Pirojsirikul, B. Peng, R. Peverati, J. Pittner, L. Pollack,
   R. M. Richard, P. Sadayappan, G. C. Schatz, W. A. Shelton, D. W. Silverstein,
   D. M. A. Smith, T. A. Soares, D. Song, M. Swart, H. L. Taylor, G. S. Thomas,
            V. Tipparaju, D. G. Truhlar, K. Tsemekhman, T. Van Voorhis,
      A. Vazquez-Mayagoitia, P. Verma, O. Villa, A. Vishnu, K. D. Vogiatzis,
        D. Wang, J. H. Weare, M. J. Williamson, T. L. Windus, K. Wolinski,
        A. T. Wong, Q. Wu, C. Yang, Q. Yu, M. Zacharias, Z. Zhang, Y. Zhao,
                                and R. J. Harrison
                        "NWChem: Past, present, and future
                         J. Chem. Phys. 152, 184102 (2020)
                               doi:10.1063/5.0004997

                                      AUTHORS
                                      -------
  E. Apra, E. J. Bylaska, N. Govind, K. Kowalski, M. Valiev, D. Mejia-Rodriguez,
       A. Kunitsa, N. P. Bauman, A. Panyala, W. A. de Jong, T. P. Straatsma,
   H. J. J. van Dam, D. Wang, T. L. Windus, J. Hammond, J. Autschbach, A. Woods,
    K. Bhaskaran-Nair, J. Brabec, K. Lopata, S. A. Fischer, S. Krishnamoorthy,
     M. Jacquelin, W. Ma, M. Klemm, O. Villa, Y. Chen, V. Anisimov, F. Aquino,
     S. Hirata, M. T. Hackler, E. Hermes, L. Jensen, J. E. Moore, J. C. Becca,
      V. Konjkov, T. Risthaus, M. Malagoli, A. Marenich, A. Otero-de-la-Roza,
        J. Mullin, P. Nichols, R. Peverati, J. Pittner, Y. Zhao, P.-D. Fan,
        A. Fonari, M. J. Williamson, R. J. Harrison, J. R. Rehr, M. Dupuis,
     D. Silverstein, D. M. A. Smith, J. Nieplocha, V. Tipparaju, M. Krishnan,
     B. E. Van Kuiken, A. Vazquez-Mayagoitia, M. Swart, Q. Wu, T. Van Voorhis,
     A. A. Auer, M. Nooijen, L. D. Crosby, E. Brown, G. Cisneros, G. I. Fann,
   H. Fruchtl, J. Garza, K. Hirao, R. A. Kendall, J. A. Nichols, K. Tsemekhman,
    K. Wolinski, J. Anchell, D. E. Bernholdt, P. Borowski, T. Clark, D. Clerc,
   H. Dachsel, M. J. O. Deegan, K. Dyall, D. Elwood, E. Glendening, M. Gutowski,
   A. C. Hess, J. Jaffe, B. G. Johnson, J. Ju, R. Kobayashi, R. Kutteh, Z. Lin,
   R. Littlefield, X. Long, B. Meng, T. Nakajima, S. Niu, L. Pollack, M. Rosing,
   K. Glaesemann, G. Sandrone, M. Stave, H. Taylor, G. Thomas, J. H. van Lenthe,
                               A. T. Wong, Z. Zhang.

 Total times  cpu:      414.4s     wall:      439.6s
