 argument  1 = H2-1.0.nw



============================== echo of input deck ==============================
title "swnc: e theory=pspw4 xc=hf formula=H2 charge=0 mult=1"
#machinejob:expert

echo

start pspw_hf_H2

memory heap 1200 mb stack 1200 mb global 10 mb

charge 0

geometry
H    0.00000    0.00000   -0.50000
H    0.00000    0.00000    0.50000
end

nwpw
  ### pseudopotential block begin ###
  ### pseudopotential block end   ###
  simulation_cell
     SC 15.0000
     boundary_conditions aperiodic
  end

  cutoff 50.0
  mult 1
  xc hf
  lmbfgs
  tolerances 1.0e-9 1.0e-9

  virtual 18
end
set nwpw:cif_filename H2

#set nwpw:CI_maxit_orb 15
#set nwpw:CI_maxit_linesearch 15
set pspw:HFX_screening_radius 14.0


set nwpw:2qintegrals .true.
set nwpw:3x3_virtual .true.

task pspw energy
================================================================================


                                         
                                         


             Northwest Computational Chemistry Package (NWChem) 7.2.3
             --------------------------------------------------------


                    Environmental Molecular Sciences Laboratory
                       Pacific Northwest National Laboratory
                                Richland, WA 99352

                              Copyright (c) 1994-2022
                       Pacific Northwest National Laboratory
                            Battelle Memorial Institute

             NWChem is an open-source computational chemistry package
                        distributed under the terms of the
                      Educational Community License (ECL) 2.0
             A copy of the license is included with this distribution
                              in the LICENSE.TXT file

                                  ACKNOWLEDGMENT
                                  --------------

            This software and its documentation were developed at the
            EMSL at Pacific Northwest National Laboratory, a multiprogram
            national laboratory, operated for the U.S. Department of Energy
            by Battelle under Contract Number DE-AC05-76RL01830. Support
            for this work was provided by the Department of Energy Office
            of Biological and Environmental Research, Office of Basic
            Energy Sciences, and the Office of Advanced Scientific Computing.


           Job information
           ---------------

    hostname        = mqs-al
    program         = nwchem
    date            = Sun Apr  6 09:42:03 2025

    compiled        = Thu_Oct_31_08:55:15_2024
    source          = /home/conda/feedstock_root/build_artifacts/nwchem_1730356057992/work
    nwchem branch   = 7.2.3
    nwchem revision = c400b04
    ga revision     = 5.8.0
    use scalapack   = T
    input           = H2-1.0.nw
    prefix          = pspw_hf_H2.
    data base       = ./pspw_hf_H2.db
    status          = startup
    nproc           =       24
    time left       =     -1s



           Memory information
           ------------------

    heap     =  157286400 doubles =   1200.0 Mbytes
    stack    =  157286397 doubles =   1200.0 Mbytes
    global   =    1310720 doubles =     10.0 Mbytes (distinct from heap & stack)
    total    =  315883517 doubles =   2410.0 Mbytes
    verify   = yes
    hardfail = no 


           Directory information
           ---------------------

  0 permanent = .
  0 scratch   = .




                                NWChem Input Module
                                -------------------


               swnc: e theory=pspw4 xc=hf formula=H2 charge=0 mult=1
               -----------------------------------------------------

 Scaling coordinates for geometry "geometry" by  1.889725989
 (inverse scale =  0.529177249)

  zeroes
  zeroes
  zeroes
  zeroes
  zeroes
  zeroes
  zeroes
  zeroes
  zeroes
  zeroes
  zeroes
  zeroes
  zeroes
  zeroes
  zeroes
  zeroes
  zeroes
  zeroes
  zeroes
  zeroes
  zeroes
  zeroes
  zeroes
  zeroes
  zeroes
  zeroes
  zeroes
  zeroes
  zeroes
  zeroes
  zeroes
  zeroes
  zeroes
  zeroes
  zeroes
  zeroes
  zeroes
  zeroes
  zeroes
  zeroes
  zeroes
  zeroes
  zeroes
  zeroes
  zeroes
  zeroes
  zeroes
  zeroes
 ORDER OF PRIMARY AXIS IS BEING SET TO 4
 D4H symmetry detected

          ------
          auto-z
          ------
     1 autoz failed with cvr_scaling = 1.2 changing to 1.3
  no constraints, skipping    0.0000000000000000     
  no constraints, skipping    0.0000000000000000     


                             Geometry "geometry" -> ""
                             -------------------------

 Output coordinates in angstroms (scale by  1.889725989 to convert to a.u.)

  No.       Tag          Charge          X              Y              Z
 ---- ---------------- ---------- -------------- -------------- --------------
    1 H                    1.0000     0.00000000     0.00000000    -0.50000000
    2 H                    1.0000     0.00000000     0.00000000     0.50000000

      Atomic Mass 
      ----------- 

      H                  1.007825


 Effective nuclear repulsion energy (a.u.)       0.5291772490

            Nuclear Dipole moment (a.u.) 
            ----------------------------
        X                 Y               Z
 ---------------- ---------------- ----------------
     0.0000000000     0.0000000000     0.0000000000

      Symmetry information
      --------------------

 Group name             D4h       
 Group number             28
 Group order              16
 No. of unique centers     1

      Symmetry unique atoms

     1



                                Z-matrix (autoz)
                                -------- 

 Units are Angstrom for bonds and degrees for angles

      Type          Name      I     J     K     L     M      Value
      ----------- --------  ----- ----- ----- ----- ----- ----------
    1 Stretch                  1     2                       1.00000


            XYZ format geometry
            -------------------
     2
 geometry
 H                     0.00000000     0.00000000    -0.50000000
 H                     0.00000000     0.00000000     0.50000000

          ****************************************************
          *                                                  *
          *               NWPW PSPW Calculation              *
          *                                                  *
          * [ (Grassmann/Stiefel manifold implementation)  ] *
          *                                                  *
          *      [ NorthWest Chemistry implementation ]      *
          *                                                  *
          *            version #5.10   06/12/02              *
          *                                                  *
          *    This code was developed by Eric J. Bylaska,   *
          *    and was based upon algorithms and code        *
          *    developed by the group of Prof. John H. Weare *
          *                                                  *
          ****************************************************
     >>>  JOB STARTED       AT Sun Apr  6 09:42:03 2025  <<<
          ================ input data ========================

 input psi filename:./pspw_hf_H2.movecs

 number of processors used:        24
 processor grid           :  24 x   1
 parallel mapping         :2d-hilbert
 parallel mapping         :  balanced
 number of threads        :         1
 parallel io              :       off

 options:
      boundary conditions  = aperiodic   (version4)
      electron spin        = restricted
      exchange-correlation = Hartree-Fock
      - HFX relaxed
      - HFX restricted orbitals :    1
      - HFX free-space coulomb solver


 elements involved in the cluster:
      1: H   valence charge:  1.0000  lmax=  1
             comment    : Parameterized (Chem.Phys.Lett., vol 322, page 447) Hamman psp
             pseudpotential type            :   0
             highest angular component      :   1
             local potential used           :   1
             number of non-local projections:   1
             aperiodic cutoff radius        :  1.000
             cutoff =   0.800   0.800


 total charge:   0.000

 atomic composition:
     H   :    2

 number of electrons: spin up=     1 (   1 per task)  down=     1 (   1 per task) (Fourier space)
 number of orbitals : spin up=     1 (   1 per task)  down=     1 (   1 per task) (Fourier space)

 supercell:
      cell_name:  cell_default                                      
      lattice:    a1=<  15.000   0.000   0.000 >
                  a2=<   0.000  15.000   0.000 >
                  a3=<   0.000   0.000  15.000 >
      reciprocal: b1=<   0.419   0.000   0.000 >
                  b2=<   0.000   0.419   0.000 >
                  b3=<   0.000   0.000   0.419 >
      lattice:    a=      15.000 b=     15.000 c=      15.000
                  alpha=  90.000 beta=  90.000 gamma=  90.000
                  omega=      3375.0

      density cutoff=100.000  fft= 70x 70x 70(    80618 waves     3359 per task)
      wavefnc cutoff= 50.000  fft= 70x 70x 70(    28526 waves     1188 per task)

 technical parameters:
      time step=      5.80     fictitious mass=  400000.0
      tolerance=0.100E-08 (energy)   0.100E-08 (density)
      maximum iterations =      1000 (   10 inner    100 outer )





== Energy Calculation ==


          ============ Grassmann lmbfgs iteration ============
     >>>  ITERATION STARTED AT Sun Apr  6 09:42:09 2025  <<<
    iter.           Energy         DeltaE       DeltaRho 
    ------------------------------------------------------
      10   -0.1102014663E+01   -0.65553E-04    0.15155E-02
      20   -0.1102159213E+01   -0.19217E-05    0.29212E-05
      30   -0.1102164242E+01   -0.85653E-07    0.82448E-08
      40   -0.1102164430E+01   -0.20519E-08    0.19559E-10
      50   -0.1102164433E+01   -0.73273E-09    0.69505E-12
  *** tolerance ok. iteration terminated
     >>>  ITERATION ENDED   AT Sun Apr  6 09:42:14 2025  <<<


==  Summary Of Results  ==

 number of electrons: spin up=    1.00000  down=    1.00000 (real space)

 total     energy    :  -0.1102164433E+01 (   -0.55108E+00/ion)
 total orbital energy:  -0.1053727886E+01 (   -0.10537E+01/electron)
 hartree   energy    :   0.1155227592E+01 (    0.11552E+01/electron)
 exc-corr  energy    :   0.0000000000E+00 (    0.00000E+00/electron)
 HF exchange energy  :  -0.5776137959E+00 (   -0.57761E+00/electron)
 ion-ion   energy    :   0.5291772490E+00 (    0.26459E+00/ion)

 kinetic (planewave) :   0.8725964939E+00 (    0.87260E+00/electron)
 V_local (planewave) :  -0.2845269450E+01 (   -0.28453E+01/electron)
 V_nl    (planewave) :  -0.2362825218E+00 (   -0.23628E+00/electron)
 V_Coul  (planewave) :   0.2310455183E+01 (    0.23105E+01/electron)
 V_xc.   (planewave) :   0.0000000000E+00 (    0.00000E+00/electron)
 K.S. HFX energy     :  -0.1155227592E+01 (   -0.11552E+01/electron)
 Virial Coefficient  :  -0.8836808238E+00

 orbital energies:
    -0.5268639E+00 ( -14.337eV)


== Virtual Orbital Calculation ==


 input epsi filename:./pspw_hf_H2.emovecs

 COVOs Mimimization
 ------------------
CI gradient algorithm =         3
maxit_sweeps          =         3
maxit_orb             =       120
maxit_linesearch      =        15
maxerror              = 0.100E-08

     orb,it,eci,eold,eci-eold=                    1                    1  -1.1272162651619717       -1.1270045679515728       -2.1169721039893119E-004 F
     orb,it,eci,eold,eci-eold=                    1                    2  -1.1272442606116420       -1.1272162651619717       -2.7995449670248362E-005 F
     orb,it,eci,eold,eci-eold=                    1                    3  -1.1272502066050158       -1.1272442606116420       -5.9459933738903459E-006 F
     orb,it,eci,eold,eci-eold=                    1                    4  -1.1272917047511395       -1.1272502066050158       -4.1498146123641888E-005 F
     orb,it,eci,eold,eci-eold=                    1                    5  -1.1273215876765905       -1.1272917047511395       -2.9882925451030218E-005 F
     orb,it,eci,eold,eci-eold=                    1                    6  -1.1273376643215385       -1.1273215876765905       -1.6076644947959906E-005 F
     orb,it,eci,eold,eci-eold=                    1                    7  -1.1273457908299589       -1.1273376643215385       -8.1265084204140692E-006 F
     orb,it,eci,eold,eci-eold=                    1                    8  -1.1273522128372471       -1.1273457908299589       -6.4220072881759904E-006 F
     orb,it,eci,eold,eci-eold=                    1                    9  -1.1273589215268638       -1.1273522128372471       -6.7086896167189991E-006 F
     orb,it,eci,eold,eci-eold=                    1                   10  -1.1273642683458054       -1.1273589215268638       -5.3468189415983858E-006 F
     orb,it,eci,eold,eci-eold=                    1                   11  -1.1273681540425935       -1.1273642683458054       -3.8856967881084614E-006 F
     orb,it,eci,eold,eci-eold=                    1                   12  -1.1273797285886773       -1.1273681540425935       -1.1574546083803483E-005 F
     orb,it,eci,eold,eci-eold=                    1                   13  -1.1273908345923660       -1.1273797285886773       -1.1106003688698962E-005 F
     orb,it,eci,eold,eci-eold=                    1                   14  -1.1273990421607263       -1.1273908345923660       -8.2075683602855776E-006 F
     orb,it,eci,eold,eci-eold=                    1                   15  -1.1274018806064228       -1.1273990421607263       -2.8384456964847260E-006 F
     orb,it,eci,eold,eci-eold=                    1                   16  -1.1274032364355089       -1.1274018806064228       -1.3558290861137579E-006 F
     orb,it,eci,eold,eci-eold=                    1                   17  -1.1274136495608511       -1.1274032364355089       -1.0413125342223495E-005 F
     orb,it,eci,eold,eci-eold=                    1                   18  -1.1274139481217791       -1.1274136495608511       -2.9856092798041800E-007 F
     orb,it,eci,eold,eci-eold=                    1                   19  -1.1274139682809448       -1.1274139481217791       -2.0159165670108337E-008 F
     orb,it,eci,eold,eci-eold=                    1                   20  -1.1274206409387719       -1.1274139682809448       -6.6726578271669723E-006 F
     orb,it,eci,eold,eci-eold=                    1                   21  -1.1274208257081733       -1.1274206409387719       -1.8476940133460573E-007 F
     orb,it,eci,eold,eci-eold=                    1                   22  -1.1274210436500443       -1.1274208257081733       -2.1794187099466455E-007 F
     orb,it,eci,eold,eci-eold=                    1                   23  -1.1274257998667632       -1.1274210436500443       -4.7562167189152404E-006 F
     orb,it,eci,eold,eci-eold=                    1                   24  -1.1274282959197559       -1.1274257998667632       -2.4960529927398056E-006 F
     orb,it,eci,eold,eci-eold=                    1                   25  -1.1274297198611172       -1.1274282959197559       -1.4239413612671115E-006 F
     orb,it,eci,eold,eci-eold=                    1                   26  -1.1274304369632573       -1.1274297198611172       -7.1710214011311280E-007 F
     orb,it,eci,eold,eci-eold=                    1                   27  -1.1274324328316325       -1.1274304369632573       -1.9958683752374640E-006 F
     orb,it,eci,eold,eci-eold=                    1                   28  -1.1274324990789273       -1.1274324328316325       -6.6247294761012654E-008 F
     orb,it,eci,eold,eci-eold=                    1                   29  -1.1274326077739345       -1.1274324990789273       -1.0869500721710779E-007 F
     orb,it,eci,eold,eci-eold=                    1                   30  -1.1274339806802831       -1.1274326077739345       -1.3729063486067616E-006 F
     orb,it,eci,eold,eci-eold=                    1                   31  -1.1274347622544980       -1.1274339806802831       -7.8157421490310242E-007 F
     orb,it,eci,eold,eci-eold=                    1                   32  -1.1274355511181211       -1.1274347622544980       -7.8886362309127378E-007 F
     orb,it,eci,eold,eci-eold=                    1                   33  -1.1274359498344948       -1.1274355511181211       -3.9871637369515156E-007 F
     orb,it,eci,eold,eci-eold=                    1                   34  -1.1274366100293034       -1.1274359498344948       -6.6019480859935697E-007 F
     orb,it,eci,eold,eci-eold=                    1                   35  -1.1274369862968339       -1.1274366100293034       -3.7626753046637873E-007 F
     orb,it,eci,eold,eci-eold=                    1                   36  -1.1274373546159251       -1.1274369862968339       -3.6831909122625461E-007 F
     orb,it,eci,eold,eci-eold=                    1                   37  -1.1274375125817491       -1.1274373546159251       -1.5796582397697989E-007 F
     orb,it,eci,eold,eci-eold=                    1                   38  -1.1274378531301137       -1.1274375125817491       -3.4054836461905325E-007 F
     orb,it,eci,eold,eci-eold=                    1                   39  -1.1274379335347131       -1.1274378531301137       -8.0404599422934098E-008 F
     orb,it,eci,eold,eci-eold=                    1                   40  -1.1274379766952520       -1.1274379335347131       -4.3160538920616887E-008 F
     orb,it,eci,eold,eci-eold=                    1                   41  -1.1274381827436604       -1.1274379766952520       -2.0604840833549076E-007 F
     orb,it,eci,eold,eci-eold=                    1                   42  -1.1274382226016528       -1.1274381827436604       -3.9857992462088987E-008 F
     orb,it,eci,eold,eci-eold=                    1                   43  -1.1274382461123325       -1.1274382226016528       -2.3510679625360353E-008 F
     orb,it,eci,eold,eci-eold=                    1                   44  -1.1274384329671516       -1.1274382461123325       -1.8685481917302127E-007 F
     orb,it,eci,eold,eci-eold=                    1                   45  -1.1274385343597610       -1.1274384329671516       -1.0139260941954831E-007 F
     orb,it,eci,eold,eci-eold=                    1                   46  -1.1274385725191622       -1.1274385343597610       -3.8159401194448606E-008 F
     orb,it,eci,eold,eci-eold=                    1                   47  -1.1274387055547550       -1.1274385725191622       -1.3303559276423016E-007 F
     orb,it,eci,eold,eci-eold=                    1                   48  -1.1274387121779141       -1.1274387055547550       -6.6231591322463146E-009 F
     orb,it,eci,eold,eci-eold=                    1                   49  -1.1274387240284622       -1.1274387121779141       -1.1850548098379932E-008 F
     orb,it,eci,eold,eci-eold=                    1                   50  -1.1274388791432521       -1.1274387240284622       -1.5511478990148930E-007 F
     orb,it,eci,eold,eci-eold=                    1                   51  -1.1274388907054220       -1.1274388791432521       -1.1562169888179596E-008 F
     orb,it,eci,eold,eci-eold=                    1                   52  -1.1274388936910573       -1.1274388907054220       -2.9856352945500930E-009 F
     orb,it,eci,eold,eci-eold=                    1                   53  -1.1274390003327819       -1.1274388936910573       -1.0664172456209542E-007 F
     orb,it,eci,eold,eci-eold=                    1                   54  -1.1274390194789001       -1.1274390003327819       -1.9146118246382571E-008 F
     orb,it,eci,eold,eci-eold=                    1                   55  -1.1274390235548299       -1.1274390194789001       -4.0759298158832280E-009 F
     orb,it,eci,eold,eci-eold=                    1                   56  -1.1274391009755962       -1.1274390235548299       -7.7420766242397576E-008 F
     orb,it,eci,eold,eci-eold=                    1                   57  -1.1274391149425860       -1.1274391009755962       -1.3966989786950990E-008 F
     orb,it,eci,eold,eci-eold=                    1                   58  -1.1274391207060122       -1.1274391149425860       -5.7634261807493203E-009 F
     orb,it,eci,eold,eci-eold=                    1                   59  -1.1274391818400669       -1.1274391207060122       -6.1134054707423502E-008 F
     orb,it,eci,eold,eci-eold=                    1                   60  -1.1274392159699880       -1.1274391818400669       -3.4129921111514250E-008 F
     orb,it,eci,eold,eci-eold=                    1                   61  -1.1274392470748793       -1.1274392159699880       -3.1104891329292172E-008 F
     orb,it,eci,eold,eci-eold=                    1                   62  -1.1274392622226865       -1.1274392470748793       -1.5147807230775356E-008 F
     orb,it,eci,eold,eci-eold=                    1                   63  -1.1274392921662595       -1.1274392622226865       -2.9943572954493902E-008 F
     orb,it,eci,eold,eci-eold=                    1                   64  -1.1274392936685678       -1.1274392921662595       -1.5023082777787522E-009 F
     orb,it,eci,eold,eci-eold=                    1                   65  -1.1274392944417442       -1.1274392936685678       -7.7317641178353824E-010 F
     orbital   1 current e=  0.359060E+00 error=0.498E-01 (eci= -0.112743929E+01 error=0.773E-09) iterations  65(   0 preconditioned, Ep,Sp= 20.0  200.0)
     orb,it,eci,eold,eci-eold=                    1                    1  -1.1274393559841966       -1.1274392944417442       -6.1542452467477915E-008 F
     orb,it,eci,eold,eci-eold=                    1                    2  -1.1274393748806162       -1.1274393559841966       -1.8896419540226361E-008 F
     orb,it,eci,eold,eci-eold=                    1                    3  -1.1274393952080017       -1.1274393748806162       -2.0327385552576516E-008 F
     orb,it,eci,eold,eci-eold=                    1                    4  -1.1274394008102624       -1.1274393952080017       -5.6022606553796095E-009 F
     orb,it,eci,eold,eci-eold=                    1                    5  -1.1274394058978288       -1.1274394008102624       -5.0875663681893002E-009 F
     orb,it,eci,eold,eci-eold=                    1                    6  -1.1274394099559206       -1.1274394058978288       -4.0580918625465756E-009 F
     orb,it,eci,eold,eci-eold=                    1                    7  -1.1274394124354863       -1.1274394099559206       -2.4795656639042818E-009 F
     orb,it,eci,eold,eci-eold=                    1                    8  -1.1274394186980232       -1.1274394124354863       -6.2625369334767811E-009 F
     orb,it,eci,eold,eci-eold=                    1                    9  -1.1274394186980232       -1.1274394186980232        0.0000000000000000      F
     orbital   1 current e=  0.359180E+00 error=0.120E-03 (eci= -0.112743942E+01 error=0.000E+00) iterations   9(   0 preconditioned, Ep,Sp= 20.0  200.0)
     orb,it,eci,eold,eci-eold=                    1                    1  -1.1274394243021784       -1.1274394184640042       -5.8381741663282583E-009 F
     orb,it,eci,eold,eci-eold=                    1                    2  -1.1274394256403131       -1.1274394243021784       -1.3381347141461220E-009 F
     orb,it,eci,eold,eci-eold=                    1                    3  -1.1274394256403131       -1.1274394256403131        0.0000000000000000      F
     orbital   1 current e=  0.359186E+00 error=0.630E-05 (eci= -0.112743943E+01 error=0.000E+00) iterations   3(   0 preconditioned, Ep,Sp= 20.0  200.0)
     orb,it,eci,eold,eci-eold=                    2                    1  -1.1087173743256120       -1.1086677650102288       -4.9609315383225550E-005 F
     orb,it,eci,eold,eci-eold=                    2                    2  -1.1087336925769073       -1.1087173743256120       -1.6318251295333042E-005 F
     orb,it,eci,eold,eci-eold=                    2                    3  -1.1087436568691931       -1.1087336925769073       -9.9642922857245964E-006 F
     orb,it,eci,eold,eci-eold=                    2                    4  -1.1087516808577418       -1.1087436568691931       -8.0239885487110030E-006 F
     orb,it,eci,eold,eci-eold=                    2                    5  -1.1087553037100806       -1.1087516808577418       -3.6228523387915601E-006 F
     orb,it,eci,eold,eci-eold=                    2                    6  -1.1087559802130162       -1.1087553037100806       -6.7650293567034225E-007 F
     orb,it,eci,eold,eci-eold=                    2                    7  -1.1087560857629395       -1.1087559802130162       -1.0554992324607326E-007 F
     orb,it,eci,eold,eci-eold=                    2                    8  -1.1087580777289106       -1.1087560857629395       -1.9919659710598836E-006 F
     orb,it,eci,eold,eci-eold=                    2                    9  -1.1087582184266827       -1.1087580777289106       -1.4069777209968493E-007 F
     orb,it,eci,eold,eci-eold=                    2                   10  -1.1087586433299528       -1.1087582184266827       -4.2490327012423279E-007 F
     orb,it,eci,eold,eci-eold=                    2                   11  -1.1087601411309065       -1.1087586433299528       -1.4978009537092163E-006 F
     orb,it,eci,eold,eci-eold=                    2                   12  -1.1087605282847377       -1.1087601411309065       -3.8715383121612490E-007 F
     orb,it,eci,eold,eci-eold=                    2                   13  -1.1087609386696418       -1.1087605282847377       -4.1038490405931327E-007 F
     orb,it,eci,eold,eci-eold=                    2                   14  -1.1087619358599887       -1.1087609386696418       -9.9719034696299502E-007 F
     orb,it,eci,eold,eci-eold=                    2                   15  -1.1087620681545367       -1.1087619358599887       -1.3229454798313611E-007 F
     orb,it,eci,eold,eci-eold=                    2                   16  -1.1087623343544126       -1.1087620681545367       -2.6619987592013672E-007 F
     orb,it,eci,eold,eci-eold=                    2                   17  -1.1087632190219492       -1.1087623343544126       -8.8466753656035735E-007 F
     orb,it,eci,eold,eci-eold=                    2                   18  -1.1087637439528701       -1.1087632190219492       -5.2493092095318161E-007 F
     orb,it,eci,eold,eci-eold=                    2                   19  -1.1087642258541011       -1.1087637439528701       -4.8190123091984560E-007 F
     orb,it,eci,eold,eci-eold=                    2                   20  -1.1087644743924749       -1.1087642258541011       -2.4853837388150168E-007 F
     orb,it,eci,eold,eci-eold=                    2                   21  -1.1087648360110534       -1.1087644743924749       -3.6161857841499057E-007 F
     orb,it,eci,eold,eci-eold=                    2                   22  -1.1087650115582264       -1.1087648360110534       -1.7554717302026290E-007 F
     orb,it,eci,eold,eci-eold=                    2                   23  -1.1087652535448467       -1.1087650115582264       -2.4198662029739637E-007 F
     orb,it,eci,eold,eci-eold=                    2                   24  -1.1087653846999828       -1.1087652535448467       -1.3115513608497054E-007 F
     orb,it,eci,eold,eci-eold=                    2                   25  -1.1087655032276205       -1.1087653846999828       -1.1852763770470176E-007 F
     orb,it,eci,eold,eci-eold=                    2                   26  -1.1087655618977561       -1.1087655032276205       -5.8670135638649867E-008 F
     orb,it,eci,eold,eci-eold=                    2                   27  -1.1087656794071896       -1.1087655618977561       -1.1750943351707122E-007 F
     orb,it,eci,eold,eci-eold=                    2                   28  -1.1087657490080089       -1.1087656794071896       -6.9600819330162267E-008 F
     orb,it,eci,eold,eci-eold=                    2                   29  -1.1087658047269477       -1.1087657490080089       -5.5718938796189832E-008 F
     orb,it,eci,eold,eci-eold=                    2                   30  -1.1087658297113081       -1.1087658047269477       -2.4984360358359936E-008 F
     orb,it,eci,eold,eci-eold=                    2                   31  -1.1087658884115732       -1.1087658297113081       -5.8700265093136750E-008 F
     orb,it,eci,eold,eci-eold=                    2                   32  -1.1087659223535686       -1.1087658884115732       -3.3941995436492789E-008 F
     orb,it,eci,eold,eci-eold=                    2                   33  -1.1087659499136184       -1.1087659223535686       -2.7560049797870079E-008 F
     orb,it,eci,eold,eci-eold=                    2                   34  -1.1087659632494578       -1.1087659499136184       -1.3335839321726439E-008 F
     orb,it,eci,eold,eci-eold=                    2                   35  -1.1087659893042865       -1.1087659632494578       -2.6054828738963920E-008 F
     orb,it,eci,eold,eci-eold=                    2                   36  -1.1087660043548115       -1.1087659893042865       -1.5050525048465602E-008 F
     orb,it,eci,eold,eci-eold=                    2                   37  -1.1087660188324562       -1.1087660043548115       -1.4477644638688503E-008 F
     orb,it,eci,eold,eci-eold=                    2                   38  -1.1087660261726673       -1.1087660188324562       -7.3402111055997921E-009 F
     orb,it,eci,eold,eci-eold=                    2                   39  -1.1087660390889373       -1.1087660261726673       -1.2916270053509038E-008 F
     orb,it,eci,eold,eci-eold=                    2                   40  -1.1087660458372020       -1.1087660390889373       -6.7482646137762003E-009 F
     orb,it,eci,eold,eci-eold=                    2                   41  -1.1087660527847003       -1.1087660458372020       -6.9474983543926783E-009 F
     orb,it,eci,eold,eci-eold=                    2                   42  -1.1087660564860078       -1.1087660527847003       -3.7013074827285664E-009 F
     orb,it,eci,eold,eci-eold=                    2                   43  -1.1087660617876007       -1.1087660564860078       -5.3015929424304886E-009 F
     orb,it,eci,eold,eci-eold=                    2                   44  -1.1087660645993176       -1.1087660617876007       -2.8117168593411179E-009 F
     orb,it,eci,eold,eci-eold=                    2                   45  -1.1087660681134817       -1.1087660645993176       -3.5141640708502564E-009 F
     orb,it,eci,eold,eci-eold=                    2                   46  -1.1087660681134817       -1.1087660681134817        0.0000000000000000      F
     orbital   2 current e=  0.783498E+00 error=0.121E+00 (eci= -0.110876607E+01 error=0.000E+00) iterations  46(   0 preconditioned, Ep,Sp= 20.0  200.0)
     orb,it,eci,eold,eci-eold=                    2                    1  -1.1087660753156194       -1.1087660673891466       -7.9264728114480931E-009 F
     orb,it,eci,eold,eci-eold=                    2                    2  -1.1087660783093374       -1.1087660753156194       -2.9937179402139691E-009 F
     orb,it,eci,eold,eci-eold=                    2                    3  -1.1087660793177192       -1.1087660783093374       -1.0083818224870811E-009 F
     orb,it,eci,eold,eci-eold=                    2                    4  -1.1087660793177192       -1.1087660793177192        0.0000000000000000      F
     orbital   2 current e=  0.783597E+00 error=0.996E-04 (eci= -0.110876608E+01 error=0.000E+00) iterations   4(   0 preconditioned, Ep,Sp= 20.0  200.0)
     orb,it,eci,eold,eci-eold=                    2                    1  -1.1087660814225988       -1.1087660792914473       -2.1311514775135265E-009 F
     orb,it,eci,eold,eci-eold=                    2                    2  -1.1087660817971035       -1.1087660814225988       -3.7450464951405138E-010 F
     orbital   2 current e=  0.783615E+00 error=0.179E-04 (eci= -0.110876608E+01 error=0.375E-09) iterations   2(   0 preconditioned, Ep,Sp= 20.0  200.0)
     orb,it,eci,eold,eci-eold=                    3                    1  -1.1076774533461544       -1.1076495025998692       -2.7950746285254624E-005 F
     orb,it,eci,eold,eci-eold=                    3                    2  -1.1076824005740586       -1.1076774533461544       -4.9472279042284129E-006 F
     orb,it,eci,eold,eci-eold=                    3                    3  -1.1076884502298854       -1.1076824005740586       -6.0496558267342238E-006 F
     orb,it,eci,eold,eci-eold=                    3                    4  -1.1076911729193137       -1.1076884502298854       -2.7226894283582936E-006 F
     orb,it,eci,eold,eci-eold=                    3                    5  -1.1076920064486269       -1.1076911729193137       -8.3352931312674627E-007 F
     orb,it,eci,eold,eci-eold=                    3                    6  -1.1076924236549450       -1.1076920064486269       -4.1720631815955755E-007 F
     orb,it,eci,eold,eci-eold=                    3                    7  -1.1076931620988328       -1.1076924236549450       -7.3844388781552084E-007 F
     orb,it,eci,eold,eci-eold=                    3                    8  -1.1076936720658768       -1.1076931620988328       -5.0996704392680670E-007 F
     orb,it,eci,eold,eci-eold=                    3                    9  -1.1076945417515591       -1.1076936720658768       -8.6968568235867849E-007 F
     orb,it,eci,eold,eci-eold=                    3                   10  -1.1076950544399038       -1.1076945417515591       -5.1268834466711155E-007 F
     orb,it,eci,eold,eci-eold=                    3                   11  -1.1076954360739000       -1.1076950544399038       -3.8163399618262872E-007 F
     orb,it,eci,eold,eci-eold=                    3                   12  -1.1076956131450311       -1.1076954360739000       -1.7707113109111106E-007 F
     orb,it,eci,eold,eci-eold=                    3                   13  -1.1076959760886429       -1.1076956131450311       -3.6294361183131230E-007 F
     orb,it,eci,eold,eci-eold=                    3                   14  -1.1076959912171001       -1.1076959760886429       -1.5128457153679165E-008 F
     orb,it,eci,eold,eci-eold=                    3                   15  -1.1076960764602675       -1.1076959912171001       -8.5243167413651122E-008 F
     orb,it,eci,eold,eci-eold=                    3                   16  -1.1076963091847341       -1.1076960764602675       -2.3272446658673118E-007 F
     orb,it,eci,eold,eci-eold=                    3                   17  -1.1076963656631571       -1.1076963091847341       -5.6478423049455273E-008 F
     orb,it,eci,eold,eci-eold=                    3                   18  -1.1076964370629689       -1.1076963656631571       -7.1399811840677785E-008 F
     orb,it,eci,eold,eci-eold=                    3                   19  -1.1076965939790548       -1.1076964370629689       -1.5691608590273631E-007 F
     orb,it,eci,eold,eci-eold=                    3                   20  -1.1076966192682653       -1.1076965939790548       -2.5289210503487425E-008 F
     orb,it,eci,eold,eci-eold=                    3                   21  -1.1076966593722912       -1.1076966192682653       -4.0104025877951699E-008 F
     orb,it,eci,eold,eci-eold=                    3                   22  -1.1076967577939176       -1.1076966593722912       -9.8421626404388007E-008 F
     orb,it,eci,eold,eci-eold=                    3                   23  -1.1076967685196866       -1.1076967577939176       -1.0725768939678915E-008 F
     orb,it,eci,eold,eci-eold=                    3                   24  -1.1076967943008940       -1.1076967685196866       -2.5781207391162297E-008 F
     orb,it,eci,eold,eci-eold=                    3                   25  -1.1076968777477774       -1.1076967943008940       -8.3446883403226479E-008 F
     orb,it,eci,eold,eci-eold=                    3                   26  -1.1076968834671730       -1.1076968777477774       -5.7193956237711063E-009 F
     orb,it,eci,eold,eci-eold=                    3                   27  -1.1076968902205202       -1.1076968834671730       -6.7533472147829343E-009 F
     orb,it,eci,eold,eci-eold=                    3                   28  -1.1076969595285797       -1.1076968902205202       -6.9308059513772946E-008 F
     orb,it,eci,eold,eci-eold=                    3                   29  -1.1076969715830376       -1.1076969595285797       -1.2054457876331526E-008 F
     orb,it,eci,eold,eci-eold=                    3                   30  -1.1076969750279040       -1.1076969715830376       -3.4448663921438083E-009 F
     orb,it,eci,eold,eci-eold=                    3                   31  -1.1076970458349920       -1.1076969750279040       -7.0807087970692351E-008 F
     orb,it,eci,eold,eci-eold=                    3                   32  -1.1076970515225333       -1.1076970458349920       -5.6875413267931663E-009 F
     orb,it,eci,eold,eci-eold=                    3                   33  -1.1076970515225333       -1.1076970515225333        0.0000000000000000      F
     orbital   3 current e=  0.784071E+00 error=0.762E-01 (eci= -0.110769705E+01 error=0.000E+00) iterations  33(   0 preconditioned, Ep,Sp= 20.0  200.0)
     orb,it,eci,eold,eci-eold=                    3                    1  -1.1076971288456852       -1.1076970507654771       -7.8080208076869440E-008 F
     orb,it,eci,eold,eci-eold=                    3                    2  -1.1076971392379571       -1.1076971288456852       -1.0392271931891628E-008 F
     orb,it,eci,eold,eci-eold=                    3                    3  -1.1076971619571381       -1.1076971392379571       -2.2719180980956821E-008 F
     orb,it,eci,eold,eci-eold=                    3                    4  -1.1076972006836470       -1.1076971619571381       -3.8726508888586864E-008 F
     orb,it,eci,eold,eci-eold=                    3                    5  -1.1076972183543297       -1.1076972006836470       -1.7670682694870266E-008 F
     orb,it,eci,eold,eci-eold=                    3                    6  -1.1076972280325799       -1.1076972183543297       -9.6782502012615623E-009 F
     orb,it,eci,eold,eci-eold=                    3                    7  -1.1076972509420717       -1.1076972280325799       -2.2909491859124387E-008 F
     orb,it,eci,eold,eci-eold=                    3                    8  -1.1076972628494386       -1.1076972509420717       -1.1907366870289593E-008 F
     orb,it,eci,eold,eci-eold=                    3                    9  -1.1076972648349435       -1.1076972628494386       -1.9855048716266310E-009 F
     orb,it,eci,eold,eci-eold=                    3                   10  -1.1076972648349435       -1.1076972648349435        0.0000000000000000      F
     orbital   3 current e=  0.782803E+00 error=0.127E-02 (eci= -0.110769726E+01 error=0.000E+00) iterations  10(   0 preconditioned, Ep,Sp= 20.0  200.0)
     orb,it,eci,eold,eci-eold=                    3                    1  -1.1076972770269176       -1.1076972646727852       -1.2354132383762817E-008 F
     orb,it,eci,eold,eci-eold=                    3                    2  -1.1076972797768057       -1.1076972770269176       -2.7498880950105331E-009 F
     orb,it,eci,eold,eci-eold=                    3                    3  -1.1076972797768057       -1.1076972797768057        0.0000000000000000      F
     orbital   3 current e=  0.782790E+00 error=0.125E-04 (eci= -0.110769728E+01 error=0.000E+00) iterations   3(   0 preconditioned, Ep,Sp= 20.0  200.0)
     orb,it,eci,eold,eci-eold=                    4                    1  -1.1076775774471042       -1.1076493857397565       -2.8191707347691164E-005 F
     orb,it,eci,eold,eci-eold=                    4                    2  -1.1076823318110318       -1.1076775774471042       -4.7543639276614869E-006 F
     orb,it,eci,eold,eci-eold=                    4                    3  -1.1076883163664113       -1.1076823318110318       -5.9845553794790618E-006 F
     orb,it,eci,eold,eci-eold=                    4                    4  -1.1076911871089257       -1.1076883163664113       -2.8707425143714715E-006 F
     orb,it,eci,eold,eci-eold=                    4                    5  -1.1076922057696228       -1.1076911871089257       -1.0186606971274159E-006 F
     orb,it,eci,eold,eci-eold=                    4                    6  -1.1076926739601942       -1.1076922057696228       -4.6819057142322151E-007 F
     orb,it,eci,eold,eci-eold=                    4                    7  -1.1076932525966972       -1.1076926739601942       -5.7863650293477065E-007 F
     orb,it,eci,eold,eci-eold=                    4                    8  -1.1076936462733076       -1.1076932525966972       -3.9367661042177815E-007 F
     orb,it,eci,eold,eci-eold=                    4                    9  -1.1076944899041292       -1.1076936462733076       -8.4363082164529146E-007 F
     orb,it,eci,eold,eci-eold=                    4                   10  -1.1076945497833124       -1.1076944899041292       -5.9879183167410588E-008 F
     orb,it,eci,eold,eci-eold=                    4                   11  -1.1076947435837550       -1.1076945497833124       -1.9380044258276996E-007 F
     orb,it,eci,eold,eci-eold=                    4                   12  -1.1076953092082720       -1.1076947435837550       -5.6562451700159500E-007 F
     orb,it,eci,eold,eci-eold=                    4                   13  -1.1076953355165409       -1.1076953092082720       -2.6308268896713116E-008 F
     orb,it,eci,eold,eci-eold=                    4                   14  -1.1076954113821305       -1.1076953355165409       -7.5865589588275384E-008 F
     orb,it,eci,eold,eci-eold=                    4                   15  -1.1076958728964126       -1.1076954113821305       -4.6151428212404255E-007 F
     orb,it,eci,eold,eci-eold=                    4                   16  -1.1076959567310236       -1.1076958728964126       -8.3834611031008421E-008 F
     orb,it,eci,eold,eci-eold=                    4                   17  -1.1076959798020598       -1.1076959567310236       -2.3071036192590100E-008 F
     orb,it,eci,eold,eci-eold=                    4                   18  -1.1076962763149769       -1.1076959798020598       -2.9651291710841576E-007 F
     orb,it,eci,eold,eci-eold=                    4                   19  -1.1076963291736202       -1.1076962763149769       -5.2858643240227821E-008 F
     orb,it,eci,eold,eci-eold=                    4                   20  -1.1076963527917381       -1.1076963291736202       -2.3618117905854774E-008 F
     orb,it,eci,eold,eci-eold=                    4                   21  -1.1076966036972429       -1.1076963527917381       -2.5090550481721152E-007 F
     orb,it,eci,eold,eci-eold=                    4                   22  -1.1076967387519110       -1.1076966036972429       -1.3505466811558620E-007 F
     orb,it,eci,eold,eci-eold=                    4                   23  -1.1076968323790934       -1.1076967387519110       -9.3627182451427871E-008 F
     orb,it,eci,eold,eci-eold=                    4                   24  -1.1076968676120635       -1.1076968323790934       -3.5232970096998883E-008 F
     orb,it,eci,eold,eci-eold=                    4                   25  -1.1076969601214604       -1.1076968676120635       -9.2509396809603572E-008 F
     orb,it,eci,eold,eci-eold=                    4                   26  -1.1076969609521810       -1.1076969601214604       -8.3072060341748966E-010 F
     orbital   4 current e=  0.784843E+00 error=0.757E-01 (eci= -0.110769696E+01 error=0.831E-09) iterations  26(   0 preconditioned, Ep,Sp= 20.0  200.0)
     orb,it,eci,eold,eci-eold=                    4                    1  -1.1076971351210467       -1.1076969609521810       -1.7416886577414914E-007 F
     orb,it,eci,eold,eci-eold=                    4                    2  -1.1076971387299299       -1.1076971351210467       -3.6088831922853615E-009 F
     orb,it,eci,eold,eci-eold=                    4                    3  -1.1076971528553083       -1.1076971387299299       -1.4125378422491508E-008 F
     orb,it,eci,eold,eci-eold=                    4                    4  -1.1076971814508019       -1.1076971528553083       -2.8595493528627003E-008 F
     orb,it,eci,eold,eci-eold=                    4                    5  -1.1076971880602822       -1.1076971814508019       -6.6094802964045130E-009 F
     orb,it,eci,eold,eci-eold=                    4                    6  -1.1076972170369828       -1.1076971880602822       -2.8976700594540716E-008 F
     orb,it,eci,eold,eci-eold=                    4                    7  -1.1076972264287950       -1.1076972170369828       -9.3918122168190621E-009 F
     orb,it,eci,eold,eci-eold=                    4                    8  -1.1076972300025971       -1.1076972264287950       -3.5738021431086509E-009 F
     orb,it,eci,eold,eci-eold=                    4                    9  -1.1076972512057226       -1.1076972300025971       -2.1203125477597951E-008 F
     orb,it,eci,eold,eci-eold=                    4                   10  -1.1076972598060344       -1.1076972512057226       -8.6003117960586906E-009 F
     orb,it,eci,eold,eci-eold=                    4                   11  -1.1076972633608657       -1.1076972598060344       -3.5548313181976710E-009 F
     orb,it,eci,eold,eci-eold=                    4                   12  -1.1076972657139730       -1.1076972633608657       -2.3531072645965878E-009 F
     orb,it,eci,eold,eci-eold=                    4                   13  -1.1076972695185527       -1.1076972657139730       -3.8045797623453836E-009 F
     orb,it,eci,eold,eci-eold=                    4                   14  -1.1076972695185527       -1.1076972695185527        0.0000000000000000      F
     orbital   4 current e=  0.782498E+00 error=0.234E-02 (eci= -0.110769727E+01 error=0.000E+00) iterations  14(   0 preconditioned, Ep,Sp= 20.0  200.0)
     orb,it,eci,eold,eci-eold=                    4                    1  -1.1076972755333065       -1.1076972692715263       -6.2617802054631966E-009 F
     orb,it,eci,eold,eci-eold=                    4                    2  -1.1076972755333065       -1.1076972755333065        0.0000000000000000      F
     orbital   4 current e=  0.782559E+00 error=0.603E-04 (eci= -0.110769728E+01 error=0.000E+00) iterations   2(   0 preconditioned, Ep,Sp= 20.0  200.0)
     orb,it,eci,eold,eci-eold=                    5                    1  -1.1035070559575433       -1.1034967222374439       -1.0333720099398036E-005 F
     orb,it,eci,eold,eci-eold=                    5                    2  -1.1035079263425860       -1.1035070559575433       -8.7038504270608996E-007 F
     orb,it,eci,eold,eci-eold=                    5                    3  -1.1035085139937471       -1.1035079263425860       -5.8765116106584969E-007 F
     orb,it,eci,eold,eci-eold=                    5                    4  -1.1035092969063001       -1.1035085139937471       -7.8291255301010665E-007 F
     orb,it,eci,eold,eci-eold=                    5                    5  -1.1035096657177894       -1.1035092969063001       -3.6881148934853059E-007 F
     orb,it,eci,eold,eci-eold=                    5                    6  -1.1035102882345069       -1.1035096657177894       -6.2251671750779281E-007 F
     orb,it,eci,eold,eci-eold=                    5                    7  -1.1035102993985058       -1.1035102882345069       -1.1163998836494216E-008 F
     orb,it,eci,eold,eci-eold=                    5                    8  -1.1035106316158165       -1.1035102993985058       -3.3221731077226480E-007 F
     orb,it,eci,eold,eci-eold=                    5                    9  -1.1035108162096099       -1.1035106316158165       -1.8459379336199788E-007 F
     orb,it,eci,eold,eci-eold=                    5                   10  -1.1035108997843324       -1.1035108162096099       -8.3574722475887597E-008 F
     orb,it,eci,eold,eci-eold=                    5                   11  -1.1035113010481965       -1.1035108997843324       -4.0126386413597004E-007 F
     orb,it,eci,eold,eci-eold=                    5                   12  -1.1035113235046956       -1.1035113010481965       -2.2456499104706040E-008 F
     orb,it,eci,eold,eci-eold=                    5                   13  -1.1035113429291883       -1.1035113235046956       -1.9424492680997218E-008 F
     orb,it,eci,eold,eci-eold=                    5                   14  -1.1035116136442897       -1.1035113429291883       -2.7071510144693889E-007 F
     orb,it,eci,eold,eci-eold=                    5                   15  -1.1035117376726851       -1.1035116136442897       -1.2402839533187660E-007 F
     orb,it,eci,eold,eci-eold=                    5                   16  -1.1035118165285722       -1.1035117376726851       -7.8855887153395088E-008 F
     orb,it,eci,eold,eci-eold=                    5                   17  -1.1035118676430984       -1.1035118165285722       -5.1114526167239660E-008 F
     orb,it,eci,eold,eci-eold=                    5                   18  -1.1035119672375171       -1.1035118676430984       -9.9594418712101174E-008 F
     orb,it,eci,eold,eci-eold=                    5                   19  -1.1035120053393810       -1.1035119672375171       -3.8101863886197407E-008 F
     orb,it,eci,eold,eci-eold=                    5                   20  -1.1035120260410483       -1.1035120053393810       -2.0701667269307222E-008 F
     orb,it,eci,eold,eci-eold=                    5                   21  -1.1035120415430626       -1.1035120260410483       -1.5502014338864001E-008 F
     orb,it,eci,eold,eci-eold=                    5                   22  -1.1035120739699313       -1.1035120415430626       -3.2426868745716320E-008 F
     orb,it,eci,eold,eci-eold=                    5                   23  -1.1035120898057897       -1.1035120739699313       -1.5835858402368785E-008 F
     orb,it,eci,eold,eci-eold=                    5                   24  -1.1035121014567173       -1.1035120898057897       -1.1650927556061674E-008 F
     orb,it,eci,eold,eci-eold=                    5                   25  -1.1035121076332099       -1.1035121014567173       -6.1764926506668871E-009 F
     orb,it,eci,eold,eci-eold=                    5                   26  -1.1035121192172181       -1.1035121076332099       -1.1584008197118578E-008 F
     orb,it,eci,eold,eci-eold=                    5                   27  -1.1035121192172181       -1.1035121192172181        0.0000000000000000      F
     orbital   5 current e=  0.165753E+01 error=0.147E+00 (eci= -0.110351212E+01 error=0.000E+00) iterations  27(   0 preconditioned, Ep,Sp= 20.0  200.0)
     orb,it,eci,eold,eci-eold=                    5                    1  -1.1035121354687354       -1.1035121185714993       -1.6897236054802534E-008 F
     orb,it,eci,eold,eci-eold=                    5                    2  -1.1035121406133355       -1.1035121354687354       -5.1446000792765290E-009 F
     orb,it,eci,eold,eci-eold=                    5                    3  -1.1035121468684324       -1.1035121406133355       -6.2550968848995581E-009 F
     orb,it,eci,eold,eci-eold=                    5                    4  -1.1035121468684324       -1.1035121468684324        0.0000000000000000      F
     orbital   5 current e=  0.165618E+01 error=0.134E-02 (eci= -0.110351215E+01 error=0.000E+00) iterations   4(   0 preconditioned, Ep,Sp= 20.0  200.0)
     orb,it,eci,eold,eci-eold=                    5                    1  -1.1035121506127519       -1.1035121462299811       -4.3827708129384746E-009 F
     orb,it,eci,eold,eci-eold=                    5                    2  -1.1035121521225344       -1.1035121506127519       -1.5097825212251337E-009 F
     orb,it,eci,eold,eci-eold=                    5                    3  -1.1035121521225344       -1.1035121521225344        0.0000000000000000      F
     orbital   5 current e=  0.165586E+01 error=0.324E-03 (eci= -0.110351215E+01 error=0.000E+00) iterations   3(   0 preconditioned, Ep,Sp= 20.0  200.0)
     orb,it,eci,eold,eci-eold=                    6                    1  -1.1031593976064342       -1.1031521145647196       -7.2830417146008131E-006 F
     orb,it,eci,eold,eci-eold=                    6                    2  -1.1031603916657999       -1.1031593976064342       -9.9405936571095310E-007 F
     orb,it,eci,eold,eci-eold=                    6                    3  -1.1031626089048867       -1.1031603916657999       -2.2172390867769565E-006 F
     orb,it,eci,eold,eci-eold=                    6                    4  -1.1031634252053328       -1.1031626089048867       -8.1630044612701624E-007 F
     orb,it,eci,eold,eci-eold=                    6                    5  -1.1031649943106985       -1.1031634252053328       -1.5691053656397003E-006 F
     orb,it,eci,eold,eci-eold=                    6                    6  -1.1031658751311924       -1.1031649943106985       -8.8082049387594452E-007 F
     orb,it,eci,eold,eci-eold=                    6                    7  -1.1031660098042775       -1.1031658751311924       -1.3467308512815634E-007 F
     orb,it,eci,eold,eci-eold=                    6                    8  -1.1031673280510945       -1.1031660098042775       -1.3182468170391815E-006 F
     orb,it,eci,eold,eci-eold=                    6                    9  -1.1031677637331294       -1.1031673280510945       -4.3568203489385837E-007 F
     orb,it,eci,eold,eci-eold=                    6                   10  -1.1031678773949654       -1.1031677637331294       -1.1366183594319068E-007 F
     orb,it,eci,eold,eci-eold=                    6                   11  -1.1031685882344855       -1.1031678773949654       -7.1083952013495377E-007 F
     orb,it,eci,eold,eci-eold=                    6                   12  -1.1031688688320813       -1.1031685882344855       -2.8059759582532706E-007 F
     orb,it,eci,eold,eci-eold=                    6                   13  -1.1031691164496642       -1.1031688688320813       -2.4761758288249780E-007 F
     orb,it,eci,eold,eci-eold=                    6                   14  -1.1031697403055569       -1.1031691164496642       -6.2385589272295761E-007 F
     orb,it,eci,eold,eci-eold=                    6                   15  -1.1031701064411210       -1.1031697403055569       -3.6613556408937598E-007 F
     orb,it,eci,eold,eci-eold=                    6                   16  -1.1031704763580252       -1.1031701064411210       -3.6991690421928070E-007 F
     orb,it,eci,eold,eci-eold=                    6                   17  -1.1031706586011412       -1.1031704763580252       -1.8224311593151299E-007 F
     orb,it,eci,eold,eci-eold=                    6                   18  -1.1031708745731217       -1.1031706586011412       -2.1597198052170086E-007 F
     orb,it,eci,eold,eci-eold=                    6                   19  -1.1031709735782056       -1.1031708745731217       -9.9005083908920710E-008 F
     orb,it,eci,eold,eci-eold=                    6                   20  -1.1031710973871389       -1.1031709735782056       -1.2380893332775145E-007 F
     orb,it,eci,eold,eci-eold=                    6                   21  -1.1031711704191942       -1.1031710973871389       -7.3032055292188147E-008 F
     orb,it,eci,eold,eci-eold=                    6                   22  -1.1031712567678602       -1.1031711704191942       -8.6348665995217289E-008 F
     orb,it,eci,eold,eci-eold=                    6                   23  -1.1031712997330498       -1.1031712567678602       -4.2965189628318967E-008 F
     orb,it,eci,eold,eci-eold=                    6                   24  -1.1031713588735341       -1.1031712997330498       -5.9140484287567574E-008 F
     orb,it,eci,eold,eci-eold=                    6                   25  -1.1031713919599637       -1.1031713588735341       -3.3086429596096423E-008 F
     orb,it,eci,eold,eci-eold=                    6                   26  -1.1031714300601183       -1.1031713919599637       -3.8100154586828694E-008 F
     orb,it,eci,eold,eci-eold=                    6                   27  -1.1031714498826097       -1.1031714300601183       -1.9822491426069178E-008 F
     orb,it,eci,eold,eci-eold=                    6                   28  -1.1031714767572121       -1.1031714498826097       -2.6874602321314001E-008 F
     orb,it,eci,eold,eci-eold=                    6                   29  -1.1031714912300472       -1.1031714767572121       -1.4472835152545827E-008 F
     orb,it,eci,eold,eci-eold=                    6                   30  -1.1031715072231314       -1.1031714912300472       -1.5993084190313311E-008 F
     orb,it,eci,eold,eci-eold=                    6                   31  -1.1031715152445780       -1.1031715072231314       -8.0214466180450472E-009 F
     orb,it,eci,eold,eci-eold=                    6                   32  -1.1031715265011999       -1.1031715152445780       -1.1256621856858828E-008 F
     orb,it,eci,eold,eci-eold=                    6                   33  -1.1031715324608775       -1.1031715265011999       -5.9596776402770502E-009 F
     orb,it,eci,eold,eci-eold=                    6                   34  -1.1031715388695718       -1.1031715324608775       -6.4086942419550041E-009 F
     orb,it,eci,eold,eci-eold=                    6                   35  -1.1031715421109907       -1.1031715388695718       -3.2414189110596681E-009 F
     orb,it,eci,eold,eci-eold=                    6                   36  -1.1031715465006688       -1.1031715421109907       -4.3896781765084825E-009 F
     orb,it,eci,eold,eci-eold=                    6                   37  -1.1031715488285896       -1.1031715465006688       -2.3279207450599415E-009 F
     orb,it,eci,eold,eci-eold=                    6                   38  -1.1031715515571954       -1.1031715488285896       -2.7286057857622836E-009 F
     orb,it,eci,eold,eci-eold=                    6                   39  -1.1031715515571954       -1.1031715515571954        0.0000000000000000      F
     orbital   6 current e=  0.175302E+01 error=0.297E+00 (eci= -0.110317155E+01 error=0.000E+00) iterations  39(   0 preconditioned, Ep,Sp= 20.0  200.0)
     orb,it,eci,eold,eci-eold=                    6                    1  -1.1031715525061025       -1.1031715508995619       -1.6065406782672653E-009 F
     orb,it,eci,eold,eci-eold=                    6                    2  -1.1031715525295784       -1.1031715525061025       -2.3475887900303860E-011 F
     orbital   6 current e=  0.175352E+01 error=0.499E-03 (eci= -0.110317155E+01 error=0.235E-10) iterations   2(   0 preconditioned, Ep,Sp= 20.0  200.0)
     orb,it,eci,eold,eci-eold=                    6                    1  -1.1031715538707996       -1.1031715525295784       -1.3412211341545799E-009 F
     orb,it,eci,eold,eci-eold=                    6                    2  -1.1031715538707996       -1.1031715538707996        0.0000000000000000      F
     orbital   6 current e=  0.175387E+01 error=0.347E-03 (eci= -0.110317155E+01 error=0.000E+00) iterations   2(   0 preconditioned, Ep,Sp= 20.0  200.0)
     orb,it,eci,eold,eci-eold=                    7                    1  -1.1030463925808069       -1.1030462366455851       -1.5593522184609299E-007 F
     orb,it,eci,eold,eci-eold=                    7                    2  -1.1030495979631316       -1.1030463925808069       -3.2053823246780411E-006 F
     orb,it,eci,eold,eci-eold=                    7                    3  -1.1030518879179605       -1.1030495979631316       -2.2899548288712879E-006 F
     orb,it,eci,eold,eci-eold=                    7                    4  -1.1030532503314345       -1.1030518879179605       -1.3624134740375382E-006 F
     orb,it,eci,eold,eci-eold=                    7                    5  -1.1030540319854554       -1.1030532503314345       -7.8165402084273694E-007 F
     orb,it,eci,eold,eci-eold=                    7                    6  -1.1030543528977848       -1.1030540319854554       -3.2091232937681013E-007 F
     orb,it,eci,eold,eci-eold=                    7                    7  -1.1030544594419829       -1.1030543528977848       -1.0654419813072025E-007 F
     orb,it,eci,eold,eci-eold=                    7                    8  -1.1030545791986135       -1.1030544594419829       -1.1975663061214448E-007 F
     orb,it,eci,eold,eci-eold=                    7                    9  -1.1030546594139850       -1.1030545791986135       -8.0215371456304752E-008 F
     orb,it,eci,eold,eci-eold=                    7                   10  -1.1030547117294076       -1.1030546594139850       -5.2315422660598188E-008 F
     orb,it,eci,eold,eci-eold=                    7                   11  -1.1030548305926271       -1.1030547117294076       -1.1886321948928469E-007 F
     orb,it,eci,eold,eci-eold=                    7                   12  -1.1030548806655698       -1.1030548305926271       -5.0072942681111954E-008 F
     orb,it,eci,eold,eci-eold=                    7                   13  -1.1030548960919702       -1.1030548806655698       -1.5426400379325855E-008 F
     orb,it,eci,eold,eci-eold=                    7                   14  -1.1030549024899725       -1.1030548960919702       -6.3980023501386540E-009 F
     orb,it,eci,eold,eci-eold=                    7                   15  -1.1030549188073375       -1.1030549024899725       -1.6317365014728580E-008 F
     orb,it,eci,eold,eci-eold=                    7                   16  -1.1030549300901251       -1.1030549188073375       -1.1282787593103194E-008 F
     orb,it,eci,eold,eci-eold=                    7                   17  -1.1030549434883199       -1.1030549300901251       -1.3398194775859906E-008 F
     orb,it,eci,eold,eci-eold=                    7                   18  -1.1030549487341841       -1.1030549434883199       -5.2458641874864043E-009 F
     orb,it,eci,eold,eci-eold=                    7                   19  -1.1030549507951830       -1.1030549487341841       -2.0609989270781170E-009 F
     orb,it,eci,eold,eci-eold=                    7                   20  -1.1030549518805002       -1.1030549507951830       -1.0853171694691355E-009 F
     orb,it,eci,eold,eci-eold=                    7                   21  -1.1030549548196593       -1.1030549518805002       -2.9391591382932347E-009 F
     orb,it,eci,eold,eci-eold=                    7                   22  -1.1030549548196593       -1.1030549548196593        0.0000000000000000      F
     orbital   7 current e=  0.177062E+01 error=0.169E+00 (eci= -0.110305495E+01 error=0.000E+00) iterations  22(   0 preconditioned, Ep,Sp= 20.0  200.0)
     orb,it,eci,eold,eci-eold=                    7                    1  -1.1030549587642988       -1.1030549544881465       -4.2761523211254371E-009 F
     orb,it,eci,eold,eci-eold=                    7                    2  -1.1030549594745931       -1.1030549587642988       -7.1029426784718908E-010 F
     orbital   7 current e=  0.177069E+01 error=0.627E-04 (eci= -0.110305496E+01 error=0.710E-09) iterations   2(   0 preconditioned, Ep,Sp= 20.0  200.0)
     orb,it,eci,eold,eci-eold=                    7                    1  -1.1030549594745931       -1.1030549594745931        0.0000000000000000      F
     orbital   7 current e=  0.177072E+01 error=0.362E-04 (eci= -0.110305496E+01 error=0.000E+00) iterations   1(   0 preconditioned, Ep,Sp= 20.0  200.0)
     orb,it,eci,eold,eci-eold=                    8                    1  -1.1030524747341286       -1.1030463008743641       -6.1738597645355497E-006 F
     orb,it,eci,eold,eci-eold=                    8                    2  -1.1030525365119237       -1.1030524747341286       -6.1777795101747301E-008 F
     orb,it,eci,eold,eci-eold=                    8                    3  -1.1030525365119237       -1.1030525365119237        0.0000000000000000      F
     orbital   8 current e=  0.181132E+01 error=0.127E+00 (eci= -0.110305254E+01 error=0.000E+00) iterations   3(   0 preconditioned, Ep,Sp= 20.0  200.0)
     orb,it,eci,eold,eci-eold=                    8                    1  -1.1030541045559086       -1.1030525357025298       -1.5688533787638903E-006 F
     orb,it,eci,eold,eci-eold=                    8                    2  -1.1030544790568564       -1.1030541045559086       -3.7450094780844267E-007 F
     orb,it,eci,eold,eci-eold=                    8                    3  -1.1030545824603155       -1.1030544790568564       -1.0340345912851490E-007 F
     orb,it,eci,eold,eci-eold=                    8                    4  -1.1030547157953519       -1.1030545824603155       -1.3333503634527233E-007 F
     orb,it,eci,eold,eci-eold=                    8                    5  -1.1030547717498809       -1.1030547157953519       -5.5954529010193710E-008 F
     orb,it,eci,eold,eci-eold=                    8                    6  -1.1030548084413097       -1.1030547717498809       -3.6691428784152436E-008 F
     orb,it,eci,eold,eci-eold=                    8                    7  -1.1030548321627238       -1.1030548084413097       -2.3721414166288923E-008 F
     orb,it,eci,eold,eci-eold=                    8                    8  -1.1030548528921187       -1.1030548321627238       -2.0729394867302631E-008 F
     orb,it,eci,eold,eci-eold=                    8                    9  -1.1030548769098383       -1.1030548528921187       -2.4017719590929687E-008 F
     orb,it,eci,eold,eci-eold=                    8                   10  -1.1030548872299919       -1.1030548769098383       -1.0320153620568817E-008 F
     orb,it,eci,eold,eci-eold=                    8                   11  -1.1030548962760522       -1.1030548872299919       -9.0460603452413579E-009 F
     orb,it,eci,eold,eci-eold=                    8                   12  -1.1030549068030877       -1.1030548962760522       -1.0527035465557333E-008 F
     orb,it,eci,eold,eci-eold=                    8                   13  -1.1030549148270659       -1.1030549068030877       -8.0239781485857975E-009 F
     orb,it,eci,eold,eci-eold=                    8                   14  -1.1030549199020221       -1.1030549148270659       -5.0749562330310027E-009 F
     orb,it,eci,eold,eci-eold=                    8                   15  -1.1030549299169032       -1.1030549199020221       -1.0014881146602761E-008 F
     orb,it,eci,eold,eci-eold=                    8                   16  -1.1030549344811742       -1.1030549299169032       -4.5642709611826149E-009 F
     orb,it,eci,eold,eci-eold=                    8                   17  -1.1030549352957373       -1.1030549344811742       -8.1456308365090990E-010 F
     orbital   8 current e=  0.177542E+01 error=0.359E-01 (eci= -0.110305494E+01 error=0.815E-09) iterations  17(   0 preconditioned, Ep,Sp= 20.0  200.0)
     orb,it,eci,eold,eci-eold=                    8                    1  -1.1030549486333769       -1.1030549352957373       -1.3337639659383171E-008 F
     orb,it,eci,eold,eci-eold=                    8                    2  -1.1030549516246602       -1.1030549486333769       -2.9912832211209661E-009 F
     orb,it,eci,eold,eci-eold=                    8                    3  -1.1030549544425894       -1.1030549516246602       -2.8179292232977105E-009 F
     orb,it,eci,eold,eci-eold=                    8                    4  -1.1030549544425894       -1.1030549544425894        0.0000000000000000      F
     orbital   8 current e=  0.177202E+01 error=0.340E-02 (eci= -0.110305495E+01 error=0.000E+00) iterations   4(   0 preconditioned, Ep,Sp= 20.0  200.0)
     orb,it,eci,eold,eci-eold=                    9                    1  -1.1025760707745964       -1.1025734519777484       -2.6187968480417823E-006 F
     orb,it,eci,eold,eci-eold=                    9                    2  -1.1025765557881091       -1.1025760707745964       -4.8501351268548376E-007 F
     orb,it,eci,eold,eci-eold=                    9                    3  -1.1025775180805497       -1.1025765557881091       -9.6229244062051578E-007 F
     orb,it,eci,eold,eci-eold=                    9                    4  -1.1025779754531901       -1.1025775180805497       -4.5737264042777781E-007 F
     orb,it,eci,eold,eci-eold=                    9                    5  -1.1025780712637412       -1.1025779754531901       -9.5810551048458592E-008 F
     orb,it,eci,eold,eci-eold=                    9                    6  -1.1025781081319244       -1.1025780712637412       -3.6868183173055513E-008 F
     orb,it,eci,eold,eci-eold=                    9                    7  -1.1025784172548474       -1.1025781081319244       -3.0912292303675315E-007 F
     orb,it,eci,eold,eci-eold=                    9                    8  -1.1025785569907351       -1.1025784172548474       -1.3973588774973678E-007 F
     orb,it,eci,eold,eci-eold=                    9                    9  -1.1025787395484155       -1.1025785569907351       -1.8255768030606134E-007 F
     orb,it,eci,eold,eci-eold=                    9                   10  -1.1025788460044030       -1.1025787395484155       -1.0645598758074470E-007 F
     orb,it,eci,eold,eci-eold=                    9                   11  -1.1025789289070314       -1.1025788460044030       -8.2902628317782501E-008 F
     orb,it,eci,eold,eci-eold=                    9                   12  -1.1025789716601138       -1.1025789289070314       -4.2753082407642751E-008 F
     orb,it,eci,eold,eci-eold=                    9                   13  -1.1025790465447514       -1.1025789716601138       -7.4884637601968507E-008 F
     orb,it,eci,eold,eci-eold=                    9                   14  -1.1025790857125912       -1.1025790465447514       -3.9167839860354547E-008 F
     orb,it,eci,eold,eci-eold=                    9                   15  -1.1025791344455151       -1.1025790857125912       -4.8732923918493043E-008 F
     orb,it,eci,eold,eci-eold=                    9                   16  -1.1025791545925401       -1.1025791344455151       -2.0147024937244851E-008 F
     orb,it,eci,eold,eci-eold=                    9                   17  -1.1025791688857234       -1.1025791545925401       -1.4293183303593082E-008 F
     orb,it,eci,eold,eci-eold=                    9                   18  -1.1025791774711544       -1.1025791688857234       -8.5854310327704297E-009 F
     orb,it,eci,eold,eci-eold=                    9                   19  -1.1025791882334073       -1.1025791774711544       -1.0762252866669542E-008 F
     orb,it,eci,eold,eci-eold=                    9                   20  -1.1025791950297765       -1.1025791882334073       -6.7963692451655788E-009 F
     orb,it,eci,eold,eci-eold=                    9                   21  -1.1025792074125105       -1.1025791950297765       -1.2382733949323210E-008 F
     orb,it,eci,eold,eci-eold=                    9                   22  -1.1025792074125105       -1.1025792074125105        0.0000000000000000      F
     orbital   9 current e=  0.250795E+01 error=0.336E+00 (eci= -0.110257921E+01 error=0.000E+00) iterations  22(   0 preconditioned, Ep,Sp= 20.0  200.0)
     orb,it,eci,eold,eci-eold=                    9                    1  -1.1025792241029888       -1.1025792065901314       -1.7512857386492442E-008 F
     orb,it,eci,eold,eci-eold=                    9                    2  -1.1025792257637779       -1.1025792241029888       -1.6607890618303145E-009 F
     orb,it,eci,eold,eci-eold=                    9                    3  -1.1025792288114338       -1.1025792257637779       -3.0476559054193331E-009 F
     orb,it,eci,eold,eci-eold=                    9                    4  -1.1025792293343570       -1.1025792288114338       -5.2292326024883096E-010 F
     orbital   9 current e=  0.250419E+01 error=0.377E-02 (eci= -0.110257923E+01 error=0.523E-09) iterations   4(   0 preconditioned, Ep,Sp= 20.0  200.0)
     orb,it,eci,eold,eci-eold=                    9                    1  -1.1025792345368883       -1.1025792293343570       -5.2025312946568647E-009 F
     orb,it,eci,eold,eci-eold=                    9                    2  -1.1025792345368883       -1.1025792345368883        0.0000000000000000      F
     orbital   9 current e=  0.250362E+01 error=0.570E-03 (eci= -0.110257923E+01 error=0.000E+00) iterations   2(   0 preconditioned, Ep,Sp= 20.0  200.0)
     orb,it,eci,eold,eci-eold=                   10                    1  -1.1025763737441585       -1.1025735689384728       -2.8048056857077341E-006 F
     orb,it,eci,eold,eci-eold=                   10                    2  -1.1025769524436020       -1.1025763737441585       -5.7869944347643809E-007 F
     orb,it,eci,eold,eci-eold=                   10                    3  -1.1025780623439105       -1.1025769524436020       -1.1099003085490722E-006 F
     orb,it,eci,eold,eci-eold=                   10                    4  -1.1025784058174037       -1.1025780623439105       -3.4347349320285048E-007 F
     orb,it,eci,eold,eci-eold=                   10                    5  -1.1025785734716065       -1.1025784058174037       -1.6765420274289511E-007 F
     orb,it,eci,eold,eci-eold=                   10                    6  -1.1025786811105895       -1.1025785734716065       -1.0763898306009878E-007 F
     orb,it,eci,eold,eci-eold=                   10                    7  -1.1025788135627934       -1.1025786811105895       -1.3245220387148038E-007 F
     orb,it,eci,eold,eci-eold=                   10                    8  -1.1025788172869881       -1.1025788135627934       -3.7241947303812140E-009 F
     orb,it,eci,eold,eci-eold=                   10                    9  -1.1025788987656433       -1.1025788172869881       -8.1478655156175250E-008 F
     orb,it,eci,eold,eci-eold=                   10                   10  -1.1025790414677523       -1.1025788987656433       -1.4270210901834446E-007 F
     orb,it,eci,eold,eci-eold=                   10                   11  -1.1025790690644792       -1.1025790414677523       -2.7596726903666990E-008 F
     orb,it,eci,eold,eci-eold=                   10                   12  -1.1025791011779806       -1.1025790690644792       -3.2113501413633116E-008 F
     orb,it,eci,eold,eci-eold=                   10                   13  -1.1025791727203949       -1.1025791011779806       -7.1542414215031158E-008 F
     orb,it,eci,eold,eci-eold=                   10                   14  -1.1025791751912903       -1.1025791727203949       -2.4708954882157741E-009 F
     orb,it,eci,eold,eci-eold=                   10                   15  -1.1025791869731838       -1.1025791751912903       -1.1781893460849346E-008 F
     orb,it,eci,eold,eci-eold=                   10                   16  -1.1025792369454928       -1.1025791869731838       -4.9972308957535461E-008 F
     orb,it,eci,eold,eci-eold=                   10                   17  -1.1025792445671909       -1.1025792369454928       -7.6216981614862789E-009 F
     orb,it,eci,eold,eci-eold=                   10                   18  -1.1025792501793947       -1.1025792445671909       -5.6122038127881524E-009 F
     orb,it,eci,eold,eci-eold=                   10                   19  -1.1025792894208875       -1.1025792501793947       -3.9241492721941995E-008 F
     orb,it,eci,eold,eci-eold=                   10                   20  -1.1025793017769121       -1.1025792894208875       -1.2356024647885988E-008 F
     orb,it,eci,eold,eci-eold=                   10                   21  -1.1025793047119838       -1.1025793017769121       -2.9350717412057747E-009 F
     orb,it,eci,eold,eci-eold=                   10                   22  -1.1025793277276486       -1.1025793047119838       -2.3015664707415340E-008 F
     orb,it,eci,eold,eci-eold=                   10                   23  -1.1025793375920321       -1.1025793277276486       -9.8643835322320683E-009 F
     orb,it,eci,eold,eci-eold=                   10                   24  -1.1025793410515485       -1.1025793375920321       -3.4595164510875520E-009 F
     orb,it,eci,eold,eci-eold=                   10                   25  -1.1025793522939422       -1.1025793410515485       -1.1242393682664442E-008 F
     orb,it,eci,eold,eci-eold=                   10                   26  -1.1025793548264053       -1.1025793522939422       -2.5324631280909671E-009 F
     orb,it,eci,eold,eci-eold=                   10                   27  -1.1025793576614846       -1.1025793548264053       -2.8350792824483051E-009 F
     orb,it,eci,eold,eci-eold=                   10                   28  -1.1025793662263674       -1.1025793576614846       -8.5648828029860624E-009 F
     orb,it,eci,eold,eci-eold=                   10                   29  -1.1025793673180599       -1.1025793662263674       -1.0916925141657430E-009 F
     orb,it,eci,eold,eci-eold=                   10                   30  -1.1025793684810614       -1.1025793673180599       -1.1630014729036020E-009 F
     orb,it,eci,eold,eci-eold=                   10                   31  -1.1025793755211730       -1.1025793684810614       -7.0401116047946743E-009 F
     orb,it,eci,eold,eci-eold=                   10                   32  -1.1025793780384572       -1.1025793755211730       -2.5172841588982919E-009 F
     orb,it,eci,eold,eci-eold=                   10                   33  -1.1025793788089766       -1.1025793780384572       -7.7051942604100532E-010 F
     orbital  10 current e=  0.250002E+01 error=0.345E+00 (eci= -0.110257938E+01 error=0.771E-09) iterations  33(   0 preconditioned, Ep,Sp= 20.0  200.0)
     orb,it,eci,eold,eci-eold=                   10                    1  -1.1025793917393825       -1.1025793788089766       -1.2930405857147775E-008 F
     orb,it,eci,eold,eci-eold=                   10                    2  -1.1025793971372151       -1.1025793917393825       -5.3978326253201203E-009 F
     orb,it,eci,eold,eci-eold=                   10                    3  -1.1025793989733308       -1.1025793971372151       -1.8361157039237241E-009 F
     orb,it,eci,eold,eci-eold=                   10                    4  -1.1025793989733308       -1.1025793989733308        0.0000000000000000      F
     orbital  10 current e=  0.250164E+01 error=0.161E-02 (eci= -0.110257940E+01 error=0.000E+00) iterations   4(   0 preconditioned, Ep,Sp= 20.0  200.0)
     orb,it,eci,eold,eci-eold=                   10                    1  -1.1025793998575655       -1.1025793989042612       -9.5330432436924184E-010 F
     orbital  10 current e=  0.250171E+01 error=0.789E-04 (eci= -0.110257940E+01 error=0.953E-09) iterations   1(   0 preconditioned, Ep,Sp= 20.0  200.0)
     orb,it,eci,eold,eci-eold=                   11                    1  -1.1025729540377691       -1.1025691190478444       -3.8349899247336339E-006 F
     orb,it,eci,eold,eci-eold=                   11                    2  -1.1025736567913820       -1.1025729540377691       -7.0275361285787596E-007 F
     orb,it,eci,eold,eci-eold=                   11                    3  -1.1025746672359305       -1.1025736567913820       -1.0104445484770963E-006 F
     orb,it,eci,eold,eci-eold=                   11                    4  -1.1025750528240967       -1.1025746672359305       -3.8558816628508907E-007 F
     orb,it,eci,eold,eci-eold=                   11                    5  -1.1025751367374863       -1.1025750528240967       -8.3913389570255958E-008 F
     orb,it,eci,eold,eci-eold=                   11                    6  -1.1025754247830923       -1.1025751367374863       -2.8804560603390428E-007 F
     orb,it,eci,eold,eci-eold=                   11                    7  -1.1025755610882506       -1.1025754247830923       -1.3630515827145473E-007 F
     orb,it,eci,eold,eci-eold=                   11                    8  -1.1025756699735478       -1.1025755610882506       -1.0888529722308249E-007 F
     orb,it,eci,eold,eci-eold=                   11                    9  -1.1025757665604417       -1.1025756699735478       -9.6586893816308361E-008 F
[...]
   16   13   16   16       -0.0000010729
   16   13   17   16        0.0000001301
   16   13   18   16        0.0009639612
   16   13   19   16       -0.0000000004
   16   13   17   17       -0.0000011771
   16   13   18   17        0.0029079268
   16   13   19   17       -0.0000000000
   16   13   18   18       -0.0000026059
   16   13   19   18        0.0000000001
   16   13   19   19       -0.0000009964
   17   13   17   13        0.0223476259
   17   13   18   13       -0.0000081380
   17   13   19   13       -0.0000000001
   17   13   14   14       -0.0000556076
   17   13   15   14        0.0000000017
   17   13   16   14       -0.0100715836
   17   13   17   14        0.0033476774
   17   13   18   14       -0.0002292133
   17   13   19   14       -0.0000000054
   17   13   15   15        0.0000106518
   17   13   16   15        0.0000000300
   17   13   17   15       -0.0000000099
   17   13   18   15       -0.0000000001
   17   13   19   15        0.0000000096
   17   13   16   16        0.0000098569
   17   13   17   16       -0.0000001166
   17   13   18   16        0.0029020257
   17   13   19   16       -0.0000000003
   17   13   17   17        0.0000098549
   17   13   18   17       -0.0009647845
   17   13   19   17       -0.0000000004
   17   13   18   18        0.0000129961
   17   13   19   18        0.0000000006
   17   13   19   19        0.0000114012
   18   13   18   13        0.0067526856
   18   13   19   13        0.0000000146
   18   13   14   14        0.0000160863
   18   13   15   14        0.0000000003
   18   13   16   14        0.0000455902
   18   13   17   14       -0.0000808948
   18   13   18   14        0.0000042627
   18   13   19   14        0.0000000794
   18   13   15   15        0.0000077817
   18   13   16   15        0.0000000019
   18   13   17   15       -0.0000000002
   18   13   18   15       -0.0000000006
   18   13   19   15       -0.0022416383
   18   13   16   16        0.0009072135
   18   13   17   16        0.0027222477
   18   13   18   16       -0.0000012359
   18   13   19   16        0.0000000005
   18   13   17   17       -0.0008954925
   18   13   18   17        0.0000048589
   18   13   19   17        0.0000000018
   18   13   18   18        0.0000074331
   18   13   19   18       -0.0000000334
   18   13   19   19        0.0000051548
   19   13   19   13        0.0521458666
   19   13   14   14       -0.0000004286
   19   13   15   14        0.0017152387
   19   13   16   14       -0.0000000003
   19   13   17   14        0.0000000008
   19   13   18   14        0.0000007990
   19   13   19   14        0.0000588959
   19   13   15   15        0.0000000148
   19   13   16   15       -0.0000004694
   19   13   17   15        0.0000007311
   19   13   18   15        0.0003154707
   19   13   19   15        0.0000000001
   19   13   16   16       -0.0000000007
   19   13   17   16       -0.0000000002
   19   13   18   16        0.0000000015
   19   13   19   16       -0.0000026003
   19   13   17   17       -0.0000000007
   19   13   18   17        0.0000000023
   19   13   19   17       -0.0000027714
   19   13   18   18       -0.0000004229
   19   13   19   18       -0.0000004259
   19   13   19   19       -0.0000000026
   14   14   14   14        0.6220683150
   14   14   15   14       -0.0000003048
   14   14   16   14       -0.0003602488
   14   14   17   14        0.0004173719
   14   14   18   14        0.0376012910
   14   14   19   14       -0.0000000031
   14   14   15   15        0.5326374903
   14   14   16   15       -0.0000000036
   14   14   17   15       -0.0000000177
   14   14   18   15       -0.0000002647
   14   14   19   15        0.0000333812
   14   14   16   16        0.5179849475
   14   14   17   16        0.0000250020
   14   14   18   16       -0.0002017272
   14   14   19   16       -0.0000000006
   14   14   17   17        0.5182377762
   14   14   18   17        0.0002328076
   14   14   19   17       -0.0000000032
   14   14   18   18        0.5514250366
   14   14   19   18       -0.0000000034
   14   14   19   19        0.5147061465
   15   14   15   14        0.0154986773
   15   14   16   14        0.0000000002
   15   14   17   14       -0.0000000061
   15   14   18   14       -0.0000003426
   15   14   19   14        0.0000129639
   15   14   15   15       -0.0000000765
   15   14   16   15       -0.0000078216
   15   14   17   15        0.0000090467
   15   14   18   15        0.0016249033
   15   14   19   15        0.0000000001
   15   14   16   16       -0.0000000964
   15   14   17   16       -0.0000000000
   15   14   18   16       -0.0000000005
   15   14   19   16       -0.0000044561
   15   14   17   17       -0.0000000966
   15   14   18   17       -0.0000000014
   15   14   19   17       -0.0000264935
   15   14   18   18        0.0000000447
   15   14   19   18       -0.0000011825
   15   14   19   19       -0.0000002670
   16   14   16   14        0.0111742433
   16   14   17   14        0.0000181499
   16   14   18   14       -0.0000280716
   16   14   19   14       -0.0000000001
   16   14   15   15       -0.0001198316
   16   14   16   15        0.0000000641
   16   14   17   15       -0.0000000000
   16   14   18   15        0.0000000004
   16   14   19   15        0.0000012950
   16   14   16   16       -0.0001072469
   16   14   17   16        0.0000005472
   16   14   18   16        0.0011142124
   16   14   19   16        0.0000000779
   16   14   17   17       -0.0001089682
   16   14   18   17       -0.0000032683
   16   14   19   17        0.0000000419
   16   14   18   18       -0.0001210073
   16   14   19   18       -0.0000000003
   16   14   19   19       -0.0001187601
   17   14   17   14        0.0112402111
   17   14   18   14        0.0000317842
   17   14   19   14       -0.0000000007
   17   14   15   15        0.0001387255
   17   14   16   15       -0.0000000000
   17   14   17   15        0.0000000640
   17   14   18   15       -0.0000000014
   17   14   19   15        0.0000114601
   17   14   16   16        0.0001254505
   17   14   17   16       -0.0000009952
   17   14   18   16       -0.0000024881
   17   14   19   16        0.0000000419
   17   14   17   17        0.0001247925
   17   14   18   17        0.0011022098
   17   14   19   17       -0.0000000775
   17   14   18   18        0.0001400743
   17   14   19   18        0.0000000001
   17   14   19   19        0.0001390322
   18   14   18   14        0.0173606320
   18   14   19   14        0.0000000002
   18   14   15   15        0.0199149741
   18   14   16   15       -0.0000000008
   18   14   17   15       -0.0000000039
   18   14   18   15        0.0000000168
   18   14   19   15       -0.0000032470
   18   14   16   16        0.0159765152
   18   14   17   16       -0.0000028023
   18   14   18   16       -0.0000417656
   18   14   19   16       -0.0000000004
   18   14   17   17        0.0159726326
   18   14   18   17        0.0000484208
   18   14   19   17        0.0000000005
   18   14   18   18        0.0187209491
   18   14   19   18       -0.0000000018
   18   14   19   19        0.0124539538
   19   14   19   14        0.0122576037
   19   14   15   15       -0.0000000013
   19   14   16   15        0.0000027511
   19   14   17   15        0.0000144153
   19   14   18   15        0.0000000500
   19   14   19   15       -0.0000000428
   19   14   16   16        0.0000000341
   19   14   17   16        0.0000000190
   19   14   18   16       -0.0000000002
   19   14   19   16        0.0000230923
   19   14   17   17       -0.0000000362
   19   14   18   17        0.0000000002
   19   14   19   17       -0.0000274348
   19   14   18   18       -0.0000000029
   19   14   19   18       -0.0012449512
   19   14   19   19       -0.0000000008
   15   15   15   15        0.6403455430
   15   15   16   15       -0.0000000017
   15   15   17   15       -0.0000000120
   15   15   18   15       -0.0000000616
   15   15   19   15        0.0000000007
   15   15   16   16        0.5850090837
   15   15   17   16       -0.0000012430
   15   15   18   16        0.0000005760
   15   15   19   16        0.0000000103
   15   15   17   17        0.5851561939
   15   15   18   17       -0.0000006336
   15   15   19   17       -0.0000000129
   15   15   18   18        0.5886827052
   15   15   19   18       -0.0000000045
   15   15   19   19        0.5440780500
   16   15   16   15        0.0224577098
   16   15   17   15       -0.0000001774
   16   15   18   15        0.0000000728
   16   15   19   15        0.0000000006
   16   15   16   16       -0.0000000037
   16   15   17   16        0.0000000019
   16   15   18   16       -0.0000000670
   16   15   19   16        0.0102383456
   16   15   17   17       -0.0000000043
   16   15   18   17        0.0000000029
   16   15   19   17        0.0054972585
   16   15   18   18       -0.0000000080
   16   15   19   18        0.0000030786
   16   15   19   19        0.0000000001
   17   15   17   15        0.0224636300
   17   15   18   15       -0.0000000916
   17   15   19   15       -0.0000000004
   17   15   16   16       -0.0000000284
   17   15   17   16        0.0000000004
   17   15   18   16        0.0000000029
   17   15   19   16        0.0054976195
   17   15   17   17       -0.0000000242
   17   15   18   17       -0.0000000658
   17   15   19   17       -0.0102415707
   17   15   18   18       -0.0000000369
   17   15   19   18        0.0000006486
   17   15   19   19       -0.0000000002
   18   15   18   15        0.0228121134
   18   15   19   15       -0.0000000011
   18   15   16   16        0.0000000898
   18   15   17   16       -0.0000000027
   18   15   18   16       -0.0000000011
   18   15   19   16        0.0000033042
   18   15   17   17        0.0000000886
   18   15   18   17       -0.0000000045
   18   15   19   17        0.0000007811
   18   15   18   18        0.0000000607
   18   15   19   18        0.0000000115
   18   15   19   19        0.0000002001
   19   15   19   15        0.0202946540
   19   15   16   16       -0.0087622910
   19   15   17   16       -0.0046722174
   19   15   18   16       -0.0000023505
   19   15   19   16        0.0000000003
   19   15   17   17        0.0087632454
   19   15   18   17       -0.0000003953
   19   15   19   17        0.0000000031
   19   15   18   18        0.0000000251
   19   15   19   18        0.0000001606
   19   15   19   19       -0.0000000043
   16   16   16   16        0.6053569409
   16   16   17   16       -0.0000335633
   16   16   18   16        0.0000003603
   16   16   19   16       -0.0000000011
   16   16   17   17        0.5559941307
   16   16   18   17       -0.0000004777
   16   16   19   17        0.0000000053
   16   16   18   18        0.5600363711
   16   16   19   18       -0.0000001366
   16   16   19   19        0.5478760263
   17   16   17   16        0.0252210997
   17   16   18   16        0.0000000312
   17   16   19   16       -0.0000000084
   17   16   17   17        0.0000309534
   17   16   18   17        0.0000000415
   17   16   19   17        0.0000000001
   17   16   18   18       -0.0000011576
   17   16   19   18       -0.0000000726
   17   16   19   19       -0.0000009933
   18   16   18   16        0.0238652353
   18   16   19   16       -0.0000000465
   18   16   17   17        0.0000005182
   18   16   18   17       -0.0000000437
   18   16   19   17       -0.0000000279
   18   16   18   18        0.0000008988
   18   16   19   18       -0.0000000027
   18   16   19   19        0.0000080135
   19   16   19   16        0.0235354433
   19   16   17   17       -0.0000000095
   19   16   18   17       -0.0000000223
   19   16   19   17       -0.0000003990
   19   16   18   18       -0.0000000039
   19   16   19   18        0.0000048287
   19   16   19   19        0.0000000002
   17   17   17   17        0.6056458989
   17   17   18   17       -0.0000003731
   17   17   19   17        0.0000000099
   17   17   18   18        0.5602004521
   17   17   19   18        0.0000001341
   17   17   19   19        0.5480018848
   18   17   18   17        0.0238897904
   18   17   19   17        0.0000000463
   18   17   18   18       -0.0000010996
   18   17   19   18       -0.0000000001
   18   17   19   19        0.0000019766
   19   17   19   17        0.0235415450
   19   17   18   18        0.0000000001
   19   17   19   18        0.0000014482
   19   17   19   19        0.0000000006
   18   18   18   18        0.6099619693
   18   18   19   18       -0.0000000042
   18   18   19   19        0.5226650938
   19   18   19   18        0.0038297492
   19   18   19   19        0.0000000020
   19   19   19   19        0.5665664223
 end_two_electron_integrals


 output epsi filename:./pspw_hf_H2.emovecs

 Total PSPW energy     :  -0.1102164433E+01


=== Spin Contamination ===

 <Sexact^2> =    0.0000000000000000     
 <S^2>      =    0.0000000000000000     



== Center of Charge ==

spin up     (    0.0000,    0.0000,    0.0000 )
spin down   (    0.0000,    0.0000,    0.0000 )
     total  (    0.0000,    0.0000,    0.0000 )
ionic       (    0.0000,    0.0000,    0.0000 )


== Molecular Dipole wrt Center of Mass ==

mu   =  (   -0.0000,   -0.0000,   -0.0000 ) au
|mu| =     0.0000 au,       0.0000 Debye

 output psi filename:./pspw_hf_H2.movecs

 Writing Crystallographic Information File:./H2.cif
   - cell not shifted (nwpw:cif_shift_cell .false.)


== Timing ==

cputime in seconds
  prologue    :   0.635456E+01
  main loop   :   0.283850E+03
  epilogue    :   0.168927E-01
  total       :   0.290221E+03
  cputime/step:   0.295677E+01       (      96 evalulations,      43 linesearches)


Time spent doing                        total          step       percent
  total time                 :   0.290238E+03  0.302331E+01       100.0 %
  i/o time                   :   0.425595E+00  0.443329E-02         0.1 %
  FFTs                       :   0.198358E+03  0.206623E+01        68.3 %
  dot products               :   0.144071E+02  0.150074E+00         5.0 %
  geodesic                   :   0.445469E-01  0.464031E-03         0.0 %
  ffm_dgemm                  :   0.645177E-02  0.672059E-04         0.0 %
  fmf_dgemm                  :   0.506015E-02  0.527099E-04         0.0 %
  mmm_dgemm                  :   0.157346E-02  0.163902E-04         0.0 %
  m_diagonalize              :   0.847145E-03  0.882443E-05         0.0 %
  local pseudopotentials     :   0.320060E+01  0.333396E-01         1.1 %
  non-local pseudopotentials :   0.136685E+02  0.142380E+00         4.7 %
  structure factors          :   0.368565E+00  0.383922E-02         0.1 %
  phase factors              :   0.790600E-05  0.823542E-07         0.0 %
  masking and packing        :   0.124699E+02  0.129895E+00         4.3 %
  queue fft                  :   0.565296E+01  0.588850E-01         1.9 %
  queue fft (serial)         :   0.183463E+01  0.191107E-01         0.6 %
  queue fft (message passing):   0.379488E+01  0.395300E-01         1.3 %
  HFX potential              :   0.321999E+01  0.335416E-01         1.1 %
  non-local psp FFM          :   0.133751E+02  0.139324E+00         4.6 %
  non-local psp FMF          :   0.630806E-01  0.657090E-03         0.0 %
  non-local psp FFM A        :   0.280463E-01  0.292149E-03         0.0 %
  non-local psp FFM B        :   0.925978E-01  0.964561E-03         0.0 %

== HFX Counters ==
  HFX Evalulations         =    96
  Lin ACE HFX Evalulations =     0


     >>>  JOB COMPLETED     AT Sun Apr  6 09:46:53 2025  <<<

 Task  times  cpu:      272.3s     wall:      290.3s


                                NWChem Input Module
                                -------------------


 Summary of allocated global arrays
-----------------------------------
  No active global arrays


MA_summarize_allocated_blocks: starting scan ...
MA_summarize_allocated_blocks: scan completed: 0 heap blocks, 0 stack blocks
MA usage statistics:

	allocation statistics:
					      heap	     stack
					      ----	     -----
	current number of blocks	         0	         0
	maximum number of blocks	       313	        36
	current total bytes		         0	         0
	maximum total bytes		  16802656	   5334792
	maximum total K-bytes		     16803	      5335
	maximum total M-bytes		        17	         6


                                     CITATION
                                     --------
                Please cite the following reference when publishing
                           results obtained with NWChem:

          E. Apra, E. J. Bylaska, W. A. de Jong, N. Govind, K. Kowalski,
       T. P. Straatsma, M. Valiev, H. J. J. van Dam, Y. Alexeev, J. Anchell,
       V. Anisimov, F. W. Aquino, R. Atta-Fynn, J. Autschbach, N. P. Bauman,
     J. C. Becca, D. E. Bernholdt, K. Bhaskaran-Nair, S. Bogatko, P. Borowski,
         J. Boschen, J. Brabec, A. Bruner, E. Cauet, Y. Chen, G. N. Chuev,
      C. J. Cramer, J. Daily, M. J. O. Deegan, T. H. Dunning Jr., M. Dupuis,
   K. G. Dyall, G. I. Fann, S. A. Fischer, A. Fonari, H. Fruchtl, L. Gagliardi,
      J. Garza, N. Gawande, S. Ghosh, K. Glaesemann, A. W. Gotz, J. Hammond,
       V. Helms, E. D. Hermes, K. Hirao, S. Hirata, M. Jacquelin, L. Jensen,
   B. G. Johnson, H. Jonsson, R. A. Kendall, M. Klemm, R. Kobayashi, V. Konkov,
      S. Krishnamoorthy, M. Krishnan, Z. Lin, R. D. Lins, R. J. Littlefield,
      A. J. Logsdail, K. Lopata, W. Ma, A. V. Marenich, J. Martin del Campo,
   D. Mejia-Rodriguez, J. E. Moore, J. M. Mullin, T. Nakajima, D. R. Nascimento,
    J. A. Nichols, P. J. Nichols, J. Nieplocha, A. Otero-de-la-Roza, B. Palmer,
    A. Panyala, T. Pirojsirikul, B. Peng, R. Peverati, J. Pittner, L. Pollack,
   R. M. Richard, P. Sadayappan, G. C. Schatz, W. A. Shelton, D. W. Silverstein,
   D. M. A. Smith, T. A. Soares, D. Song, M. Swart, H. L. Taylor, G. S. Thomas,
            V. Tipparaju, D. G. Truhlar, K. Tsemekhman, T. Van Voorhis,
      A. Vazquez-Mayagoitia, P. Verma, O. Villa, A. Vishnu, K. D. Vogiatzis,
        D. Wang, J. H. Weare, M. J. Williamson, T. L. Windus, K. Wolinski,
        A. T. Wong, Q. Wu, C. Yang, Q. Yu, M. Zacharias, Z. Zhang, Y. Zhao,
                                and R. J. Harrison
                        "NWChem: Past, present, and future
                         J. Chem. Phys. 152, 184102 (2020)
                               doi:10.1063/5.0004997

                                      AUTHORS
                                      -------
  E. Apra, E. J. Bylaska, N. Govind, K. Kowalski, M. Valiev, D. Mejia-Rodriguez,
       A. Kunitsa, N. P. Bauman, A. Panyala, W. A. de Jong, T. P. Straatsma,
   H. J. J. van Dam, D. Wang, T. L. Windus, J. Hammond, J. Autschbach, A. Woods,
    K. Bhaskaran-Nair, J. Brabec, K. Lopata, S. A. Fischer, S. Krishnamoorthy,
     M. Jacquelin, W. Ma, M. Klemm, O. Villa, Y. Chen, V. Anisimov, F. Aquino,
     S. Hirata, M. T. Hackler, E. Hermes, L. Jensen, J. E. Moore, J. C. Becca,
      V. Konjkov, T. Risthaus, M. Malagoli, A. Marenich, A. Otero-de-la-Roza,
        J. Mullin, P. Nichols, R. Peverati, J. Pittner, Y. Zhao, P.-D. Fan,
        A. Fonari, M. J. Williamson, R. J. Harrison, J. R. Rehr, M. Dupuis,
     D. Silverstein, D. M. A. Smith, J. Nieplocha, V. Tipparaju, M. Krishnan,
     B. E. Van Kuiken, A. Vazquez-Mayagoitia, M. Swart, Q. Wu, T. Van Voorhis,
     A. A. Auer, M. Nooijen, L. D. Crosby, E. Brown, G. Cisneros, G. I. Fann,
   H. Fruchtl, J. Garza, K. Hirao, R. A. Kendall, J. A. Nichols, K. Tsemekhman,
    K. Wolinski, J. Anchell, D. E. Bernholdt, P. Borowski, T. Clark, D. Clerc,
   H. Dachsel, M. J. O. Deegan, K. Dyall, D. Elwood, E. Glendening, M. Gutowski,
   A. C. Hess, J. Jaffe, B. G. Johnson, J. Ju, R. Kobayashi, R. Kutteh, Z. Lin,
   R. Littlefield, X. Long, B. Meng, T. Nakajima, S. Niu, L. Pollack, M. Rosing,
   K. Glaesemann, G. Sandrone, M. Stave, H. Taylor, G. Thomas, J. H. van Lenthe,
                               A. T. Wong, Z. Zhang.

 Total times  cpu:      272.3s     wall:      290.4s
