 argument  1 = H2-2.5.nw



============================== echo of input deck ==============================
title "swnc: e theory=pspw4 xc=hf formula=H2 charge=0 mult=1"
#machinejob:expert

echo

start pspw_hf_H2

memory heap 1200 mb stack 1200 mb global 10 mb

charge 0

geometry
H    0.00000    0.00000   -1.25000
H    0.00000    0.00000    1.25000
end

nwpw
  ### pseudopotential block begin ###
  ### pseudopotential block end   ###
  simulation_cell
     SC 15.0000
     boundary_conditions aperiodic
  end

  cutoff 50.0
  mult 1
  xc hf
  lmbfgs
  tolerances 1.0e-9 1.0e-9

  virtual 18
end
set nwpw:cif_filename H2

#set nwpw:CI_maxit_orb 15
#set nwpw:CI_maxit_linesearch 15
set pspw:HFX_screening_radius 14.0


set nwpw:2qintegrals .true.
set nwpw:3x3_virtual .true.

task pspw energy
================================================================================


                                         
                                         


             Northwest Computational Chemistry Package (NWChem) 7.2.3
             --------------------------------------------------------


                    Environmental Molecular Sciences Laboratory
                       Pacific Northwest National Laboratory
                                Richland, WA 99352

                              Copyright (c) 1994-2022
                       Pacific Northwest National Laboratory
                            Battelle Memorial Institute

             NWChem is an open-source computational chemistry package
                        distributed under the terms of the
                      Educational Community License (ECL) 2.0
             A copy of the license is included with this distribution
                              in the LICENSE.TXT file

                                  ACKNOWLEDGMENT
                                  --------------

            This software and its documentation were developed at the
            EMSL at Pacific Northwest National Laboratory, a multiprogram
            national laboratory, operated for the U.S. Department of Energy
            by Battelle under Contract Number DE-AC05-76RL01830. Support
            for this work was provided by the Department of Energy Office
            of Biological and Environmental Research, Office of Basic
            Energy Sciences, and the Office of Advanced Scientific Computing.


           Job information
           ---------------

    hostname        = mqs-al
    program         = nwchem
    date            = Sun Apr  6 10:04:40 2025

    compiled        = Thu_Oct_31_08:55:15_2024
    source          = /home/conda/feedstock_root/build_artifacts/nwchem_1730356057992/work
    nwchem branch   = 7.2.3
    nwchem revision = c400b04
    ga revision     = 5.8.0
    use scalapack   = T
    input           = H2-2.5.nw
    prefix          = pspw_hf_H2.
    data base       = ./pspw_hf_H2.db
    status          = startup
    nproc           =       24
    time left       =     -1s



           Memory information
           ------------------

    heap     =  157286400 doubles =   1200.0 Mbytes
    stack    =  157286397 doubles =   1200.0 Mbytes
    global   =    1310720 doubles =     10.0 Mbytes (distinct from heap & stack)
    total    =  315883517 doubles =   2410.0 Mbytes
    verify   = yes
    hardfail = no 


           Directory information
           ---------------------

  0 permanent = .
  0 scratch   = .




                                NWChem Input Module
                                -------------------


               swnc: e theory=pspw4 xc=hf formula=H2 charge=0 mult=1
               -----------------------------------------------------

 Scaling coordinates for geometry "geometry" by  1.889725989
 (inverse scale =  0.529177249)

  zeroes
  zeroes
  zeroes
  zeroes
  zeroes
  zeroes
  zeroes
  zeroes
  zeroes
  zeroes
  zeroes
  zeroes
  zeroes
  zeroes
  zeroes
  zeroes
  zeroes
  zeroes
  zeroes
  zeroes
  zeroes
  zeroes
  zeroes
  zeroes
  zeroes
  zeroes
  zeroes
  zeroes
  zeroes
  zeroes
  zeroes
  zeroes
  zeroes
  zeroes
  zeroes
  zeroes
  zeroes
  zeroes
  zeroes
  zeroes
  zeroes
  zeroes
  zeroes
  zeroes
  zeroes
  zeroes
  zeroes
  zeroes
 ORDER OF PRIMARY AXIS IS BEING SET TO 4
 D4H symmetry detected

          ------
          auto-z
          ------
     1 autoz failed with cvr_scaling = 1.2 changing to 1.3
     2 autoz failed with cvr_scaling = 1.3 changing to 1.4
     3 autoz failed with cvr_scaling = 1.4 changing to 1.5
     4 autoz failed with cvr_scaling = 1.5 changing to 1.6
     5 autoz failed with cvr_scaling = 1.6 changing to 1.7

 AUTOZ failed to generate good internal coordinates.
 Cartesian coordinates will be used in optimizations.



                             Geometry "geometry" -> ""
                             -------------------------

 Output coordinates in angstroms (scale by  1.889725989 to convert to a.u.)

  No.       Tag          Charge          X              Y              Z
 ---- ---------------- ---------- -------------- -------------- --------------
    1 H                    1.0000     0.00000000     0.00000000    -1.25000000
    2 H                    1.0000     0.00000000     0.00000000     1.25000000

      Atomic Mass 
      ----------- 

      H                  1.007825


 Effective nuclear repulsion energy (a.u.)       0.2116708996

            Nuclear Dipole moment (a.u.) 
            ----------------------------
        X                 Y               Z
 ---------------- ---------------- ----------------
     0.0000000000     0.0000000000     0.0000000000

      Symmetry information
      --------------------

 Group name             D4h       
 Group number             28
 Group order              16
 No. of unique centers     1

      Symmetry unique atoms

     1


            XYZ format geometry
            -------------------
     2
 geometry
 H                     0.00000000     0.00000000    -1.25000000
 H                     0.00000000     0.00000000     1.25000000

          ****************************************************
          *                                                  *
          *               NWPW PSPW Calculation              *
          *                                                  *
          * [ (Grassmann/Stiefel manifold implementation)  ] *
          *                                                  *
          *      [ NorthWest Chemistry implementation ]      *
          *                                                  *
          *            version #5.10   06/12/02              *
          *                                                  *
          *    This code was developed by Eric J. Bylaska,   *
          *    and was based upon algorithms and code        *
          *    developed by the group of Prof. John H. Weare *
          *                                                  *
          ****************************************************
     >>>  JOB STARTED       AT Sun Apr  6 10:04:40 2025  <<<
          ================ input data ========================

 input psi filename:./pspw_hf_H2.movecs

 number of processors used:        24
 processor grid           :  24 x   1
 parallel mapping         :2d-hilbert
 parallel mapping         :  balanced
 number of threads        :         1
 parallel io              :       off

 options:
      boundary conditions  = aperiodic   (version4)
      electron spin        = restricted
      exchange-correlation = Hartree-Fock
      - HFX relaxed
      - HFX restricted orbitals :    1
      - HFX free-space coulomb solver


 elements involved in the cluster:
      1: H   valence charge:  1.0000  lmax=  1
             comment    : Parameterized (Chem.Phys.Lett., vol 322, page 447) Hamman psp
             pseudpotential type            :   0
             highest angular component      :   1
             local potential used           :   1
             number of non-local projections:   1
             aperiodic cutoff radius        :  1.000
             cutoff =   0.800   0.800


 total charge:   0.000

 atomic composition:
     H   :    2

 number of electrons: spin up=     1 (   1 per task)  down=     1 (   1 per task) (Fourier space)
 number of orbitals : spin up=     1 (   1 per task)  down=     1 (   1 per task) (Fourier space)

 supercell:
      cell_name:  cell_default                                      
      lattice:    a1=<  15.000   0.000   0.000 >
                  a2=<   0.000  15.000   0.000 >
                  a3=<   0.000   0.000  15.000 >
      reciprocal: b1=<   0.419   0.000   0.000 >
                  b2=<   0.000   0.419   0.000 >
                  b3=<   0.000   0.000   0.419 >
      lattice:    a=      15.000 b=     15.000 c=      15.000
                  alpha=  90.000 beta=  90.000 gamma=  90.000
                  omega=      3375.0

      density cutoff=100.000  fft= 70x 70x 70(    80618 waves     3359 per task)
      wavefnc cutoff= 50.000  fft= 70x 70x 70(    28526 waves     1188 per task)

 technical parameters:
      time step=      5.80     fictitious mass=  400000.0
      tolerance=0.100E-08 (energy)   0.100E-08 (density)
      maximum iterations =      1000 (   10 inner    100 outer )





== Energy Calculation ==


          ============ Grassmann lmbfgs iteration ============
     >>>  ITERATION STARTED AT Sun Apr  6 10:04:47 2025  <<<
    iter.           Energy         DeltaE       DeltaRho 
    ------------------------------------------------------
      10   -0.8678258394E+00   -0.16149E-02    0.88138E-02
     -  10 steepest descent iterations performed
      20   -0.8716483911E+00   -0.78182E-04    0.35373E-04
      30   -0.8718162559E+00   -0.39089E-05    0.29466E-05
      40   -0.8718273354E+00   -0.15716E-06    0.17658E-06
      50   -0.8718278348E+00   -0.11264E-07    0.22536E-08
      60   -0.8718278715E+00   -0.91040E-09    0.15477E-09
  *** tolerance ok. iteration terminated
     >>>  ITERATION ENDED   AT Sun Apr  6 10:04:53 2025  <<<


==  Summary Of Results  ==

 number of electrons: spin up=    1.00000  down=    1.00000 (real space)

 total     energy    :  -0.8718278715E+00 (   -0.43591E+00/ion)
 total orbital energy:  -0.7133853798E+00 (   -0.71339E+00/electron)
 hartree   energy    :   0.7402267825E+00 (    0.74023E+00/electron)
 exc-corr  energy    :   0.0000000000E+00 (    0.00000E+00/electron)
 HF exchange energy  :  -0.3701133912E+00 (   -0.37011E+00/electron)
 ion-ion   energy    :   0.2116708996E+00 (    0.10584E+00/ion)

 kinetic (planewave) :   0.6112860691E+00 (    0.61129E+00/electron)
 V_local (planewave) :  -0.1917596319E+01 (   -0.19176E+01/electron)
 V_nl    (planewave) :  -0.1473019119E+00 (   -0.14730E+00/electron)
 V_Coul  (planewave) :   0.1480453565E+01 (    0.14805E+01/electron)
 V_xc.   (planewave) :   0.0000000000E+00 (    0.00000E+00/electron)
 K.S. HFX energy     :  -0.7402267825E+00 (   -0.74023E+00/electron)
 Virial Coefficient  :  -0.9560902759E+00

 orbital energies:
    -0.3566927E+00 (  -9.706eV)


== Virtual Orbital Calculation ==


 input epsi filename:./pspw_hf_H2.emovecs

 COVOs Mimimization
 ------------------
CI gradient algorithm =         3
maxit_sweeps          =         3
maxit_orb             =       120
maxit_linesearch      =        15
maxerror              = 0.100E-08

     orb,it,eci,eold,eci-eold=                    1                    1 -0.95120748168424507      -0.94264574674844759       -8.5617349357974826E-003 F
     orb,it,eci,eold,eci-eold=                    1                    2 -0.95220650392033623      -0.95120748168424507       -9.9902223609116270E-004 F
     orb,it,eci,eold,eci-eold=                    1                    3 -0.95589811295851712      -0.95220650392033623       -3.6916090381808875E-003 F
     orb,it,eci,eold,eci-eold=                    1                    4 -0.95753007812024704      -0.95589811295851712       -1.6319651617299202E-003 F
     orb,it,eci,eold,eci-eold=                    1                    5 -0.96274913912116977      -0.95753007812024704       -5.2190610009227312E-003 F
     orb,it,eci,eold,eci-eold=                    1                    6 -0.96475617805292868      -0.96274913912116977       -2.0070389317589088E-003 F
     orb,it,eci,eold,eci-eold=                    1                    7 -0.96518704354104567      -0.96475617805292868       -4.3086548811699377E-004 F
     orb,it,eci,eold,eci-eold=                    1                    8 -0.96617187119934500      -0.96518704354104567       -9.8482765829932539E-004 F
     orb,it,eci,eold,eci-eold=                    1                    9 -0.96636686485263112      -0.96617187119934500       -1.9499365328612406E-004 F
     orb,it,eci,eold,eci-eold=                    1                   10 -0.96700502623102302      -0.96636686485263112       -6.3816137839189935E-004 F
     orb,it,eci,eold,eci-eold=                    1                   11 -0.96860571241739435      -0.96700502623102302       -1.6006861863713251E-003 F
     orb,it,eci,eold,eci-eold=                    1                   12 -0.97091008379367194      -0.96860571241739435       -2.3043713762775919E-003 F
     orb,it,eci,eold,eci-eold=                    1                   13 -0.97152822433857677      -0.97091008379367194       -6.1814054490483272E-004 F
     orb,it,eci,eold,eci-eold=                    1                   14 -0.97174976317783535      -0.97152822433857677       -2.2153883925857265E-004 F
     orb,it,eci,eold,eci-eold=                    1                   15 -0.97298984522017673      -0.97174976317783535       -1.2400820423413839E-003 F
     orb,it,eci,eold,eci-eold=                    1                   16 -0.97483422109733209      -0.97298984522017673       -1.8443758771553576E-003 F
     orb,it,eci,eold,eci-eold=                    1                   17 -0.97584863198383731      -0.97483422109733209       -1.0144108865052237E-003 F
     orb,it,eci,eold,eci-eold=                    1                   18 -0.97796136909881537      -0.97584863198383731       -2.1127371149780583E-003 F
     orb,it,eci,eold,eci-eold=                    1                   19 -0.97846855576526870      -0.97796136909881537       -5.0718666645332977E-004 F
     orb,it,eci,eold,eci-eold=                    1                   20 -0.97869943657247327      -0.97846855576526870       -2.3088080720456983E-004 F
     orb,it,eci,eold,eci-eold=                    1                   21 -0.97980173781338786      -0.97869943657247327       -1.1023012409145938E-003 F
     orb,it,eci,eold,eci-eold=                    1                   22 -0.97991567273530522      -0.97980173781338786       -1.1393492191735799E-004 F
     orb,it,eci,eold,eci-eold=                    1                   23 -0.98007039082094649      -0.97991567273530522       -1.5471808564126999E-004 F
     orb,it,eci,eold,eci-eold=                    1                   24 -0.98138355911438135      -0.98007039082094649       -1.3131682934348632E-003 F
     orb,it,eci,eold,eci-eold=                    1                   25 -0.98203471936371867      -0.98138355911438135       -6.5116024933731254E-004 F
     orb,it,eci,eold,eci-eold=                    1                   26 -0.98215305869470160      -0.98203471936371867       -1.1833933098293059E-004 F
     orb,it,eci,eold,eci-eold=                    1                   27 -0.98286246877795480      -0.98215305869470160       -7.0941008325320354E-004 F
     orb,it,eci,eold,eci-eold=                    1                   28 -0.98312866631828433      -0.98286246877795480       -2.6619754032952692E-004 F
     orb,it,eci,eold,eci-eold=                    1                   29 -0.98334103152479635      -0.98312866631828433       -2.1236520651202184E-004 F
     orb,it,eci,eold,eci-eold=                    1                   30 -0.98418944314166057      -0.98334103152479635       -8.4841161686421973E-004 F
     orb,it,eci,eold,eci-eold=                    1                   31 -0.98426508158656179      -0.98418944314166057       -7.5638444901215962E-005 F
     orb,it,eci,eold,eci-eold=                    1                   32 -0.98430787749811821      -0.98426508158656179       -4.2795911556425814E-005 F
     orb,it,eci,eold,eci-eold=                    1                   33 -0.98504833964432381      -0.98430787749811821       -7.4046214620560047E-004 F
     orb,it,eci,eold,eci-eold=                    1                   34 -0.98520517506586824      -0.98504833964432381       -1.5683542154443231E-004 F
     orb,it,eci,eold,eci-eold=                    1                   35 -0.98522356773686326      -0.98520517506586824       -1.8392670995015514E-005 F
     orb,it,eci,eold,eci-eold=                    1                   36 -0.98567032024724588      -0.98522356773686326       -4.4675251038261976E-004 F
     orb,it,eci,eold,eci-eold=                    1                   37 -0.98576983509427096      -0.98567032024724588       -9.9514847025083952E-005 F
     orb,it,eci,eold,eci-eold=                    1                   38 -0.98580720083340068      -0.98576983509427096       -3.7365739129713305E-005 F
     orb,it,eci,eold,eci-eold=                    1                   39 -0.98633505536870136      -0.98580720083340068       -5.2785453530068693E-004 F
     orb,it,eci,eold,eci-eold=                    1                   40 -0.98645066468878762      -0.98633505536870136       -1.1560932008625180E-004 F
     orb,it,eci,eold,eci-eold=                    1                   41 -0.98649046513992589      -0.98645066468878762       -3.9800451138272130E-005 F
     orb,it,eci,eold,eci-eold=                    1                   42 -0.98689557709703768      -0.98649046513992589       -4.0511195711179226E-004 F
     orb,it,eci,eold,eci-eold=                    1                   43 -0.98710087038838168      -0.98689557709703768       -2.0529329134399976E-004 F
     orb,it,eci,eold,eci-eold=                    1                   44 -0.98727788865840949      -0.98710087038838168       -1.7701827002780668E-004 F
     orb,it,eci,eold,eci-eold=                    1                   45 -0.98737889861729222      -0.98727788865840949       -1.0100995888273623E-004 F
     orb,it,eci,eold,eci-eold=                    1                   46 -0.98757798683714249      -0.98737889861729222       -1.9908821985026304E-004 F
     orb,it,eci,eold,eci-eold=                    1                   47 -0.98769377428817207      -0.98757798683714249       -1.1578745102958088E-004 F
     orb,it,eci,eold,eci-eold=                    1                   48 -0.98782404802284085      -0.98769377428817207       -1.3027373466878434E-004 F
     orb,it,eci,eold,eci-eold=                    1                   49 -0.98788696086448580      -0.98782404802284085       -6.2912841644946482E-005 F
     orb,it,eci,eold,eci-eold=                    1                   50 -0.98798089003254530      -0.98788696086448580       -9.3929168059503354E-005 F
     orb,it,eci,eold,eci-eold=                    1                   51 -0.98803962089300446      -0.98798089003254530       -5.8730860459155210E-005 F
     orb,it,eci,eold,eci-eold=                    1                   52 -0.98813180052157756      -0.98803962089300446       -9.2179628573108019E-005 F
     orb,it,eci,eold,eci-eold=                    1                   53 -0.98818090229617472      -0.98813180052157756       -4.9101774597160031E-005 F
     orb,it,eci,eold,eci-eold=                    1                   54 -0.98823609468767637      -0.98818090229617472       -5.5192391501646121E-005 F
     orb,it,eci,eold,eci-eold=                    1                   55 -0.98826428586278225      -0.98823609468767637       -2.8191175105884980E-005 F
     orb,it,eci,eold,eci-eold=                    1                   56 -0.98831331467136563      -0.98826428586278225       -4.9028808583373440E-005 F
     orb,it,eci,eold,eci-eold=                    1                   57 -0.98831483021653355      -0.98831331467136563       -1.5155451679182974E-006 F
     orb,it,eci,eold,eci-eold=                    1                   58 -0.98831840319986963      -0.98831483021653355       -3.5729833360864660E-006 F
     orb,it,eci,eold,eci-eold=                    1                   59 -0.98835019263322621      -0.98831840319986963       -3.1789433356577135E-005 F
     orb,it,eci,eold,eci-eold=                    1                   60 -0.98835960093614861      -0.98835019263322621       -9.4083029223979153E-006 F
     orb,it,eci,eold,eci-eold=                    1                   61 -0.98836382156690106      -0.98835960093614861       -4.2206307524494946E-006 F
     orb,it,eci,eold,eci-eold=                    1                   62 -0.98839809720534455      -0.98836382156690106       -3.4275638443492795E-005 F
     orb,it,eci,eold,eci-eold=                    1                   63 -0.98841627194871917      -0.98839809720534455       -1.8174743374621549E-005 F
     orb,it,eci,eold,eci-eold=                    1                   64 -0.98841950278403468      -0.98841627194871917       -3.2308353155041658E-006 F
     orb,it,eci,eold,eci-eold=                    1                   65 -0.98843950290565463      -0.98841950278403468       -2.0000121619956346E-005 F
     orb,it,eci,eold,eci-eold=                    1                   66 -0.98844661779748266      -0.98843950290565463       -7.1148918280306006E-006 F
     orb,it,eci,eold,eci-eold=                    1                   67 -0.98844992570597578      -0.98844661779748266       -3.3079084931220137E-006 F
     orb,it,eci,eold,eci-eold=                    1                   68 -0.98846838930975200      -0.98844992570597578       -1.8463603776219806E-005 F
     orb,it,eci,eold,eci-eold=                    1                   69 -0.98847467060306138      -0.98846838930975200       -6.2812933093736589E-006 F
     orb,it,eci,eold,eci-eold=                    1                   70 -0.98847608081265526      -0.98847467060306138       -1.4102095938772763E-006 F
     orb,it,eci,eold,eci-eold=                    1                   71 -0.98848910176200622      -0.98847608081265526       -1.3020949350961430E-005 F
     orb,it,eci,eold,eci-eold=                    1                   72 -0.98849569576454344      -0.98848910176200622       -6.5940025372190902E-006 F
     orb,it,eci,eold,eci-eold=                    1                   73 -0.98849825717761863      -0.98849569576454344       -2.5614130751971942E-006 F
     orb,it,eci,eold,eci-eold=                    1                   74 -0.98850914265091150      -0.98849825717761863       -1.0885473292865377E-005 F
     orb,it,eci,eold,eci-eold=                    1                   75 -0.98851360591968718      -0.98850914265091150       -4.4632687756784861E-006 F
     orb,it,eci,eold,eci-eold=                    1                   76 -0.98851569842962572      -0.98851360591968718       -2.0925099385449286E-006 F
     orb,it,eci,eold,eci-eold=                    1                   77 -0.98852478755342610      -0.98851569842962572       -9.0891238003765196E-006 F
     orb,it,eci,eold,eci-eold=                    1                   78 -0.98852759147962677      -0.98852478755342610       -2.8039262006673837E-006 F
     orb,it,eci,eold,eci-eold=                    1                   79 -0.98852865178362581      -0.98852759147962677       -1.0603039990453311E-006 F
     orb,it,eci,eold,eci-eold=                    1                   80 -0.98853648273065275      -0.98852865178362581       -7.8309470269433135E-006 F
     orb,it,eci,eold,eci-eold=                    1                   81 -0.98854040673416221      -0.98853648273065275       -3.9240035094589842E-006 F
     orb,it,eci,eold,eci-eold=                    1                   82 -0.98854156532878401      -0.98854040673416221       -1.1585946217973486E-006 F
     orb,it,eci,eold,eci-eold=                    1                   83 -0.98854717148955396      -0.98854156532878401       -5.6061607699442462E-006 F
     orb,it,eci,eold,eci-eold=                    1                   84 -0.98854869647319410      -0.98854717148955396       -1.5249836401443062E-006 F
     orb,it,eci,eold,eci-eold=                    1                   85 -0.98854929522625079      -0.98854869647319410       -5.9875305669088164E-007 F
     orb,it,eci,eold,eci-eold=                    1                   86 -0.98855470036042692      -0.98854929522625079       -5.4051341761285343E-006 F
     orb,it,eci,eold,eci-eold=                    1                   87 -0.98855744619497066      -0.98855470036042692       -2.7458345437381126E-006 F
     orb,it,eci,eold,eci-eold=                    1                   88 -0.98855802114728974      -0.98855744619497066       -5.7495231908788469E-007 F
     orb,it,eci,eold,eci-eold=                    1                   89 -0.98856164580511297      -0.98855802114728974       -3.6246578232201898E-006 F
     orb,it,eci,eold,eci-eold=                    1                   90 -0.98856290736423413      -0.98856164580511297       -1.2615591211684318E-006 F
     orb,it,eci,eold,eci-eold=                    1                   91 -0.98856337006456951      -0.98856290736423413       -4.6270033537965105E-007 F
     orb,it,eci,eold,eci-eold=                    1                   92 -0.98856678665877562      -0.98856337006456951       -3.4165942061070709E-006 F
     orb,it,eci,eold,eci-eold=                    1                   93 -0.98856850424482801      -0.98856678665877562       -1.7175860523854780E-006 F
     orb,it,eci,eold,eci-eold=                    1                   94 -0.98856902017357640      -0.98856850424482801       -5.1592874839023750E-007 F
     orb,it,eci,eold,eci-eold=                    1                   95 -0.98857172503814339      -0.98856902017357640       -2.7048645669935922E-006 F
     orb,it,eci,eold,eci-eold=                    1                   96 -0.98857257025015843      -0.98857172503814339       -8.4521201504372812E-007 F
     orb,it,eci,eold,eci-eold=                    1                   97 -0.98857272204820723      -0.98857257025015843       -1.5179804879750236E-007 F
     orb,it,eci,eold,eci-eold=                    1                   98 -0.98857467927329823      -0.98857272204820723       -1.9572250909982714E-006 F
     orb,it,eci,eold,eci-eold=                    1                   99 -0.98857569145841184      -0.98857467927329823       -1.0121851136135618E-006 F
     orb,it,eci,eold,eci-eold=                    1                  100 -0.98857602787105159      -0.98857569145841184       -3.3641263974537594E-007 F
     orb,it,eci,eold,eci-eold=                    1                  101 -0.98857762542698491      -0.98857602787105159       -1.5975559333192280E-006 F
     orb,it,eci,eold,eci-eold=                    1                  102 -0.98857828935107994      -0.98857762542698491       -6.6392409503457372E-007 F
     orb,it,eci,eold,eci-eold=                    1                  103 -0.98857859095940526      -0.98857828935107994       -3.0160832531489490E-007 F
     orb,it,eci,eold,eci-eold=                    1                  104 -0.98858005524645720      -0.98857859095940526       -1.4642870519443463E-006 F
     orb,it,eci,eold,eci-eold=                    1                  105 -0.98858063430253251      -0.98858005524645720       -5.7905607531161252E-007 F
     orb,it,eci,eold,eci-eold=                    1                  106 -0.98858081173598600      -0.98858063430253251       -1.7743345348542050E-007 F
     orb,it,eci,eold,eci-eold=                    1                  107 -0.98858189524191475      -0.98858081173598600       -1.0835059287561677E-006 F
     orb,it,eci,eold,eci-eold=                    1                  108 -0.98858231316426171      -0.98858189524191475       -4.1792234695137154E-007 F
     orb,it,eci,eold,eci-eold=                    1                  109 -0.98858245922478560      -0.98858231316426171       -1.4606052389787294E-007 F
     orb,it,eci,eold,eci-eold=                    1                  110 -0.98858339043128862      -0.98858245922478560       -9.3120650301870000E-007 F
     orb,it,eci,eold,eci-eold=                    1                  111 -0.98858381403609208      -0.98858339043128862       -4.2360480345671192E-007 F
     orb,it,eci,eold,eci-eold=                    1                  112 -0.98858394117914394      -0.98858381403609208       -1.2714305186456443E-007 F
     orb,it,eci,eold,eci-eold=                    1                  113 -0.98858459851814906      -0.98858394117914394       -6.5733900511677490E-007 F
     orb,it,eci,eold,eci-eold=                    1                  114 -0.98858474380469341      -0.98858459851814906       -1.4528654435075339E-007 F
     orb,it,eci,eold,eci-eold=                    1                  115 -0.98858477991768501      -0.98858474380469341       -3.6112991597114785E-008 F
     orb,it,eci,eold,eci-eold=                    1                  116 -0.98858533022791173      -0.98858477991768501       -5.5031022672125118E-007 F
     orb,it,eci,eold,eci-eold=                    1                  117 -0.98858565489532912      -0.98858533022791173       -3.2466741739511917E-007 F
     orb,it,eci,eold,eci-eold=                    1                  118 -0.98858576734251202      -0.98858565489532912       -1.1244718289837863E-007 F
     orb,it,eci,eold,eci-eold=                    1                  119 -0.98858625013266843      -0.98858576734251202       -4.8279015640861900E-007 F
     orb,it,eci,eold,eci-eold=                    1                  120 -0.98858642646754769      -0.98858625013266843       -1.7633487925383662E-007 F
     orb,it,eci,eold,eci-eold=                    1                  121 -0.98858648607138355      -0.98858642646754769       -5.9603835866894883E-008 F
     orbital   1 current e= -0.767341E-01 error=0.115E+00 (eci= -0.988586486E+00 error=0.596E-07) iterations 121(   0 preconditioned, Ep,Sp= 20.0  200.0)
     orb,it,eci,eold,eci-eold=                    1                    1 -0.98858779224757098      -0.98858648607138355       -1.3061761874322286E-006 F
     orb,it,eci,eold,eci-eold=                    1                    2 -0.98858814855120469      -0.98858779224757098       -3.5630363370842133E-007 F
     orb,it,eci,eold,eci-eold=                    1                    3 -0.98858818020833961      -0.98858814855120469       -3.1657134913487539E-008 F
     orb,it,eci,eold,eci-eold=                    1                    4 -0.98858865339387059      -0.98858818020833961       -4.7318553098030236E-007 F
     orb,it,eci,eold,eci-eold=                    1                    5 -0.98858886214616759      -0.98858865339387059       -2.0875229700401121E-007 F
     orb,it,eci,eold,eci-eold=                    1                    6 -0.98858891473158683      -0.98858886214616759       -5.2585419241246711E-008 F
     orb,it,eci,eold,eci-eold=                    1                    7 -0.98858903926375263      -0.98858891473158683       -1.2453216580166071E-007 F
     orb,it,eci,eold,eci-eold=                    1                    8 -0.98858904351302090      -0.98858903926375263       -4.2492682705841389E-009 F
     orb,it,eci,eold,eci-eold=                    1                    9 -0.98858913249959979      -0.98858904351302090       -8.8986578883343270E-008 F
     orb,it,eci,eold,eci-eold=                    1                   10 -0.98858923241090479      -0.98858913249959979       -9.9911305007083229E-008 F
     orb,it,eci,eold,eci-eold=                    1                   11 -0.98858928376922595      -0.98858923241090479       -5.1358321151440123E-008 F
     orb,it,eci,eold,eci-eold=                    1                   12 -0.98858935510466983      -0.98858928376922595       -7.1335443885267580E-008 F
     orb,it,eci,eold,eci-eold=                    1                   13 -0.98858935804707393      -0.98858935510466983       -2.9424040981496091E-009 F
     orb,it,eci,eold,eci-eold=                    1                   14 -0.98858938101193850      -0.98858935804707393       -2.2964864565544474E-008 F
     orb,it,eci,eold,eci-eold=                    1                   15 -0.98858941767997133      -0.98858938101193850       -3.6668032832309905E-008 F
     orb,it,eci,eold,eci-eold=                    1                   16 -0.98858943963801138      -0.98858941767997133       -2.1958040052894034E-008 F
     orb,it,eci,eold,eci-eold=                    1                   17 -0.98858948040900962      -0.98858943963801138       -4.0770998244177292E-008 F
     orb,it,eci,eold,eci-eold=                    1                   18 -0.98858950241704513      -0.98858948040900962       -2.2008035505116652E-008 F
     orb,it,eci,eold,eci-eold=                    1                   19 -0.98858952133535505      -0.98858950241704513       -1.8918309918625198E-008 F
     orb,it,eci,eold,eci-eold=                    1                   20 -0.98858952965477354      -0.98858952133535505       -8.3194184874457733E-009 F
     orb,it,eci,eold,eci-eold=                    1                   21 -0.98858954156120071      -0.98858952965477354       -1.1906427177521550E-008 F
     orb,it,eci,eold,eci-eold=                    1                   22 -0.98858954869320592      -0.98858954156120071       -7.1320052086321084E-009 F
     orb,it,eci,eold,eci-eold=                    1                   23 -0.98858955537506576      -0.98858954869320592       -6.6818598432050180E-009 F
     orb,it,eci,eold,eci-eold=                    1                   24 -0.98858955840844409      -0.98858955537506576       -3.0333783263003511E-009 F
     orb,it,eci,eold,eci-eold=                    1                   25 -0.98858956572306766      -0.98858955840844409       -7.3146235735066512E-009 F
     orb,it,eci,eold,eci-eold=                    1                   26 -0.98858956595729663      -0.98858956572306766       -2.3422896955338501E-010 F
     orbital   1 current e= -0.767836E-01 error=0.495E-04 (eci= -0.988589566E+00 error=0.234E-09) iterations  26(   0 preconditioned, Ep,Sp= 20.0  200.0)
     orb,it,eci,eold,eci-eold=                    1                    1 -0.98858957330632036      -0.98858956595729663       -7.3490237229023592E-009 F
     orb,it,eci,eold,eci-eold=                    1                    2 -0.98858957330632036      -0.98858957330632036        0.0000000000000000      F
     orbital   1 current e= -0.767835E-01 error=0.149E-06 (eci= -0.988589573E+00 error=0.000E+00) iterations   2(   0 preconditioned, Ep,Sp= 20.0  200.0)
     orb,it,eci,eold,eci-eold=                    2                    1 -0.87467283415016084      -0.87435339148957625       -3.1944266058459014E-004 F
     orb,it,eci,eold,eci-eold=                    2                    2 -0.87473583283897982      -0.87467283415016084       -6.2998688818982629E-005 F
     orb,it,eci,eold,eci-eold=                    2                    3 -0.87477524004719576      -0.87473583283897982       -3.9407208215935796E-005 F
     orb,it,eci,eold,eci-eold=                    2                    4 -0.87479125842363725      -0.87477524004719576       -1.6018376441495619E-005 F
     orb,it,eci,eold,eci-eold=                    2                    5 -0.87483170925544462      -0.87479125842363725       -4.0450831807370413E-005 F
     orb,it,eci,eold,eci-eold=                    2                    6 -0.87485801562042909      -0.87483170925544462       -2.6306364984463038E-005 F
     orb,it,eci,eold,eci-eold=                    2                    7 -0.87490552289090362      -0.87485801562042909       -4.7507270474533847E-005 F
     orb,it,eci,eold,eci-eold=                    2                    8 -0.87491797636866930      -0.87490552289090362       -1.2453477765683729E-005 F
     orb,it,eci,eold,eci-eold=                    2                    9 -0.87493453300589885      -0.87491797636866930       -1.6556637229547810E-005 F
     orb,it,eci,eold,eci-eold=                    2                   10 -0.87497969087256000      -0.87493453300589885       -4.5157866661149626E-005 F
     orb,it,eci,eold,eci-eold=                    2                   11 -0.87500505431141407      -0.87497969087256000       -2.5363438854064668E-005 F
     orb,it,eci,eold,eci-eold=                    2                   12 -0.87502875361535692      -0.87500505431141407       -2.3699303942859018E-005 F
     orb,it,eci,eold,eci-eold=                    2                   13 -0.87506971411706524      -0.87502875361535692       -4.0960501708320329E-005 F
     orb,it,eci,eold,eci-eold=                    2                   14 -0.87507153152899086      -0.87506971411706524       -1.8174119256197940E-006 F
     orb,it,eci,eold,eci-eold=                    2                   15 -0.87508549867885610      -0.87507153152899086       -1.3967149865234951E-005 F
     orb,it,eci,eold,eci-eold=                    2                   16 -0.87513024226757774      -0.87508549867885610       -4.4743588721640748E-005 F
     orb,it,eci,eold,eci-eold=                    2                   17 -0.87514586145498563      -0.87513024226757774       -1.5619187407889257E-005 F
     orb,it,eci,eold,eci-eold=                    2                   18 -0.87516348690206569      -0.87514586145498563       -1.7625447080060752E-005 F
     orb,it,eci,eold,eci-eold=                    2                   19 -0.87521673479614237      -0.87516348690206569       -5.3247894076680069E-005 F
     orb,it,eci,eold,eci-eold=                    2                   20 -0.87523162638156782      -0.87521673479614237       -1.4891585425447218E-005 F
     orb,it,eci,eold,eci-eold=                    2                   21 -0.87525117890344417      -0.87523162638156782       -1.9552521876353701E-005 F
     orb,it,eci,eold,eci-eold=                    2                   22 -0.87531369443457951      -0.87525117890344417       -6.2515531135343139E-005 F
     orb,it,eci,eold,eci-eold=                    2                   23 -0.87532190788965847      -0.87531369443457951       -8.2134550789536576E-006 F
     orb,it,eci,eold,eci-eold=                    2                   24 -0.87533991966700264      -0.87532190788965847       -1.8011777344173474E-005 F
     orb,it,eci,eold,eci-eold=                    2                   25 -0.87540075561871600      -0.87533991966700264       -6.0835951713356096E-005 F
     orb,it,eci,eold,eci-eold=                    2                   26 -0.87540660564335104      -0.87540075561871600       -5.8500246350456919E-006 F
     orb,it,eci,eold,eci-eold=                    2                   27 -0.87542962783584632      -0.87540660564335104       -2.3022192495281146E-005 F
     orb,it,eci,eold,eci-eold=                    2                   28 -0.87547785434872938      -0.87542962783584632       -4.8226512883053907E-005 F
     orb,it,eci,eold,eci-eold=                    2                   29 -0.87548253528900843      -0.87547785434872938       -4.6809402790559673E-006 F
     orb,it,eci,eold,eci-eold=                    2                   30 -0.87548981782708124      -0.87548253528900843       -7.2825380728058775E-006 F
     orb,it,eci,eold,eci-eold=                    2                   31 -0.87553191900411531      -0.87548981782708124       -4.2101177034070680E-005 F
     orb,it,eci,eold,eci-eold=                    2                   32 -0.87553916542288446      -0.87553191900411531       -7.2464187691467785E-006 F
     orb,it,eci,eold,eci-eold=                    2                   33 -0.87553924593962162      -0.87553916542288446       -8.0516737166469454E-008 F
     orb,it,eci,eold,eci-eold=                    2                   34 -0.87557848118592441      -0.87553924593962162       -3.9235246302782301E-005 F
     orb,it,eci,eold,eci-eold=                    2                   35 -0.87558034725713818      -0.87557848118592441       -1.8660712137741342E-006 F
     orb,it,eci,eold,eci-eold=                    2                   36 -0.87558270658215021      -0.87558034725713818       -2.3593250120246267E-006 F
     orb,it,eci,eold,eci-eold=                    2                   37 -0.87560913267895679      -0.87558270658215021       -2.6426096806586585E-005 F
     orb,it,eci,eold,eci-eold=                    2                   38 -0.87562121450720798      -0.87560913267895679       -1.2081828251186977E-005 F
     orb,it,eci,eold,eci-eold=                    2                   39 -0.87562597050506064      -0.87562121450720798       -4.7559978526567903E-006 F
     orb,it,eci,eold,eci-eold=                    2                   40 -0.87562825839431957      -0.87562597050506064       -2.2878892589339728E-006 F
     orb,it,eci,eold,eci-eold=                    2                   41 -0.87563605455094951      -0.87562825839431957       -7.7961566299356022E-006 F
     orb,it,eci,eold,eci-eold=                    2                   42 -0.87563617185344200      -0.87563605455094951       -1.1730249249719549E-007 F
     orb,it,eci,eold,eci-eold=                    2                   43 -0.87563685311899364      -0.87563617185344200       -6.8126555163861013E-007 F
     orb,it,eci,eold,eci-eold=                    2                   44 -0.87564168131006381      -0.87563685311899364       -4.8281910701719610E-006 F
     orb,it,eci,eold,eci-eold=                    2                   45 -0.87564233279926873      -0.87564168131006381       -6.5148920491697737E-007 F
     orb,it,eci,eold,eci-eold=                    2                   46 -0.87564271497098267      -0.87564233279926873       -3.8217171394183680E-007 F
     orb,it,eci,eold,eci-eold=                    2                   47 -0.87564539428470978      -0.87564271497098267       -2.6793137271052814E-006 F
     orb,it,eci,eold,eci-eold=                    2                   48 -0.87564594279853025      -0.87564539428470978       -5.4851382047527153E-007 F
     orb,it,eci,eold,eci-eold=                    2                   49 -0.87564634515073625      -0.87564594279853025       -4.0235220599704746E-007 F
     orb,it,eci,eold,eci-eold=                    2                   50 -0.87564806228459169      -0.87564634515073625       -1.7171338554389237E-006 F
     orb,it,eci,eold,eci-eold=                    2                   51 -0.87564818747453010      -0.87564806228459169       -1.2518993841581505E-007 F
     orb,it,eci,eold,eci-eold=                    2                   52 -0.87564830687779094      -0.87564818747453010       -1.1940326083426100E-007 F
     orb,it,eci,eold,eci-eold=                    2                   53 -0.87564959901333839      -0.87564830687779094       -1.2921355474482255E-006 F
     orb,it,eci,eold,eci-eold=                    2                   54 -0.87564991274739112      -0.87564959901333839       -3.1373405273704691E-007 F
     orb,it,eci,eold,eci-eold=                    2                   55 -0.87564993118871182      -0.87564991274739112       -1.8441320692730301E-008 F
     orb,it,eci,eold,eci-eold=                    2                   56 -0.87565068361215892      -0.87564993118871182       -7.5242344710346742E-007 F
     orb,it,eci,eold,eci-eold=                    2                   57 -0.87565103461537641      -0.87565068361215892       -3.5100321749137464E-007 F
     orb,it,eci,eold,eci-eold=                    2                   58 -0.87565121398780910      -0.87565103461537641       -1.7937243268484337E-007 F
     orb,it,eci,eold,eci-eold=                    2                   59 -0.87565194504566080      -0.87565121398780910       -7.3105785169946813E-007 F
     orb,it,eci,eold,eci-eold=                    2                   60 -0.87565199964804641      -0.87565194504566080       -5.4602385612945170E-008 F
     orb,it,eci,eold,eci-eold=                    2                   61 -0.87565203215802245      -0.87565199964804641       -3.2509976044536870E-008 F
     orb,it,eci,eold,eci-eold=                    2                   62 -0.87565266307482581      -0.87565203215802245       -6.3091680335691791E-007 F
     orb,it,eci,eold,eci-eold=                    2                   63 -0.87565293798176480      -0.87565266307482581       -2.7490693899068219E-007 F
     orb,it,eci,eold,eci-eold=                    2                   64 -0.87565327991106634      -0.87565293798176480       -3.4192930153942314E-007 F
     orb,it,eci,eold,eci-eold=                    2                   65 -0.87565350304035927      -0.87565327991106634       -2.2312929293111239E-007 F
     orb,it,eci,eold,eci-eold=                    2                   66 -0.87565393371082867      -0.87565350304035927       -4.3067046939793130E-007 F
     orb,it,eci,eold,eci-eold=                    2                   67 -0.87565415909384381      -0.87565393371082867       -2.2538301513996828E-007 F
     orb,it,eci,eold,eci-eold=                    2                   68 -0.87565430506376418      -0.87565415909384381       -1.4596992037319012E-007 F
     orb,it,eci,eold,eci-eold=                    2                   69 -0.87565438441634280      -0.87565430506376418       -7.9352578619129588E-008 F
     orb,it,eci,eold,eci-eold=                    2                   70 -0.87565466586865304      -0.87565438441634280       -2.8145231023568584E-007 F
     orb,it,eci,eold,eci-eold=                    2                   71 -0.87565467619239634      -0.87565466586865304       -1.0323743304674338E-008 F
     orb,it,eci,eold,eci-eold=                    2                   72 -0.87565468141636593      -0.87565467619239634       -5.2239695902400740E-009 F
     orb,it,eci,eold,eci-eold=                    2                   73 -0.87565493055554000      -0.87565468141636593       -2.4913917406887975E-007 F
     orb,it,eci,eold,eci-eold=                    2                   74 -0.87565506124304471      -0.87565493055554000       -1.3068750470690560E-007 F
     orb,it,eci,eold,eci-eold=                    2                   75 -0.87565518887050076      -0.87565506124304471       -1.2762745604799619E-007 F
     orb,it,eci,eold,eci-eold=                    2                   76 -0.87565526187642040      -0.87565518887050076       -7.3005919642987749E-008 F
     orb,it,eci,eold,eci-eold=                    2                   77 -0.87565540851027079      -0.87565526187642040       -1.4663385039526133E-007 F
     orb,it,eci,eold,eci-eold=                    2                   78 -0.87565542409615338      -0.87565540851027079       -1.5585882584545629E-008 F
     orb,it,eci,eold,eci-eold=                    2                   79 -0.87565545640440723      -0.87565542409615338       -3.2308253850032997E-008 F
     orb,it,eci,eold,eci-eold=                    2                   80 -0.87565561766632261      -0.87565545640440723       -1.6126191537679802E-007 F
     orb,it,eci,eold,eci-eold=                    2                   81 -0.87565564129372331      -0.87565561766632261       -2.3627400702608270E-008 F
     orb,it,eci,eold,eci-eold=                    2                   82 -0.87565564971837218      -0.87565564129372331       -8.4246488674111220E-009 F
     orb,it,eci,eold,eci-eold=                    2                   83 -0.87565579560531637      -0.87565564971837218       -1.4588694419170878E-007 F
     orb,it,eci,eold,eci-eold=                    2                   84 -0.87565588309829889      -0.87565579560531637       -8.7492982525638752E-008 F
     orb,it,eci,eold,eci-eold=                    2                   85 -0.87565592432469930      -0.87565588309829889       -4.1226400404603680E-008 F
     orb,it,eci,eold,eci-eold=                    2                   86 -0.87565593450849954      -0.87565592432469930       -1.0183800247531849E-008 F
     orb,it,eci,eold,eci-eold=                    2                   87 -0.87565600279877454      -0.87565593450849954       -6.8290274990445710E-008 F
     orb,it,eci,eold,eci-eold=                    2                   88 -0.87565602779306806      -0.87565600279877454       -2.4994293523761257E-008 F
     orb,it,eci,eold,eci-eold=                    2                   89 -0.87565603287934968      -0.87565602779306806       -5.0862816181052040E-009 F
     orb,it,eci,eold,eci-eold=                    2                   90 -0.87565608490551794      -0.87565603287934968       -5.2026168262386818E-008 F
     orb,it,eci,eold,eci-eold=                    2                   91 -0.87565610357608603      -0.87565608490551794       -1.8670568091572193E-008 F
     orb,it,eci,eold,eci-eold=                    2                   92 -0.87565610738912081      -0.87565610357608603       -3.8130347768117190E-009 F
     orb,it,eci,eold,eci-eold=                    2                   93 -0.87565614776314604      -0.87565610738912081       -4.0374025234157784E-008 F
     orb,it,eci,eold,eci-eold=                    2                   94 -0.87565616440170868      -0.87565614776314604       -1.6638562638782162E-008 F
     orb,it,eci,eold,eci-eold=                    2                   95 -0.87565616930073142      -0.87565616440170868       -4.8990227430323330E-009 F
     orb,it,eci,eold,eci-eold=                    2                   96 -0.87565620086502438      -0.87565616930073142       -3.1564292957142470E-008 F
     orb,it,eci,eold,eci-eold=                    2                   97 -0.87565620927254573      -0.87565620086502438       -8.4075213457879272E-009 F
     orb,it,eci,eold,eci-eold=                    2                   98 -0.87565621060478771      -0.87565620927254573       -1.3322419833983190E-009 F
     orb,it,eci,eold,eci-eold=                    2                   99 -0.87565623013203431      -0.87565621060478771       -1.9527246597483838E-008 F
     orb,it,eci,eold,eci-eold=                    2                  100 -0.87565623495642586      -0.87565623013203431       -4.8243915529155856E-009 F
     orb,it,eci,eold,eci-eold=                    2                  101 -0.87565623645819901      -0.87565623495642586       -1.5017731502808829E-009 F
     orb,it,eci,eold,eci-eold=                    2                  102 -0.87565625208645548      -0.87565623645819901       -1.5628256466726498E-008 F
     orb,it,eci,eold,eci-eold=                    2                  103 -0.87565625424211835      -0.87565625208645548       -2.1556628704288983E-009 F
     orb,it,eci,eold,eci-eold=                    2                  104 -0.87565625424211835      -0.87565625424211835        0.0000000000000000      F
     orbital   2 current e=  0.492948E+00 error=0.108E+00 (eci= -0.875656254E+00 error=0.000E+00) iterations 104(   0 preconditioned, Ep,Sp= 20.0  200.0)
     orb,it,eci,eold,eci-eold=                    2                    1 -0.87565627953941449      -0.87565625345348830       -2.6085926196905973E-008 F
     orb,it,eci,eold,eci-eold=                    2                    2 -0.87565629240690823      -0.87565627953941449       -1.2867493737189761E-008 F
     orb,it,eci,eold,eci-eold=                    2                    3 -0.87565629441480697      -0.87565629240690823       -2.0078987361671352E-009 F
     orb,it,eci,eold,eci-eold=                    2                    4 -0.87565629490116859      -0.87565629441480697       -4.8636161764648023E-010 F
     orbital   2 current e=  0.492971E+00 error=0.228E-04 (eci= -0.875656295E+00 error=0.486E-09) iterations   4(   0 preconditioned, Ep,Sp= 20.0  200.0)
     orb,it,eci,eold,eci-eold=                    2                    1 -0.87565630486218138      -0.87565629490116859       -9.9610127923810410E-009 F
     orb,it,eci,eold,eci-eold=                    2                    2 -0.87565630661469740      -0.87565630486218138       -1.7525160211917523E-009 F
     orb,it,eci,eold,eci-eold=                    2                    3 -0.87565630694985919      -0.87565630661469740       -3.3516178721271217E-010 F
     orbital   2 current e=  0.492983E+00 error=0.118E-04 (eci= -0.875656307E+00 error=0.335E-09) iterations   3(   0 preconditioned, Ep,Sp= 20.0  200.0)
     orb,it,eci,eold,eci-eold=                    3                    1 -0.87411665760590462      -0.87401056265619470       -1.0609494970992284E-004 F
     orb,it,eci,eold,eci-eold=                    3                    2 -0.87411820896467518      -0.87411665760590462       -1.5513587705573428E-006 F
     orb,it,eci,eold,eci-eold=                    3                    3 -0.87414971789509699      -0.87411820896467518       -3.1508930421808579E-005 F
     orb,it,eci,eold,eci-eold=                    3                    4 -0.87415766079493962      -0.87414971789509699       -7.9428998426278596E-006 F
     orb,it,eci,eold,eci-eold=                    3                    5 -0.87416850019769055      -0.87415766079493962       -1.0839402750928429E-005 F
     orb,it,eci,eold,eci-eold=                    3                    6 -0.87419263719507145      -0.87416850019769055       -2.4136997380908021E-005 F
     orb,it,eci,eold,eci-eold=                    3                    7 -0.87419986077540979      -0.87419263719507145       -7.2235803383335906E-006 F
     orb,it,eci,eold,eci-eold=                    3                    8 -0.87421099533520030      -0.87419986077540979       -1.1134559790515475E-005 F
     orb,it,eci,eold,eci-eold=                    3                    9 -0.87423634551702400      -0.87421099533520030       -2.5350181823702300E-005 F
     orb,it,eci,eold,eci-eold=                    3                   10 -0.87424770237317673      -0.87423634551702400       -1.1356856152722195E-005 F
     orb,it,eci,eold,eci-eold=                    3                   11 -0.87425875851184509      -0.87424770237317673       -1.1056138668363857E-005 F
     orb,it,eci,eold,eci-eold=                    3                   12 -0.87427959294442759      -0.87425875851184509       -2.0834432582494955E-005 F
     orb,it,eci,eold,eci-eold=                    3                   13 -0.87428335248666456      -0.87427959294442759       -3.7595422369696152E-006 F
     orb,it,eci,eold,eci-eold=                    3                   14 -0.87428873244669181      -0.87428335248666456       -5.3799600272519399E-006 F
     orb,it,eci,eold,eci-eold=                    3                   15 -0.87430305120689211      -0.87428873244669181       -1.4318760200304759E-005 F
     orb,it,eci,eold,eci-eold=                    3                   16 -0.87430561902315007      -0.87430305120689211       -2.5678162579589880E-006 F
     orb,it,eci,eold,eci-eold=                    3                   17 -0.87430896166261796      -0.87430561902315007       -3.3426394678848226E-006 F
     orb,it,eci,eold,eci-eold=                    3                   18 -0.87431962519528894      -0.87430896166261796       -1.0663532670984743E-005 F
     orb,it,eci,eold,eci-eold=                    3                   19 -0.87432171293297078      -0.87431962519528894       -2.0877376818440041E-006 F
     orb,it,eci,eold,eci-eold=                    3                   20 -0.87432380313712688      -0.87432171293297078       -2.0902041560910689E-006 F
     orb,it,eci,eold,eci-eold=                    3                   21 -0.87433154343517705      -0.87432380313712688       -7.7402980501739549E-006 F
     orb,it,eci,eold,eci-eold=                    3                   22 -0.87433333955894188      -0.87433154343517705       -1.7961237648300710E-006 F
     orb,it,eci,eold,eci-eold=                    3                   23 -0.87433482437389676      -0.87433333955894188       -1.4848149548774003E-006 F
     orb,it,eci,eold,eci-eold=                    3                   24 -0.87434088062143067      -0.87433482437389676       -6.0562475339143163E-006 F
     orb,it,eci,eold,eci-eold=                    3                   25 -0.87434252529709411      -0.87434088062143067       -1.6446756634369564E-006 F
     orb,it,eci,eold,eci-eold=                    3                   26 -0.87434352230688028      -0.87434252529709411       -9.9700978617445202E-007 F
     orb,it,eci,eold,eci-eold=                    3                   27 -0.87434821345549896      -0.87434352230688028       -4.6911486186740348E-006 F
     orb,it,eci,eold,eci-eold=                    3                   28 -0.87434989604485325      -0.87434821345549896       -1.6825893542904424E-006 F
     orb,it,eci,eold,eci-eold=                    3                   29 -0.87435074163462134      -0.87434989604485325       -8.4558976809478992E-007 F
     orb,it,eci,eold,eci-eold=                    3                   30 -0.87435417711263508      -0.87435074163462134       -3.4354780137357821E-006 F
     orb,it,eci,eold,eci-eold=                    3                   31 -0.87435549640935406      -0.87435417711263508       -1.3192967189823435E-006 F
     orb,it,eci,eold,eci-eold=                    3                   32 -0.87435628958697498      -0.87435549640935406       -7.9317762091690724E-007 F
     orb,it,eci,eold,eci-eold=                    3                   33 -0.87435883426013916      -0.87435628958697498       -2.5446731641842746E-006 F
     orb,it,eci,eold,eci-eold=                    3                   34 -0.87435953403212896      -0.87435883426013916       -6.9977198979831456E-007 F
     orb,it,eci,eold,eci-eold=                    3                   35 -0.87436008503112839      -0.87435953403212896       -5.5099899942678832E-007 F
     orb,it,eci,eold,eci-eold=                    3                   36 -0.87436211141131404      -0.87436008503112839       -2.0263801856490460E-006 F
     orb,it,eci,eold,eci-eold=                    3                   37 -0.87436246511038163      -0.87436211141131404       -3.5369906759008529E-007 F
     orb,it,eci,eold,eci-eold=                    3                   38 -0.87436267424327330      -0.87436246511038163       -2.0913289167090454E-007 F
     orb,it,eci,eold,eci-eold=                    3                   39 -0.87436427064732269      -0.87436267424327330       -1.5964040493976484E-006 F
     orb,it,eci,eold,eci-eold=                    3                   40 -0.87436469586578314      -0.87436427064732269       -4.2521846044252243E-007 F
     orb,it,eci,eold,eci-eold=                    3                   41 -0.87436475835270810      -0.87436469586578314       -6.2486924967686264E-008 F
     orb,it,eci,eold,eci-eold=                    3                   42 -0.87436590487316768      -0.87436475835270810       -1.1465204595717537E-006 F
     orb,it,eci,eold,eci-eold=                    3                   43 -0.87436647403680279      -0.87436590487316768       -5.6916363511128054E-007 F
     orb,it,eci,eold,eci-eold=                    3                   44 -0.87436664931076802      -0.87436647403680279       -1.7527396523053795E-007 F
     orb,it,eci,eold,eci-eold=                    3                   45 -0.87436749856899088      -0.87436664931076802       -8.4925822285697450E-007 F
     orb,it,eci,eold,eci-eold=                    3                   46 -0.87436782349690734      -0.87436749856899088       -3.2492791646188124E-007 F
     orb,it,eci,eold,eci-eold=                    3                   47 -0.87436799580176605      -0.87436782349690734       -1.7230485871433388E-007 F
     orb,it,eci,eold,eci-eold=                    3                   48 -0.87436873591430664      -0.87436799580176605       -7.4011254058703457E-007 F
     orb,it,eci,eold,eci-eold=                    3                   49 -0.87436890176295790      -0.87436873591430664       -1.6584865125679471E-007 F
     orb,it,eci,eold,eci-eold=                    3                   50 -0.87436895352163990      -0.87436890176295790       -5.1758682007019274E-008 F
     orb,it,eci,eold,eci-eold=                    3                   51 -0.87436955817015960      -0.87436895352163990       -6.0464851969754818E-007 F
     orb,it,eci,eold,eci-eold=                    3                   52 -0.87436982490847970      -0.87436955817015960       -2.6673832009826981E-007 F
     orb,it,eci,eold,eci-eold=                    3                   53 -0.87436987582750769      -0.87436982490847970       -5.0919027994034138E-008 F
     orb,it,eci,eold,eci-eold=                    3                   54 -0.87437030170788277      -0.87436987582750769       -4.2588037507673704E-007 F
     orb,it,eci,eold,eci-eold=                    3                   55 -0.87437053002667331      -0.87437030170788277       -2.2831879054052706E-007 F
     orb,it,eci,eold,eci-eold=                    3                   56 -0.87437062561046042      -0.87437053002667331       -9.5583787107500484E-008 F
     orb,it,eci,eold,eci-eold=                    3                   57 -0.87437095454267322      -0.87437062561046042       -3.2893221280083651E-007 F
     orb,it,eci,eold,eci-eold=                    3                   58 -0.87437104861137560      -0.87437095454267322       -9.4068702383154346E-008 F
     orb,it,eci,eold,eci-eold=                    3                   59 -0.87437111365964015      -0.87437104861137560       -6.5048264552558521E-008 F
     orb,it,eci,eold,eci-eold=                    3                   60 -0.87437141167562049      -0.87437111365964015       -2.9801598033785126E-007 F
     orb,it,eci,eold,eci-eold=                    3                   61 -0.87437144618790530      -0.87437141167562049       -3.4512284807775018E-008 F
     orb,it,eci,eold,eci-eold=                    3                   62 -0.87437146737908455      -0.87437144618790530       -2.1191179255808379E-008 F
     orb,it,eci,eold,eci-eold=                    3                   63 -0.87437176828805474      -0.87437146737908455       -3.0090897018553164E-007 F
     orb,it,eci,eold,eci-eold=                    3                   64 -0.87437194358745318      -0.87437176828805474       -1.7529939844163067E-007 F
     orb,it,eci,eold,eci-eold=                    3                   65 -0.87437205661927819      -0.87437194358745318       -1.1303182501087861E-007 F
     orb,it,eci,eold,eci-eold=                    3                   66 -0.87437209949453543      -0.87437205661927819       -4.2875257233454533E-008 F
     orb,it,eci,eold,eci-eold=                    3                   67 -0.87437224048494511      -0.87437209949453543       -1.4099040968051924E-007 F
     orb,it,eci,eold,eci-eold=                    3                   68 -0.87437228572873416      -0.87437224048494511       -4.5243789048576843E-008 F
     orb,it,eci,eold,eci-eold=                    3                   69 -0.87437230144452871      -0.87437228572873416       -1.5715794554616025E-008 F
     orb,it,eci,eold,eci-eold=                    3                   70 -0.87437240625939827      -0.87437230144452871       -1.0481486956148700E-007 F
     orb,it,eci,eold,eci-eold=                    3                   71 -0.87437245701981015      -0.87437240625939827       -5.0760411873795874E-008 F
     orb,it,eci,eold,eci-eold=                    3                   72 -0.87437247549830532      -0.87437245701981015       -1.8478495178442245E-008 F
     orb,it,eci,eold,eci-eold=                    3                   73 -0.87437255310959960      -0.87437247549830532       -7.7611294280188758E-008 F
     orb,it,eci,eold,eci-eold=                    3                   74 -0.87437257602351259      -0.87437255310959960       -2.2913912989253049E-008 F
     orb,it,eci,eold,eci-eold=                    3                   75 -0.87437258815452190      -0.87437257602351259       -1.2131009308191665E-008 F
     orb,it,eci,eold,eci-eold=                    3                   76 -0.87437265986603774      -0.87437258815452190       -7.1711515836625495E-008 F
     orb,it,eci,eold,eci-eold=                    3                   77 -0.87437267748965763      -0.87437265986603774       -1.7623619896767195E-008 F
     orb,it,eci,eold,eci-eold=                    3                   78 -0.87437267748965763      -0.87437267748965763        0.0000000000000000      F
     orbital   3 current e=  0.430100E+00 error=0.655E-01 (eci= -0.874372677E+00 error=0.000E+00) iterations  78(   0 preconditioned, Ep,Sp= 20.0  200.0)
     orb,it,eci,eold,eci-eold=                    3                    1 -0.87437286202749231      -0.87437267693584220       -1.8509165011781903E-007 F
     orb,it,eci,eold,eci-eold=                    3                    2 -0.87437291151050045      -0.87437286202749231       -4.9483008135453588E-008 F
     orb,it,eci,eold,eci-eold=                    3                    3 -0.87437295276182914      -0.87437291151050045       -4.1251328686264799E-008 F
     orb,it,eci,eold,eci-eold=                    3                    4 -0.87437295276182914      -0.87437295276182914        0.0000000000000000      F
     orbital   3 current e=  0.430145E+00 error=0.450E-04 (eci= -0.874372953E+00 error=0.000E+00) iterations   4(   0 preconditioned, Ep,Sp= 20.0  200.0)
     orb,it,eci,eold,eci-eold=                    3                    1 -0.87437300198437073      -0.87437295194091558       -5.0043455157577910E-008 F
     orb,it,eci,eold,eci-eold=                    3                    2 -0.87437303594156091      -0.87437300198437073       -3.3957190170852414E-008 F
     orb,it,eci,eold,eci-eold=                    3                    3 -0.87437306248738544      -0.87437303594156091       -2.6545824538537488E-008 F
     orb,it,eci,eold,eci-eold=                    3                    4 -0.87437307627196048      -0.87437306248738544       -1.3784575036979163E-008 F
     orb,it,eci,eold,eci-eold=                    3                    5 -0.87437309144024122      -0.87437307627196048       -1.5168280742550166E-008 F
     orb,it,eci,eold,eci-eold=                    3                    6 -0.87437310038197247      -0.87437309144024122       -8.9417312443274000E-009 F
     orb,it,eci,eold,eci-eold=                    3                    7 -0.87437310833371129      -0.87437310038197247       -7.9517388229533026E-009 F
     orb,it,eci,eold,eci-eold=                    3                    8 -0.87437311257235772      -0.87437310833371129       -4.2386464338406427E-009 F
     orb,it,eci,eold,eci-eold=                    3                    9 -0.87437311355747782      -0.87437311257235772       -9.8512009660822741E-010 F
     orbital   3 current e=  0.430167E+00 error=0.219E-04 (eci= -0.874373114E+00 error=0.985E-09) iterations   9(   0 preconditioned, Ep,Sp= 20.0  200.0)
     orb,it,eci,eold,eci-eold=                    4                    1 -0.87411665847477704      -0.87401056265335708       -1.0609582141996032E-004 F
     orb,it,eci,eold,eci-eold=                    4                    2 -0.87411820475726709      -0.87411665847477704       -1.5462824900502881E-006 F
     orb,it,eci,eold,eci-eold=                    4                    3 -0.87414971767446448      -0.87411820475726709       -3.1512917197384915E-005 F
     orb,it,eci,eold,eci-eold=                    4                    4 -0.87415765840213755      -0.87414971767446448       -7.9407276730725229E-006 F
     orb,it,eci,eold,eci-eold=                    4                    5 -0.87416849372936212      -0.87415765840213755       -1.0835327224567592E-005 F
     orb,it,eci,eold,eci-eold=                    4                    6 -0.87419262530153863      -0.87416849372936212       -2.4131572176511185E-005 F
     orb,it,eci,eold,eci-eold=                    4                    7 -0.87419984793611050      -0.87419262530153863       -7.2226345718684470E-006 F
     orb,it,eci,eold,eci-eold=                    4                    8 -0.87421098586463486      -0.87419984793611050       -1.1137928524362906E-005 F
     orb,it,eci,eold,eci-eold=                    4                    9 -0.87423633153056535      -0.87421098586463486       -2.5345665930487371E-005 F
     orb,it,eci,eold,eci-eold=                    4                   10 -0.87424768662966446      -0.87423633153056535       -1.1355099099108479E-005 F
     orb,it,eci,eold,eci-eold=                    4                   11 -0.87425874575405316      -0.87424768662966446       -1.1059124388701491E-005 F
     orb,it,eci,eold,eci-eold=                    4                   12 -0.87427957602305706      -0.87425874575405316       -2.0830269003901947E-005 F
     orb,it,eci,eold,eci-eold=                    4                   13 -0.87428333540107261      -0.87427957602305706       -3.7593780155553702E-006 F
     orb,it,eci,eold,eci-eold=                    4                   14 -0.87428871971732525      -0.87428333540107261       -5.3843162526323596E-006 F
     orb,it,eci,eold,eci-eold=                    4                   15 -0.87430303646788632      -0.87428871971732525       -1.4316750561071956E-005 F
     orb,it,eci,eold,eci-eold=                    4                   16 -0.87430559973417088      -0.87430303646788632       -2.5632662845609389E-006 F
     orb,it,eci,eold,eci-eold=                    4                   17 -0.87430894382748447      -0.87430559973417088       -3.3440933135953088E-006 F
     orb,it,eci,eold,eci-eold=                    4                   18 -0.87431961015998516      -0.87430894382748447       -1.0666332500686160E-005 F
     orb,it,eci,eold,eci-eold=                    4                   19 -0.87432169387403302      -0.87431961015998516       -2.0837140478624505E-006 F
     orb,it,eci,eold,eci-eold=                    4                   20 -0.87432378189926374      -0.87432169387403302       -2.0880252307176050E-006 F
     orb,it,eci,eold,eci-eold=                    4                   21 -0.87433152703506911      -0.87432378189926374       -7.7451358053703956E-006 F
     orb,it,eci,eold,eci-eold=                    4                   22 -0.87433332259647267      -0.87433152703506911       -1.7955614035614076E-006 F
     orb,it,eci,eold,eci-eold=                    4                   23 -0.87433480360126037      -0.87433332259647267       -1.4810047876956389E-006 F
     orb,it,eci,eold,eci-eold=                    4                   24 -0.87434086480103468      -0.87433480360126037       -6.0611997743098556E-006 F
     orb,it,eci,eold,eci-eold=                    4                   25 -0.87434251165530719      -0.87434086480103468       -1.6468542725078805E-006 F
     orb,it,eci,eold,eci-eold=                    4                   26 -0.87434350527925786      -0.87434251165530719       -9.9362395067359444E-007 F
     orb,it,eci,eold,eci-eold=                    4                   27 -0.87434820030717364      -0.87434350527925786       -4.6950279157798036E-006 F
     orb,it,eci,eold,eci-eold=                    4                   28 -0.87434988655525736      -0.87434820030717364       -1.6862480837209759E-006 F
     orb,it,eci,eold,eci-eold=                    4                   29 -0.87435073079540127      -0.87434988655525736       -8.4424014390460655E-007 F
     orb,it,eci,eold,eci-eold=                    4                   30 -0.87435416802886146      -0.87435073079540127       -3.4372334601906473E-006 F
     orb,it,eci,eold,eci-eold=                    4                   31 -0.87435549018290581      -0.87435416802886146       -1.3221540443586477E-006 F
     orb,it,eci,eold,eci-eold=                    4                   32 -0.87435628417150502      -0.87435549018290581       -7.9398859920143394E-007 F
     orb,it,eci,eold,eci-eold=                    4                   33 -0.87435882901155271      -0.87435628417150502       -2.5448400476912880E-006 F
     orb,it,eci,eold,eci-eold=                    4                   34 -0.87435952932083705      -0.87435882901155271       -7.0030928434050566E-007 F
     orb,it,eci,eold,eci-eold=                    4                   35 -0.87436008178751790      -0.87435952932083705       -5.5246668084762973E-007 F
     orb,it,eci,eold,eci-eold=                    4                   36 -0.87436210848057394      -0.87436008178751790       -2.0266930560453034E-006 F
     orb,it,eci,eold,eci-eold=                    4                   37 -0.87436246128914252      -0.87436210848057394       -3.5280856858221910E-007 F
     orb,it,eci,eold,eci-eold=                    4                   38 -0.87436267106106402      -0.87436246128914252       -2.0977192149995716E-007 F
     orb,it,eci,eold,eci-eold=                    4                   39 -0.87436426828997649      -0.87436267106106402       -1.5972289124643879E-006 F
     orb,it,eci,eold,eci-eold=                    4                   40 -0.87436469301604847      -0.87436426828997649       -4.2472607197918677E-007 F
     orb,it,eci,eold,eci-eold=                    4                   41 -0.87436475534104341      -0.87436469301604847       -6.2324994942741796E-008 F
     orb,it,eci,eold,eci-eold=                    4                   42 -0.87436590215189480      -0.87436475534104341       -1.1468108513934538E-006 F
     orb,it,eci,eold,eci-eold=                    4                   43 -0.87436647199448170      -0.87436590215189480       -5.6984258689496414E-007 F
     orb,it,eci,eold,eci-eold=                    4                   44 -0.87436664752632587      -0.87436647199448170       -1.7553184417096190E-007 F
     orb,it,eci,eold,eci-eold=                    4                   45 -0.87436749670580716      -0.87436664752632587       -8.4917948128815368E-007 F
     orb,it,eci,eold,eci-eold=                    4                   46 -0.87436782184126127      -0.87436749670580716       -3.2513545411561040E-007 F
     orb,it,eci,eold,eci-eold=                    4                   47 -0.87436799455338254      -0.87436782184126127       -1.7271212127134561E-007 F
     orb,it,eci,eold,eci-eold=                    4                   48 -0.87436873465011744      -0.87436799455338254       -7.4009673489694450E-007 F
     orb,it,eci,eold,eci-eold=                    4                   49 -0.87436890048131810      -0.87436873465011744       -1.6583120066027135E-007 F
     orb,it,eci,eold,eci-eold=                    4                   50 -0.87436895254973801      -0.87436890048131810       -5.2068419909012675E-008 F
     orb,it,eci,eold,eci-eold=                    4                   51 -0.87436955722488496      -0.87436895254973801       -6.0467514695350388E-007 F
     orb,it,eci,eold,eci-eold=                    4                   52 -0.87436982372717675      -0.87436955722488496       -2.6650229179026041E-007 F
     orb,it,eci,eold,eci-eold=                    4                   53 -0.87436987474955308      -0.87436982372717675       -5.1022376323928142E-008 F
     orb,it,eci,eold,eci-eold=                    4                   54 -0.87437030068296462      -0.87436987474955308       -4.2593341154084641E-007 F
     orb,it,eci,eold,eci-eold=                    4                   55 -0.87437052891212874      -0.87437030068296462       -2.2822916412312821E-007 F
     orb,it,eci,eold,eci-eold=                    4                   56 -0.87437062449077396      -0.87437052891212874       -9.5578645220584235E-008 F
     orb,it,eci,eold,eci-eold=                    4                   57 -0.87437095348009453      -0.87437062449077396       -3.2898932056379948E-007 F
     orb,it,eci,eold,eci-eold=                    4                   58 -0.87437104762602047      -0.87437095348009453       -9.4145925944033593E-008 F
     orb,it,eci,eold,eci-eold=                    4                   59 -0.87437111269870182      -0.87437104762602047       -6.5072681354472195E-008 F
     orb,it,eci,eold,eci-eold=                    4                   60 -0.87437141078945579      -0.87437111269870182       -2.9809075396958207E-007 F
     orb,it,eci,eold,eci-eold=                    4                   61 -0.87437144553692270      -0.87437141078945579       -3.4747466903795043E-008 F
     orb,it,eci,eold,eci-eold=                    4                   62 -0.87437146682314104      -0.87437144553692270       -2.1286218343519181E-008 F
     orb,it,eci,eold,eci-eold=                    4                   63 -0.87437176785794801      -0.87437146682314104       -3.0103480697096785E-007 F
     orb,it,eci,eold,eci-eold=                    4                   64 -0.87437194305376886      -0.87437176785794801       -1.7519582085068208E-007 F
     orb,it,eci,eold,eci-eold=                    4                   65 -0.87437205616774905      -0.87437194305376886       -1.1311398018243324E-007 F
     orb,it,eci,eold,eci-eold=                    4                   66 -0.87437209915702996      -0.87437205616774905       -4.2989280912841821E-008 F
     orb,it,eci,eold,eci-eold=                    4                   67 -0.87437224022716653      -0.87437209915702996       -1.4107013657227441E-007 F
     orb,it,eci,eold,eci-eold=                    4                   68 -0.87437228543591594      -0.87437224022716653       -4.5208749410718951E-008 F
     orb,it,eci,eold,eci-eold=                    4                   69 -0.87437230116966613      -0.87437228543591594       -1.5733750191593288E-008 F
     orb,it,eci,eold,eci-eold=                    4                   70 -0.87437240602122213      -0.87437230116966613       -1.0485155599315732E-007 F
     orb,it,eci,eold,eci-eold=                    4                   71 -0.87437245685463727      -0.87437240602122213       -5.0833415143891614E-008 F
     orb,it,eci,eold,eci-eold=                    4                   72 -0.87437247541193419      -0.87437245685463727       -1.8557296921350996E-008 F
     orb,it,eci,eold,eci-eold=                    4                   73 -0.87437255309677553      -0.87437247541193419       -7.7684841337521959E-008 F
     orb,it,eci,eold,eci-eold=                    4                   74 -0.87437257591932327      -0.87437255309677553       -2.2822547740553034E-008 F
     orb,it,eci,eold,eci-eold=                    4                   75 -0.87437258802569917      -0.87437257591932327       -1.2106375901765887E-008 F
     orb,it,eci,eold,eci-eold=                    4                   76 -0.87437265987716561      -0.87437258802569917       -7.1851466443284551E-008 F
     orb,it,eci,eold,eci-eold=                    4                   77 -0.87437267762756332      -0.87437265987716561       -1.7750397707239074E-008 F
     orb,it,eci,eold,eci-eold=                    4                   78 -0.87437267762756332      -0.87437267762756332        0.0000000000000000      F
     orbital   4 current e=  0.430100E+00 error=0.655E-01 (eci= -0.874372678E+00 error=0.000E+00) iterations  78(   0 preconditioned, Ep,Sp= 20.0  200.0)
     orb,it,eci,eold,eci-eold=                    4                    1 -0.87437286242227952      -0.87437267707092015       -1.8535135937192138E-007 F
     orb,it,eci,eold,eci-eold=                    4                    2 -0.87437291188675081      -0.87437286242227952       -4.9464471296722934E-008 F
     orb,it,eci,eold,eci-eold=                    4                    3 -0.87437295309837404      -0.87437291188675081       -4.1211623225123617E-008 F
     orb,it,eci,eold,eci-eold=                    4                    4 -0.87437295309837404      -0.87437295309837404        0.0000000000000000      F
     orbital   4 current e=  0.430145E+00 error=0.451E-04 (eci= -0.874372953E+00 error=0.000E+00) iterations   4(   0 preconditioned, Ep,Sp= 20.0  200.0)
     orb,it,eci,eold,eci-eold=                    4                    1 -0.87437300238521898      -0.87437295233321810       -5.0052000877265357E-008 F
     orb,it,eci,eold,eci-eold=                    4                    2 -0.87437303640002872      -0.87437300238521898       -3.4014809746629737E-008 F
     orb,it,eci,eold,eci-eold=                    4                    3 -0.87437306311399676      -0.87437303640002872       -2.6713968037661573E-008 F
     orb,it,eci,eold,eci-eold=                    4                    4 -0.87437307703509137      -0.87437306311399676       -1.3921094610402918E-008 F
[...]
   16   13   16   16       -0.0000033858
   16   13   17   16       -0.0000046576
   16   13   18   16        0.0000066963
   16   13   19   16        0.0000000334
   16   13   17   17        0.0004067194
   16   13   18   17       -0.0013167189
   16   13   19   17       -0.0000000040
   16   13   18   18       -0.0003997518
   16   13   19   18        0.0000000002
   16   13   19   19       -0.0000063899
   17   13   17   13        0.0153439598
   17   13   18   13        0.0000082636
   17   13   19   13       -0.0000000115
   17   13   14   14       -0.0000426105
   17   13   15   14        0.0000006649
   17   13   16   14        0.0000002681
   17   13   17   14        0.0001401320
   17   13   18   14        0.0000010255
   17   13   19   14       -0.0000000067
   17   13   15   15       -0.0000358541
   17   13   16   15       -0.0000002175
   17   13   17   15        0.0003410794
   17   13   18   15        0.0000867114
   17   13   19   15        0.0000002849
   17   13   16   16       -0.0000393098
   17   13   17   16        0.0001169266
   17   13   18   16       -0.0002513771
   17   13   19   16        0.0000002993
   17   13   17   17       -0.0000456134
   17   13   18   17        0.0000020252
   17   13   19   17       -0.0000009303
   17   13   18   18       -0.0000436662
   17   13   19   18        0.0000005305
   17   13   19   19       -0.0000176849
   18   13   18   13        0.0153875291
   18   13   19   13       -0.0000000024
   18   13   14   14       -0.0000560432
   18   13   15   14       -0.0000011704
   18   13   16   14       -0.0000015465
   18   13   17   14        0.0000013988
   18   13   18   14        0.0001301250
   18   13   19   14        0.0000000048
   18   13   15   15        0.0000037644
   18   13   16   15       -0.0000017137
   18   13   17   15        0.0000903516
   18   13   18   15       -0.0003248172
   18   13   19   15        0.0000001589
   18   13   16   16        0.0000044699
   18   13   17   16       -0.0002421740
   18   13   18   16       -0.0000600103
   18   13   19   16        0.0000001683
   18   13   17   17       -0.0000088562
   18   13   18   17       -0.0000004311
   18   13   19   17        0.0000005356
   18   13   18   18       -0.0000059848
   18   13   19   18        0.0000009216
   18   13   19   19       -0.0000373769
   19   13   19   13        0.0030565206
   19   13   14   14        0.0000000044
   19   13   15   14        0.0000000441
   19   13   16   14        0.0000000462
   19   13   17   14       -0.0000000257
   19   13   18   14       -0.0000000108
   19   13   19   14        0.0006362887
   19   13   15   15        0.0000000092
   19   13   16   15        0.0000000007
   19   13   17   15       -0.0000000014
   19   13   18   15       -0.0000000002
   19   13   19   15        0.0000017077
   19   13   16   16        0.0000000071
   19   13   17   16        0.0000000000
   19   13   18   16        0.0000000004
   19   13   19   16        0.0000012398
   19   13   17   17        0.0000016296
   19   13   18   17       -0.0000009246
   19   13   19   17        0.0000099542
   19   13   18   18       -0.0000016182
   19   13   19   18       -0.0000059831
   19   13   19   19        0.0000000074
   14   14   14   14        0.3940471692
   14   14   15   14        0.0000859904
   14   14   16   14       -0.0000246431
   14   14   17   14       -0.0001281275
   14   14   18   14       -0.0000427183
   14   14   19   14        0.0000000577
   14   14   15   15        0.3214063886
   14   14   16   15       -0.0000129652
   14   14   17   15        0.0000490298
   14   14   18   15       -0.0000060767
   14   14   19   15       -0.0000341891
   14   14   16   16        0.3215061693
   14   14   17   16       -0.0000011180
   14   14   18   16       -0.0000467030
   14   14   19   16       -0.0000359947
   14   14   17   17        0.3394894803
   14   14   18   17       -0.0000216226
   14   14   19   17        0.0000000312
   14   14   18   18        0.3396055967
   14   14   19   18        0.0000000303
   14   14   19   19        0.3357344639
   15   14   15   14        0.0060102374
   15   14   16   14        0.0000002871
   15   14   17   14        0.0000224417
   15   14   18   14       -0.0000015762
   15   14   19   14       -0.0000007575
   15   14   15   15       -0.0000103071
   15   14   16   15       -0.0000002169
   15   14   17   15        0.0000157225
   15   14   18   15        0.0000051441
   15   14   19   15       -0.0000001836
   15   14   16   16       -0.0000115279
   15   14   17   16        0.0000067030
   15   14   18   16       -0.0000191786
   15   14   19   16       -0.0000001829
   15   14   17   17       -0.0001374580
   15   14   18   17       -0.0000526069
   15   14   19   17        0.0000000210
   15   14   18   18        0.0002151601
   15   14   19   18        0.0000000091
   15   14   19   19       -0.0000060738
   16   14   16   14        0.0059878814
   16   14   17   14       -0.0000006633
   16   14   18   14       -0.0000226106
   16   14   19   14       -0.0000007764
   16   14   15   15        0.0000031809
   16   14   16   15        0.0000007552
   16   14   17   15       -0.0000058221
   16   14   18   15        0.0000191422
   16   14   19   15        0.0000000384
   16   14   16   16        0.0000028413
   16   14   17   16        0.0000162378
   16   14   18   16        0.0000041474
   16   14   19   16        0.0000000494
   16   14   17   17       -0.0000517487
   16   14   18   17        0.0001504666
   16   14   19   17        0.0000000201
   16   14   18   18        0.0000422308
   16   14   19   18        0.0000000167
   16   14   19   19       -0.0000071965
   17   14   17   14        0.0108991664
   17   14   18   14       -0.0000197359
   17   14   19   14        0.0000000169
   17   14   15   15       -0.0000199757
   17   14   16   15        0.0000011346
   17   14   17   15        0.0046919795
   17   14   18   15        0.0014486498
   17   14   19   15        0.0000003819
   17   14   16   16       -0.0000184301
   17   14   17   16        0.0014359218
   17   14   18   16       -0.0047616078
   17   14   19   16        0.0000004018
   17   14   17   17       -0.0000909857
   17   14   18   17        0.0000005739
   17   14   19   17       -0.0000006423
   17   14   18   18       -0.0000884489
   17   14   19   18        0.0000003635
   17   14   19   19       -0.0000335809
   18   14   18   14        0.0109317152
   18   14   19   14       -0.0000000175
   18   14   15   15       -0.0000092814
   18   14   16   15        0.0000007733
   18   14   17   15        0.0014375528
   18   14   18   15       -0.0046786195
   18   14   19   15        0.0000001947
   18   14   16   16       -0.0000116394
   18   14   17   16       -0.0047768534
   18   14   18   16       -0.0014371652
   18   14   19   16        0.0000002051
   18   14   17   17       -0.0000301176
   18   14   18   17       -0.0000016052
   18   14   19   17        0.0000003625
   18   14   18   18       -0.0000338777
   18   14   19   18        0.0000006349
   18   14   19   19       -0.0000008642
   19   14   19   14        0.0026210378
   19   14   15   15       -0.0000000316
   19   14   16   15       -0.0000000043
   19   14   17   15        0.0000000149
   19   14   18   15        0.0000000121
   19   14   19   15       -0.0000693764
   19   14   16   16       -0.0000000166
   19   14   17   16        0.0000000219
   19   14   18   16        0.0000000054
   19   14   19   16       -0.0000657244
   19   14   17   17        0.0000039943
   19   14   18   17       -0.0000022764
   19   14   19   17        0.0000324517
   19   14   18   18       -0.0000040218
   19   14   19   18        0.0000197442
   19   14   19   19        0.0000000219
   15   15   15   15        0.3325511935
   15   15   16   15       -0.0000121921
   15   15   17   15        0.0000017774
   15   15   18   15       -0.0000030699
   15   15   19   15        0.0000201119
   15   15   16   16        0.3214175327
   15   15   17   16       -0.0000031260
   15   15   18   16       -0.0000000258
   15   15   19   16        0.0000192880
   15   15   17   17        0.3139822805
   15   15   18   17        0.0000055800
   15   15   19   17       -0.0000000168
   15   15   18   18        0.3141685129
   15   15   19   18       -0.0000000166
   15   15   19   19        0.3310814948
   16   15   16   15        0.0056421129
   16   15   17   15        0.0000009236
   16   15   18   15       -0.0000002253
   16   15   19   15        0.0000009650
   16   15   16   16       -0.0000122479
   16   15   17   16       -0.0000003016
   16   15   18   16       -0.0000012669
   16   15   19   16        0.0000008761
   16   15   17   17       -0.0000194201
   16   15   18   17        0.0000024297
   16   15   19   17       -0.0000000001
   16   15   18   18       -0.0000192058
   16   15   19   18       -0.0000000002
   16   15   19   19        0.0054151584
   17   15   17   15        0.0093952376
   17   15   18   15        0.0000087442
   17   15   19   15        0.0000000020
   17   15   16   16        0.0000023187
   17   15   17   16       -0.0000230112
   17   15   18   16       -0.0041839364
   17   15   19   16        0.0000000029
   17   15   17   17       -0.0000304721
   17   15   18   17       -0.0000110033
   17   15   19   17        0.0000012553
   17   15   18   18       -0.0000096963
   17   15   19   18       -0.0000005207
   17   15   19   19       -0.0000002450
   18   15   18   15        0.0093727460
   18   15   19   15       -0.0000000071
   18   15   16   16       -0.0000006262
   18   15   17   16        0.0041654912
   18   15   18   16       -0.0000237521
   18   15   19   16       -0.0000000060
   18   15   17   17       -0.0000147680
   18   15   18   17        0.0000192431
   18   15   19   17        0.0000005373
   18   15   18   18        0.0000108043
   18   15   19   18        0.0000012560
   18   15   19   19       -0.0000113802
   19   15   19   15        0.0550012010
   19   15   16   16        0.0000175701
   19   15   17   16       -0.0000000098
   19   15   18   16        0.0000000014
   19   15   19   16        0.0524941610
   19   15   17   17        0.0000126332
   19   15   18   17        0.0000000566
   19   15   19   17       -0.0000421655
   19   15   18   18        0.0000124114
   19   15   19   18       -0.0000371317
   19   15   19   19       -0.0000130075
   16   16   16   16        0.3326587025
   16   16   17   16       -0.0000013068
   16   16   18   16       -0.0000005380
   16   16   19   16        0.0000203734
   16   16   17   17        0.3140871006
   16   16   18   17        0.0000058485
   16   16   19   17       -0.0000000174
   16   16   18   18        0.3142633788
   16   16   19   18       -0.0000000152
   16   16   19   19        0.3317752061
   17   16   17   16        0.0094613545
   17   16   18   16        0.0000086088
   17   16   19   16       -0.0000000114
   17   16   17   17       -0.0000095757
   17   16   18   17        0.0000112724
   17   16   19   17        0.0000013350
   17   16   18   18        0.0000138096
   17   16   19   18        0.0000004748
   17   16   19   19       -0.0000116762
   18   16   18   16        0.0094743032
   18   16   19   16        0.0000000007
   18   16   17   17        0.0000415378
   18   16   18   17        0.0000124012
   18   16   19   17       -0.0000004663
   18   16   18   18        0.0000034590
   18   16   19   18        0.0000013236
   18   16   19   19       -0.0000045881
   19   16   19   16        0.0604347910
   19   16   17   17        0.0000133008
   19   16   18   17        0.0000000666
   19   16   19   17       -0.0000409993
   19   16   18   18        0.0000131045
   19   16   19   18       -0.0000412941
   19   16   19   19       -0.0000137320
   17   17   17   17        0.3388500227
   17   17   18   17        0.0000072826
   17   17   19   17       -0.0000000254
   17   17   18   18        0.3181234702
   17   17   19   18       -0.0000000376
   17   17   19   19        0.3248594084
   18   17   18   17        0.0106136350
   18   17   19   17        0.0000000154
   18   17   18   18       -0.0000089673
   18   17   19   18       -0.0000000043
   18   17   19   19       -0.0000181940
   19   17   19   17        0.0097334482
   19   17   18   18        0.0000000077
   19   17   19   18       -0.0000047781
   19   17   19   19        0.0000000079
   18   18   18   18        0.3391833844
   18   18   19   18       -0.0000000089
   18   18   19   19        0.3249203975
   19   18   19   18        0.0097147108
   19   18   19   19        0.0000000088
   19   19   19   19        0.3596016588
 end_two_electron_integrals


 output epsi filename:./pspw_hf_H2.emovecs

 Total PSPW energy     :  -0.8718278715E+00


=== Spin Contamination ===

 <Sexact^2> =    0.0000000000000000     
 <S^2>      =    0.0000000000000000     



== Center of Charge ==

spin up     (    0.0000,    0.0000,    0.0001 )
spin down   (    0.0000,    0.0000,    0.0001 )
     total  (    0.0000,    0.0000,    0.0001 )
ionic       (    0.0000,    0.0000,    0.0000 )


== Molecular Dipole wrt Center of Mass ==

mu   =  (   -0.0000,   -0.0000,   -0.0002 ) au
|mu| =     0.0002 au,       0.0006 Debye

 output psi filename:./pspw_hf_H2.movecs

 Writing Crystallographic Information File:./H2.cif
   - cell not shifted (nwpw:cif_shift_cell .false.)


== Timing ==

cputime in seconds
  prologue    :   0.715157E+01
  main loop   :   0.499476E+03
  epilogue    :   0.159367E-01
  total       :   0.506643E+03
  cputime/step:   0.354238E+01       (     141 evalulations,      59 linesearches)


Time spent doing                        total          step       percent
  total time                 :   0.506660E+03  0.359334E+01       100.0 %
  i/o time                   :   0.494455E+00  0.350677E-02         0.1 %
  FFTs                       :   0.353983E+03  0.251052E+01        69.9 %
  dot products               :   0.113679E+02  0.806234E-01         2.2 %
  geodesic                   :   0.634227E-01  0.449806E-03         0.0 %
  ffm_dgemm                  :   0.130646E-01  0.926568E-04         0.0 %
  fmf_dgemm                  :   0.667919E-02  0.473702E-04         0.0 %
  mmm_dgemm                  :   0.244207E-02  0.173197E-04         0.0 %
  m_diagonalize              :   0.123658E-02  0.877009E-05         0.0 %
  local pseudopotentials     :   0.799480E+01  0.567007E-01         1.6 %
  non-local pseudopotentials :   0.105884E+02  0.750948E-01         2.1 %
  structure factors          :   0.774888E+00  0.549566E-02         0.2 %
  phase factors              :   0.587600E-05  0.416738E-07         0.0 %
  masking and packing        :   0.140884E+02  0.999180E-01         2.8 %
  queue fft                  :   0.109749E+02  0.778365E-01         2.2 %
  queue fft (serial)         :   0.436038E+01  0.309247E-01         0.9 %
  queue fft (message passing):   0.656373E+01  0.465513E-01         1.3 %
  HFX potential              :   0.416280E+01  0.295234E-01         0.8 %
  non-local psp FFM          :   0.992867E+01  0.704161E-01         2.0 %
  non-local psp FMF          :   0.141884E+00  0.100627E-02         0.0 %
  non-local psp FFM A        :   0.614591E-01  0.435880E-03         0.0 %
  non-local psp FFM B        :   0.189953E+00  0.134718E-02         0.0 %

== HFX Counters ==
  HFX Evalulations         =   141
  Lin ACE HFX Evalulations =     0


     >>>  JOB COMPLETED     AT Sun Apr  6 10:13:07 2025  <<<

 Task  times  cpu:      471.9s     wall:      506.7s


                                NWChem Input Module
                                -------------------


 Summary of allocated global arrays
-----------------------------------
  No active global arrays


MA_summarize_allocated_blocks: starting scan ...
MA_summarize_allocated_blocks: scan completed: 0 heap blocks, 0 stack blocks
MA usage statistics:

	allocation statistics:
					      heap	     stack
					      ----	     -----
	current number of blocks	         0	         0
	maximum number of blocks	       313	        36
	current total bytes		         0	         0
	maximum total bytes		  16802656	   5334792
	maximum total K-bytes		     16803	      5335
	maximum total M-bytes		        17	         6


                                     CITATION
                                     --------
                Please cite the following reference when publishing
                           results obtained with NWChem:

          E. Apra, E. J. Bylaska, W. A. de Jong, N. Govind, K. Kowalski,
       T. P. Straatsma, M. Valiev, H. J. J. van Dam, Y. Alexeev, J. Anchell,
       V. Anisimov, F. W. Aquino, R. Atta-Fynn, J. Autschbach, N. P. Bauman,
     J. C. Becca, D. E. Bernholdt, K. Bhaskaran-Nair, S. Bogatko, P. Borowski,
         J. Boschen, J. Brabec, A. Bruner, E. Cauet, Y. Chen, G. N. Chuev,
      C. J. Cramer, J. Daily, M. J. O. Deegan, T. H. Dunning Jr., M. Dupuis,
   K. G. Dyall, G. I. Fann, S. A. Fischer, A. Fonari, H. Fruchtl, L. Gagliardi,
      J. Garza, N. Gawande, S. Ghosh, K. Glaesemann, A. W. Gotz, J. Hammond,
       V. Helms, E. D. Hermes, K. Hirao, S. Hirata, M. Jacquelin, L. Jensen,
   B. G. Johnson, H. Jonsson, R. A. Kendall, M. Klemm, R. Kobayashi, V. Konkov,
      S. Krishnamoorthy, M. Krishnan, Z. Lin, R. D. Lins, R. J. Littlefield,
      A. J. Logsdail, K. Lopata, W. Ma, A. V. Marenich, J. Martin del Campo,
   D. Mejia-Rodriguez, J. E. Moore, J. M. Mullin, T. Nakajima, D. R. Nascimento,
    J. A. Nichols, P. J. Nichols, J. Nieplocha, A. Otero-de-la-Roza, B. Palmer,
    A. Panyala, T. Pirojsirikul, B. Peng, R. Peverati, J. Pittner, L. Pollack,
   R. M. Richard, P. Sadayappan, G. C. Schatz, W. A. Shelton, D. W. Silverstein,
   D. M. A. Smith, T. A. Soares, D. Song, M. Swart, H. L. Taylor, G. S. Thomas,
            V. Tipparaju, D. G. Truhlar, K. Tsemekhman, T. Van Voorhis,
      A. Vazquez-Mayagoitia, P. Verma, O. Villa, A. Vishnu, K. D. Vogiatzis,
        D. Wang, J. H. Weare, M. J. Williamson, T. L. Windus, K. Wolinski,
        A. T. Wong, Q. Wu, C. Yang, Q. Yu, M. Zacharias, Z. Zhang, Y. Zhao,
                                and R. J. Harrison
                        "NWChem: Past, present, and future
                         J. Chem. Phys. 152, 184102 (2020)
                               doi:10.1063/5.0004997

                                      AUTHORS
                                      -------
  E. Apra, E. J. Bylaska, N. Govind, K. Kowalski, M. Valiev, D. Mejia-Rodriguez,
       A. Kunitsa, N. P. Bauman, A. Panyala, W. A. de Jong, T. P. Straatsma,
   H. J. J. van Dam, D. Wang, T. L. Windus, J. Hammond, J. Autschbach, A. Woods,
    K. Bhaskaran-Nair, J. Brabec, K. Lopata, S. A. Fischer, S. Krishnamoorthy,
     M. Jacquelin, W. Ma, M. Klemm, O. Villa, Y. Chen, V. Anisimov, F. Aquino,
     S. Hirata, M. T. Hackler, E. Hermes, L. Jensen, J. E. Moore, J. C. Becca,
      V. Konjkov, T. Risthaus, M. Malagoli, A. Marenich, A. Otero-de-la-Roza,
        J. Mullin, P. Nichols, R. Peverati, J. Pittner, Y. Zhao, P.-D. Fan,
        A. Fonari, M. J. Williamson, R. J. Harrison, J. R. Rehr, M. Dupuis,
     D. Silverstein, D. M. A. Smith, J. Nieplocha, V. Tipparaju, M. Krishnan,
     B. E. Van Kuiken, A. Vazquez-Mayagoitia, M. Swart, Q. Wu, T. Van Voorhis,
     A. A. Auer, M. Nooijen, L. D. Crosby, E. Brown, G. Cisneros, G. I. Fann,
   H. Fruchtl, J. Garza, K. Hirao, R. A. Kendall, J. A. Nichols, K. Tsemekhman,
    K. Wolinski, J. Anchell, D. E. Bernholdt, P. Borowski, T. Clark, D. Clerc,
   H. Dachsel, M. J. O. Deegan, K. Dyall, D. Elwood, E. Glendening, M. Gutowski,
   A. C. Hess, J. Jaffe, B. G. Johnson, J. Ju, R. Kobayashi, R. Kutteh, Z. Lin,
   R. Littlefield, X. Long, B. Meng, T. Nakajima, S. Niu, L. Pollack, M. Rosing,
   K. Glaesemann, G. Sandrone, M. Stave, H. Taylor, G. Thomas, J. H. van Lenthe,
                               A. T. Wong, Z. Zhang.

 Total times  cpu:      471.9s     wall:      506.7s
