 argument  1 = H1Li1-1.4.nw



============================== echo of input deck ==============================

title "swnc: e theory=pspw4 xc=pbe formula=LiH charge=0 mult=1"
#machinejob:expert

echo

start pspw_hf_LiH

memory heap 2200 mb stack 2200 mb global 10 mb

charge 0

geometry
Li    0.00000    0.00000   -0.70000
H     0.00000    0.00000    0.70000
end

nwpw
  ### pseudopotential block begin ###
  ### pseudopotential block end   ###
  simulation_cell
     SC 28.345889835
     boundary_conditions aperiodic
  end

  cutoff 50.0
  mult 1
  xc hf
  lmbfgs
  tolerances 1.0e-9 1.0e-9

  virtual 1
end
set nwpw:cif_filename LiH

#set nwpw:CI_maxit_orb 15
#set nwpw:CI_maxit_linesearch 15
set pspw:HFX_screening_radius 14.0


set nwpw:2qintegrals .true.
set nwpw:3x3_virtual .true.

task pspw energy

================================================================================


                                         
                                         


             Northwest Computational Chemistry Package (NWChem) 7.2.3
             --------------------------------------------------------


                    Environmental Molecular Sciences Laboratory
                       Pacific Northwest National Laboratory
                                Richland, WA 99352

                              Copyright (c) 1994-2022
                       Pacific Northwest National Laboratory
                            Battelle Memorial Institute

             NWChem is an open-source computational chemistry package
                        distributed under the terms of the
                      Educational Community License (ECL) 2.0
             A copy of the license is included with this distribution
                              in the LICENSE.TXT file

                                  ACKNOWLEDGMENT
                                  --------------

            This software and its documentation were developed at the
            EMSL at Pacific Northwest National Laboratory, a multiprogram
            national laboratory, operated for the U.S. Department of Energy
            by Battelle under Contract Number DE-AC05-76RL01830. Support
            for this work was provided by the Department of Energy Office
            of Biological and Environmental Research, Office of Basic
            Energy Sciences, and the Office of Advanced Scientific Computing.


           Job information
           ---------------

    hostname        = mqs-al
    program         = nwchem
    date            = Wed Apr  9 20:59:46 2025

    compiled        = Thu_Oct_31_08:55:15_2024
    source          = /home/conda/feedstock_root/build_artifacts/nwchem_1730356057992/work
    nwchem branch   = 7.2.3
    nwchem revision = c400b04
    ga revision     = 5.8.0
    use scalapack   = T
    input           = H1Li1-1.4.nw
    prefix          = pspw_hf_LiH.
    data base       = ./pspw_hf_LiH.db
    status          = startup
    nproc           =        4
    time left       =     -1s



           Memory information
           ------------------

    heap     =  288358394 doubles =   2200.0 Mbytes
    stack    =  288358399 doubles =   2200.0 Mbytes
    global   =    1310720 doubles =     10.0 Mbytes (distinct from heap & stack)
    total    =  578027513 doubles =   4410.0 Mbytes
    verify   = yes
    hardfail = no 


           Directory information
           ---------------------

  0 permanent = .
  0 scratch   = .




                                NWChem Input Module
                                -------------------


              swnc: e theory=pspw4 xc=pbe formula=LiH charge=0 mult=1
              -------------------------------------------------------

 Scaling coordinates for geometry "geometry" by  1.889725989
 (inverse scale =  0.529177249)

  zeroes
  zeroes
  zeroes
  zeroes
  zeroes
  zeroes
  zeroes
  zeroes
  zeroes
  zeroes
  zeroes
  zeroes
  zeroes
  zeroes
  zeroes
  zeroes
  zeroes
  zeroes
  zeroes
  zeroes
  zeroes
  zeroes
  zeroes
  zeroes
  zeroes
  zeroes
  zeroes
  zeroes
  zeroes
  zeroes
  zeroes
  zeroes
  zeroes
  zeroes
  zeroes
  zeroes
  zeroes
  zeroes
  zeroes
  zeroes
  zeroes
  zeroes
  zeroes
  zeroes
  zeroes
  zeroes
  zeroes
  zeroes
 ORDER OF PRIMARY AXIS IS BEING SET TO 4
 C4V symmetry detected

          ------
          auto-z
          ------
  no constraints, skipping    0.0000000000000000     
  no constraints, skipping    0.0000000000000000     


                             Geometry "geometry" -> ""
                             -------------------------

 Output coordinates in angstroms (scale by  1.889725989 to convert to a.u.)

  No.       Tag          Charge          X              Y              Z
 ---- ---------------- ---------- -------------- -------------- --------------
    1 Li                   3.0000     0.00000000     0.00000000    -0.35000000
    2 H                    1.0000     0.00000000     0.00000000     1.05000000

      Atomic Mass 
      ----------- 

      Li                 7.016000
      H                  1.007825


 Effective nuclear repulsion energy (a.u.)       1.1339512479

            Nuclear Dipole moment (a.u.) 
            ----------------------------
        X                 Y               Z
 ---------------- ---------------- ----------------
     0.0000000000     0.0000000000     0.0000000000

      Symmetry information
      --------------------

 Group name             C4v       
 Group number             18
 Group order               8
 No. of unique centers     2

      Symmetry unique atoms

     1    2



                                Z-matrix (autoz)
                                -------- 

 Units are Angstrom for bonds and degrees for angles

      Type          Name      I     J     K     L     M      Value
      ----------- --------  ----- ----- ----- ----- ----- ----------
    1 Stretch                  1     2                       1.40000


            XYZ format geometry
            -------------------
     2
 geometry
 Li                    0.00000000     0.00000000    -0.35000000
 H                     0.00000000     0.00000000     1.05000000

 ==============================================================================
                                internuclear distances
 ------------------------------------------------------------------------------
       center one      |      center two      | atomic units |  angstroms
 ------------------------------------------------------------------------------
    2 H                |   1 Li               |     2.64562  |     1.40000
 ------------------------------------------------------------------------------
                         number of included internuclear distances:          1
 ==============================================================================



          ****************************************************
          *                                                  *
          *               NWPW PSPW Calculation              *
          *                                                  *
          * [ (Grassmann/Stiefel manifold implementation)  ] *
          *                                                  *
          *      [ NorthWest Chemistry implementation ]      *
          *                                                  *
          *            version #5.10   06/12/02              *
          *                                                  *
          *    This code was developed by Eric J. Bylaska,   *
          *    and was based upon algorithms and code        *
          *    developed by the group of Prof. John H. Weare *
          *                                                  *
          ****************************************************
     >>>  JOB STARTED       AT Wed Apr  9 20:59:46 2025  <<<
          ================ input data ========================

 input psi filename:./pspw_hf_LiH.movecs

 number of processors used:         4
 processor grid           :   4 x   1
 parallel mapping         :2d-hilbert
 parallel mapping         :  balanced
 number of threads        :         1
 parallel io              :       off

 options:
      boundary conditions  = aperiodic   (version4)
      electron spin        = restricted
      exchange-correlation = Hartree-Fock
      - HFX relaxed
      - HFX restricted orbitals :    1
      - HFX free-space coulomb solver


 elements involved in the cluster:
      1: Li  valence charge:  1.0000  lmax=  1
             comment    : Hamann pseudopotential
             pseudpotential type            :   0
             highest angular component      :   1
             local potential used           :   1
             number of non-local projections:   1
             aperiodic cutoff radius        :  1.000
             semicore corrections included  :  1.000 (radius)  0.769 (charge)
             cutoff =   1.869   1.551

      2: H   valence charge:  1.0000  lmax=  1
             comment    : Parameterized (Chem.Phys.Lett., vol 322, page 447) Hamman psp
             pseudpotential type            :   0
             highest angular component      :   1
             local potential used           :   1
             number of non-local projections:   1
             aperiodic cutoff radius        :  1.000
             cutoff =   0.800   0.800


 total charge:   0.000

 atomic composition:
     Li  :    1     H   :    1

 number of electrons: spin up=     1 (   1 per task)  down=     1 (   1 per task) (Fourier space)
 number of orbitals : spin up=     1 (   1 per task)  down=     1 (   1 per task) (Fourier space)

 supercell:
      cell_name:  cell_default                                      
      lattice:    a1=<  28.346   0.000   0.000 >
                  a2=<   0.000  28.346   0.000 >
                  a3=<   0.000   0.000  28.346 >
      reciprocal: b1=<   0.222   0.000   0.000 >
                  b2=<   0.000   0.222   0.000 >
                  b3=<   0.000   0.000   0.222 >
      lattice:    a=      28.346 b=     28.346 c=      28.346
                  alpha=  90.000 beta=  90.000 gamma=  90.000
                  omega=     22775.6

      density cutoff=100.000  fft=140x140x140(   544264 waves   136066 per task)
      wavefnc cutoff= 50.000  fft=140x140x140(   192294 waves    48073 per task)

 technical parameters:
      time step=      5.80     fictitious mass=  400000.0
      tolerance=0.100E-08 (energy)   0.100E-08 (density)
      maximum iterations =      1000 (   10 inner    100 outer )





== Energy Calculation ==


          ============ Grassmann lmbfgs iteration ============
     >>>  ITERATION STARTED AT Wed Apr  9 21:01:09 2025  <<<
    iter.           Energy         DeltaE       DeltaRho 
    ------------------------------------------------------
      10   -0.7361878181E+00   -0.81388E-04    0.12135E-02
      20   -0.7363822379E+00   -0.38286E-05    0.41490E-05
      30   -0.7363954897E+00   -0.36218E-06    0.10254E-06
      40   -0.7363967514E+00   -0.41884E-07    0.55973E-08
      50   -0.7363969216E+00   -0.62753E-08    0.93267E-09
      60   -0.7363969455E+00   -0.96377E-09    0.84415E-10
  *** tolerance ok. iteration terminated
     >>>  ITERATION ENDED   AT Wed Apr  9 21:04:10 2025  <<<


==  Summary Of Results  ==

 number of electrons: spin up=    1.00000  down=    1.00000 (real space)

 total     energy    :  -0.7363969455E+00 (   -0.36820E+00/ion)
 total orbital energy:  -0.6132172197E+00 (   -0.61322E+00/electron)
 hartree   energy    :   0.1002326950E+01 (    0.10023E+01/electron)
 exc-corr  energy    :   0.0000000000E+00 (    0.00000E+00/electron)
 HF exchange energy  :  -0.5011634751E+00 (   -0.50116E+00/electron)
 ion-ion   energy    :   0.3779837493E+00 (    0.18899E+00/ion)

 kinetic (planewave) :   0.6703939574E+00 (    0.67039E+00/electron)
 V_local (planewave) :  -0.2203740170E+01 (   -0.22037E+01/electron)
 V_nl    (planewave) :  -0.8219795758E-01 (   -0.82198E-01/electron)
 V_Coul  (planewave) :   0.2004653900E+01 (    0.20047E+01/electron)
 V_xc.   (planewave) :   0.0000000000E+00 (    0.00000E+00/electron)
 K.S. HFX energy     :  -0.1002326950E+01 (   -0.10023E+01/electron)
 Virial Coefficient  :  -0.4195804927E+00

 orbital energies:
    -0.3066086E+00 (  -8.343eV)


== Virtual Orbital Calculation ==


 input epsi filename:./pspw_hf_LiH.emovecs

 COVOs Mimimization
 ------------------
CI gradient algorithm =         3
maxit_sweeps          =         3
maxit_orb             =       120
maxit_linesearch      =        15
maxerror              = 0.100E-08

     orb,it,eci,eold,eci-eold=                    1                    1 -0.75035706807973646      -0.75031139524462132       -4.5672835115140309E-005 F
     orb,it,eci,eold,eci-eold=                    1                    2 -0.75036224361009163      -0.75035706807973646       -5.1755303551725973E-006 F
     orb,it,eci,eold,eci-eold=                    1                    3 -0.75047451112674413      -0.75036224361009163       -1.1226751665249779E-004 F
     orb,it,eci,eold,eci-eold=                    1                    4 -0.75051151961104123      -0.75047451112674413       -3.7008484297107458E-005 F
     orb,it,eci,eold,eci-eold=                    1                    5 -0.75056345086392717      -0.75051151961104123       -5.1931252885939472E-005 F
     orb,it,eci,eold,eci-eold=                    1                    6 -0.75059818921962496      -0.75056345086392717       -3.4738355697783163E-005 F
     orb,it,eci,eold,eci-eold=                    1                    7 -0.75062161400343519      -0.75059818921962496       -2.3424783810233052E-005 F
     orb,it,eci,eold,eci-eold=                    1                    8 -0.75064398041708436      -0.75062161400343519       -2.2366413649166361E-005 F
     orb,it,eci,eold,eci-eold=                    1                    9 -0.75064843923382663      -0.75064398041708436       -4.4588167422698888E-006 F
     orb,it,eci,eold,eci-eold=                    1                   10 -0.75066021416286111      -0.75064843923382663       -1.1774929034480408E-005 F
     orb,it,eci,eold,eci-eold=                    1                   11 -0.75068072365823313      -0.75066021416286111       -2.0509495372023068E-005 F
     orb,it,eci,eold,eci-eold=                    1                   12 -0.75070635704052657      -0.75068072365823313       -2.5633382293444029E-005 F
     orb,it,eci,eold,eci-eold=                    1                   13 -0.75070803959307431      -0.75070635704052657       -1.6825525477326408E-006 F
     orb,it,eci,eold,eci-eold=                    1                   14 -0.75072101527604007      -0.75070803959307431       -1.2975682965765678E-005 F
     orb,it,eci,eold,eci-eold=                    1                   15 -0.75074983418879138      -0.75072101527604007       -2.8818912751304993E-005 F
     orb,it,eci,eold,eci-eold=                    1                   16 -0.75076395351600755      -0.75074983418879138       -1.4119327216177702E-005 F
     orb,it,eci,eold,eci-eold=                    1                   17 -0.75077846524730441      -0.75076395351600755       -1.4511731296851238E-005 F
     orb,it,eci,eold,eci-eold=                    1                   18 -0.75078735648873640      -0.75077846524730441       -8.8912414319963773E-006 F
     orb,it,eci,eold,eci-eold=                    1                   19 -0.75080337532216701      -0.75078735648873640       -1.6018833430608836E-005 F
     orb,it,eci,eold,eci-eold=                    1                   20 -0.75081113871796101      -0.75080337532216701       -7.7633957940026477E-006 F
     orb,it,eci,eold,eci-eold=                    1                   21 -0.75081680732458977      -0.75081113871796101       -5.6686066287614523E-006 F
     orb,it,eci,eold,eci-eold=                    1                   22 -0.75081969719021568      -0.75081680732458977       -2.8898656259102040E-006 F
     orb,it,eci,eold,eci-eold=                    1                   23 -0.75082738537054239      -0.75081969719021568       -7.6881803267037085E-006 F
     orb,it,eci,eold,eci-eold=                    1                   24 -0.75082753538547575      -0.75082738537054239       -1.5001493336441740E-007 F
     orb,it,eci,eold,eci-eold=                    1                   25 -0.75082796886948411      -0.75082753538547575       -4.3348400835530043E-007 F
     orb,it,eci,eold,eci-eold=                    1                   26 -0.75083302638195881      -0.75082796886948411       -5.0575124747043176E-006 F
     orb,it,eci,eold,eci-eold=                    1                   27 -0.75083331075817084      -0.75083302638195881       -2.8437621202304086E-007 F
     orb,it,eci,eold,eci-eold=                    1                   28 -0.75083363353623334      -0.75083331075817084       -3.2277806250036178E-007 F
     orb,it,eci,eold,eci-eold=                    1                   29 -0.75083664548283457      -0.75083363353623334       -3.0119466012390461E-006 F
     orb,it,eci,eold,eci-eold=                    1                   30 -0.75083712759968546      -0.75083664548283457       -4.8211685088617173E-007 F
     orb,it,eci,eold,eci-eold=                    1                   31 -0.75083716934668154      -0.75083712759968546       -4.1746996082281385E-008 F
     orb,it,eci,eold,eci-eold=                    1                   32 -0.75083948997516670      -0.75083716934668154       -2.3206284851529091E-006 F
     orb,it,eci,eold,eci-eold=                    1                   33 -0.75084089312090541      -0.75083948997516670       -1.4031457387098101E-006 F
     orb,it,eci,eold,eci-eold=                    1                   34 -0.75084135729656221      -0.75084089312090541       -4.6417565680023642E-007 F
     orb,it,eci,eold,eci-eold=                    1                   35 -0.75084303999355029      -0.75084135729656221       -1.6826969880812115E-006 F
     orb,it,eci,eold,eci-eold=                    1                   36 -0.75084331031667062      -0.75084303999355029       -2.7032312033270500E-007 F
     orb,it,eci,eold,eci-eold=                    1                   37 -0.75084342053916087      -0.75084331031667062       -1.1022249024605912E-007 F
     orb,it,eci,eold,eci-eold=                    1                   38 -0.75084489904397422      -0.75084342053916087       -1.4785048133569845E-006 F
     orb,it,eci,eold,eci-eold=                    1                   39 -0.75084576464208164      -0.75084489904397422       -8.6559810741348997E-007 F
     orb,it,eci,eold,eci-eold=                    1                   40 -0.75084603825920804      -0.75084576464208164       -2.7361712640061597E-007 F
     orb,it,eci,eold,eci-eold=                    1                   41 -0.75084710508351793      -0.75084603825920804       -1.0668243098921337E-006 F
     orb,it,eci,eold,eci-eold=                    1                   42 -0.75084735132232572      -0.75084710508351793       -2.4623880778840146E-007 F
     orb,it,eci,eold,eci-eold=                    1                   43 -0.75084747568174426      -0.75084735132232572       -1.2435941854072041E-007 F
     orb,it,eci,eold,eci-eold=                    1                   44 -0.75084857530689564      -0.75084747568174426       -1.0996251513795130E-006 F
     orb,it,eci,eold,eci-eold=                    1                   45 -0.75084907499895781      -0.75084857530689564       -4.9969206217248541E-007 F
     orb,it,eci,eold,eci-eold=                    1                   46 -0.75084913475536841      -0.75084907499895781       -5.9756410597522347E-008 F
     orb,it,eci,eold,eci-eold=                    1                   47 -0.75084982419891688      -0.75084913475536841       -6.8944354847388922E-007 F
     orb,it,eci,eold,eci-eold=                    1                   48 -0.75085020730414420      -0.75084982419891688       -3.8310522731954677E-007 F
     orb,it,eci,eold,eci-eold=                    1                   49 -0.75085038316562991      -0.75085020730414420       -1.7586148570725157E-007 F
     orb,it,eci,eold,eci-eold=                    1                   50 -0.75085105104696981      -0.75085038316562991       -6.6788133989970078E-007 F
     orb,it,eci,eold,eci-eold=                    1                   51 -0.75085118700774756      -0.75085105104696981       -1.3596077774735704E-007 F
     orb,it,eci,eold,eci-eold=                    1                   52 -0.75085119704713987      -0.75085118700774756       -1.0039392317473528E-008 F
     orb,it,eci,eold,eci-eold=                    1                   53 -0.75085162430040242      -0.75085119704713987       -4.2725326254711149E-007 F
     orb,it,eci,eold,eci-eold=                    1                   54 -0.75085187588797830      -0.75085162430040242       -2.5158757588350511E-007 F
     orb,it,eci,eold,eci-eold=                    1                   55 -0.75085197557033068      -0.75085187588797830       -9.9682352372454375E-008 F
     orb,it,eci,eold,eci-eold=                    1                   56 -0.75085232148887904      -0.75085197557033068       -3.4591854836119040E-007 F
     orb,it,eci,eold,eci-eold=                    1                   57 -0.75085237619301015      -0.75085232148887904       -5.4704131113858523E-008 F
     orb,it,eci,eold,eci-eold=                    1                   58 -0.75085239444810647      -0.75085237619301015       -1.8255096323471776E-008 F
     orb,it,eci,eold,eci-eold=                    1                   59 -0.75085264777836991      -0.75085239444810647       -2.5333026343332676E-007 F
     orb,it,eci,eold,eci-eold=                    1                   60 -0.75085276105444398      -0.75085264777836991       -1.1327607407629614E-007 F
     orb,it,eci,eold,eci-eold=                    1                   61 -0.75085279912575142      -0.75085276105444398       -3.8071307439935254E-008 F
     orb,it,eci,eold,eci-eold=                    1                   62 -0.75085300470625982      -0.75085279912575142       -2.0558050839447617E-007 F
     orb,it,eci,eold,eci-eold=                    1                   63 -0.75085305387317969      -0.75085300470625982       -4.9166919868781633E-008 F
     orb,it,eci,eold,eci-eold=                    1                   64 -0.75085305794913815      -0.75085305387317969       -4.0759584596372633E-009 F
     orb,it,eci,eold,eci-eold=                    1                   65 -0.75085320257385246      -0.75085305794913815       -1.4462471431553325E-007 F
     orb,it,eci,eold,eci-eold=                    1                   66 -0.75085329087049224      -0.75085320257385246       -8.8296639777496466E-008 F
     orb,it,eci,eold,eci-eold=                    1                   67 -0.75085332331797727      -0.75085329087049224       -3.2447485032172096E-008 F
     orb,it,eci,eold,eci-eold=                    1                   68 -0.75085344046219393      -0.75085332331797727       -1.1714421666031427E-007 F
     orb,it,eci,eold,eci-eold=                    1                   69 -0.75085346313326040      -0.75085344046219393       -2.2671066468582524E-008 F
     orb,it,eci,eold,eci-eold=                    1                   70 -0.75085346959782107      -0.75085346313326040       -6.4645606645541420E-009 F
     orb,it,eci,eold,eci-eold=                    1                   71 -0.75085356048542251      -0.75085346959782107       -9.0887601444933352E-008 F
