 argument  1 = H1Li1-1.3.nw



============================== echo of input deck ==============================
# queue_nwchem_JobId: 61c94da5ea88854f1bdd7095
# queue_nwchem_restart_count: 0
#
#nwchem_input  H1Li1.nw
#nwchem_output H1Li1.out00
#nwchem_done   H1Li1.done
#
#mformula_off
#
#transfer_files *.nw *.xyz *.ion_motion *.emotion *.fei *.cif *.hist *.gr *.dat *.meta_gaussians *.cube *.neb_epath *.neb_final_epath
#bad_files md_xs
#
#curdir we31869.emsl.pnl.gov:/media/seagate2/Projects/Duo/COVOs/LiH/3x3_aperiodic_1covo/R-1.3
#
#permdir H1Li1-3x3a-1covo-1.3
#deletescratch no
#queuesave no
#
#machine aerosol8
#cputime 22:05:00
#ncpus 32
#queue regular
#
title "swnc: e theory=pspw4 xc=pbe formula=LiH charge=0 mult=1"
#machinejob:expert

echo

start pspw_hf_LiH

memory heap 2200 mb stack 2200 mb global 10 mb

charge 0

geometry
Li    0.00000    0.00000   -0.65000
H     0.00000    0.00000    0.65000
end

nwpw
  ### pseudopotential block begin ###
  ### pseudopotential block end   ###
  simulation_cell
     SC 28.345889835
     boundary_conditions aperiodic
  end

  cutoff 50.0
  mult 1
  xc hf
  lmbfgs
  tolerances 1.0e-9 1.0e-9

  virtual 1
end
set nwpw:cif_filename LiH

#set nwpw:CI_maxit_orb 15
#set nwpw:CI_maxit_linesearch 15
set pspw:HFX_screening_radius 14.0


set nwpw:2qintegrals .true.
set nwpw:3x3_virtual .true.

task pspw energy

================================================================================


                                         
                                         


             Northwest Computational Chemistry Package (NWChem) 7.2.3
             --------------------------------------------------------


                    Environmental Molecular Sciences Laboratory
                       Pacific Northwest National Laboratory
                                Richland, WA 99352

                              Copyright (c) 1994-2022
                       Pacific Northwest National Laboratory
                            Battelle Memorial Institute

             NWChem is an open-source computational chemistry package
                        distributed under the terms of the
                      Educational Community License (ECL) 2.0
             A copy of the license is included with this distribution
                              in the LICENSE.TXT file

                                  ACKNOWLEDGMENT
                                  --------------

            This software and its documentation were developed at the
            EMSL at Pacific Northwest National Laboratory, a multiprogram
            national laboratory, operated for the U.S. Department of Energy
            by Battelle under Contract Number DE-AC05-76RL01830. Support
            for this work was provided by the Department of Energy Office
            of Biological and Environmental Research, Office of Basic
            Energy Sciences, and the Office of Advanced Scientific Computing.


           Job information
           ---------------

    hostname        = mqs-al
    program         = nwchem
    date            = Wed Apr  9 18:59:20 2025

    compiled        = Thu_Oct_31_08:55:15_2024
    source          = /home/conda/feedstock_root/build_artifacts/nwchem_1730356057992/work
    nwchem branch   = 7.2.3
    nwchem revision = c400b04
    ga revision     = 5.8.0
    use scalapack   = T
    input           = H1Li1-1.3.nw
    prefix          = pspw_hf_LiH.
    data base       = ./pspw_hf_LiH.db
    status          = startup
    nproc           =        1
    time left       =     -1s



           Memory information
           ------------------

    heap     =  288358398 doubles =   2200.0 Mbytes
    stack    =  288358395 doubles =   2200.0 Mbytes
    global   =    1310720 doubles =     10.0 Mbytes (distinct from heap & stack)
    total    =  578027513 doubles =   4410.0 Mbytes
    verify   = yes
    hardfail = no 


           Directory information
           ---------------------

  0 permanent = .
  0 scratch   = .




                                NWChem Input Module
                                -------------------


              swnc: e theory=pspw4 xc=pbe formula=LiH charge=0 mult=1
              -------------------------------------------------------

 Scaling coordinates for geometry "geometry" by  1.889725989
 (inverse scale =  0.529177249)

  zeroes
  zeroes
  zeroes
  zeroes
  zeroes
  zeroes
  zeroes
  zeroes
  zeroes
  zeroes
  zeroes
  zeroes
  zeroes
  zeroes
  zeroes
  zeroes
  zeroes
  zeroes
  zeroes
  zeroes
  zeroes
  zeroes
  zeroes
  zeroes
  zeroes
  zeroes
  zeroes
  zeroes
  zeroes
  zeroes
  zeroes
  zeroes
  zeroes
  zeroes
  zeroes
  zeroes
  zeroes
  zeroes
  zeroes
  zeroes
  zeroes
  zeroes
  zeroes
  zeroes
  zeroes
  zeroes
  zeroes
  zeroes
 ORDER OF PRIMARY AXIS IS BEING SET TO 4
 C4V symmetry detected

          ------
          auto-z
          ------
  no constraints, skipping    0.0000000000000000     
  no constraints, skipping    0.0000000000000000     


                             Geometry "geometry" -> ""
                             -------------------------

 Output coordinates in angstroms (scale by  1.889725989 to convert to a.u.)

  No.       Tag          Charge          X              Y              Z
 ---- ---------------- ---------- -------------- -------------- --------------
    1 Li                   3.0000     0.00000000     0.00000000    -0.32500000
    2 H                    1.0000     0.00000000     0.00000000     0.97500000

      Atomic Mass 
      ----------- 

      Li                 7.016000
      H                  1.007825


 Effective nuclear repulsion energy (a.u.)       1.2211782669

            Nuclear Dipole moment (a.u.) 
            ----------------------------
        X                 Y               Z
 ---------------- ---------------- ----------------
     0.0000000000     0.0000000000     0.0000000000

      Symmetry information
      --------------------

 Group name             C4v       
 Group number             18
 Group order               8
 No. of unique centers     2

      Symmetry unique atoms

     1    2



                                Z-matrix (autoz)
                                -------- 

 Units are Angstrom for bonds and degrees for angles

      Type          Name      I     J     K     L     M      Value
      ----------- --------  ----- ----- ----- ----- ----- ----------
    1 Stretch                  1     2                       1.30000


            XYZ format geometry
            -------------------
     2
 geometry
 Li                    0.00000000     0.00000000    -0.32500000
 H                     0.00000000     0.00000000     0.97500000

 ==============================================================================
                                internuclear distances
 ------------------------------------------------------------------------------
       center one      |      center two      | atomic units |  angstroms
 ------------------------------------------------------------------------------
    2 H                |   1 Li               |     2.45664  |     1.30000
 ------------------------------------------------------------------------------
                         number of included internuclear distances:          1
 ==============================================================================



          ****************************************************
          *                                                  *
          *               NWPW PSPW Calculation              *
          *                                                  *
          * [ (Grassmann/Stiefel manifold implementation)  ] *
          *                                                  *
          *      [ NorthWest Chemistry implementation ]      *
          *                                                  *
          *            version #5.10   06/12/02              *
          *                                                  *
          *    This code was developed by Eric J. Bylaska,   *
          *    and was based upon algorithms and code        *
          *    developed by the group of Prof. John H. Weare *
          *                                                  *
          ****************************************************
     >>>  JOB STARTED       AT Wed Apr  9 18:59:20 2025  <<<
          ================ input data ========================
 Error reading psi - bad grid
 nfft :                  112                  112                  112
 ngrid:                  140                  140                  140
 Error reading psi - bad grid
 nfft :                  112                  112                  112
 ngrid:                  140                  140                  140
 Error reading psi - bad grid

 Grid is being converted:
 ------------------------

 To turn off automatic grid conversion:

 set nwpw:psi_nogrid .false.

 old_filename: pspw_hf_LiH.movecs                                
 new_filename: pspw_hf_LiH.movecs                                
 converting  : 112x112x112 --> 140x140x140
converting .... psi:    1 spin: 1

 input psi filename:./pspw_hf_LiH.movecs

 number of processors used:         1
 processor grid           :   1 x   1
 parallel mapping         :2d-hilbert
 parallel mapping         :  balanced
 number of threads        :         1
 parallel io              :       off

 options:
      boundary conditions  = aperiodic   (version4)
      electron spin        = restricted
      exchange-correlation = Hartree-Fock
      - HFX relaxed
      - HFX restricted orbitals :    1
      - HFX free-space coulomb solver


 elements involved in the cluster:
      1: Li  valence charge:  1.0000  lmax=  1
             comment    : Hamann pseudopotential
             pseudpotential type            :   0
             highest angular component      :   1
             local potential used           :   1
             number of non-local projections:   1
             aperiodic cutoff radius        :  1.000
             semicore corrections included  :  1.000 (radius)  0.769 (charge)
             cutoff =   1.869   1.551

      2: H   valence charge:  1.0000  lmax=  1
             comment    : Parameterized (Chem.Phys.Lett., vol 322, page 447) Hamman psp
             pseudpotential type            :   0
             highest angular component      :   1
             local potential used           :   1
             number of non-local projections:   1
             aperiodic cutoff radius        :  1.000
             cutoff =   0.800   0.800


 total charge:   0.000

 atomic composition:
     Li  :    1     H   :    1

 number of electrons: spin up=     1 (   1 per task)  down=     1 (   1 per task) (Fourier space)
 number of orbitals : spin up=     1 (   1 per task)  down=     1 (   1 per task) (Fourier space)

 supercell:
      cell_name:  cell_default                                      
      lattice:    a1=<  28.346   0.000   0.000 >
                  a2=<   0.000  28.346   0.000 >
                  a3=<   0.000   0.000  28.346 >
      reciprocal: b1=<   0.222   0.000   0.000 >
                  b2=<   0.000   0.222   0.000 >
                  b3=<   0.000   0.000   0.222 >
      lattice:    a=      28.346 b=     28.346 c=      28.346
                  alpha=  90.000 beta=  90.000 gamma=  90.000
                  omega=     22775.6

      density cutoff=100.000  fft=140x140x140(   544264 waves   544264 per task)
      wavefnc cutoff= 50.000  fft=140x140x140(   192294 waves   192294 per task)

 technical parameters:
      time step=      5.80     fictitious mass=  400000.0
      tolerance=0.100E-08 (energy)   0.100E-08 (density)
      maximum iterations =      1000 (   10 inner    100 outer )





== Energy Calculation ==


          ============ Grassmann lmbfgs iteration ============
     >>>  ITERATION STARTED AT Wed Apr  9 19:00:38 2025  <<<
    iter.           Energy         DeltaE       DeltaRho 
    ------------------------------------------------------
      10   -0.7262865307E+00   -0.10678E-07    0.66226E-05
      20   -0.7262865684E+00   -0.14046E-08    0.29385E-08
      30   -0.7262865703E+00   -0.95427E-09    0.84462E-11
  *** tolerance ok. iteration terminated
     >>>  ITERATION ENDED   AT Wed Apr  9 19:03:48 2025  <<<


==  Summary Of Results  ==

 number of electrons: spin up=    1.00000  down=    1.00000 (real space)

 total     energy    :  -0.7262865703E+00 (   -0.36314E+00/ion)
 total orbital energy:  -0.6211685028E+00 (   -0.62117E+00/electron)
 hartree   energy    :   0.1024354980E+01 (    0.10244E+01/electron)
 exc-corr  energy    :   0.0000000000E+00 (    0.00000E+00/electron)
 HF exchange energy  :  -0.5121774898E+00 (   -0.51218E+00/electron)
 ion-ion   energy    :   0.4070594223E+00 (    0.20353E+00/ion)

 kinetic (planewave) :   0.7037333295E+00 (    0.70373E+00/electron)
 V_local (planewave) :  -0.2271234945E+01 (   -0.22712E+01/electron)
 V_nl    (planewave) :  -0.7802186723E-01 (   -0.78022E-01/electron)
 V_Coul  (planewave) :   0.2048709959E+01 (    0.20487E+01/electron)
 V_xc.   (planewave) :   0.0000000000E+00 (    0.00000E+00/electron)
 K.S. HFX energy     :  -0.1024354980E+01 (   -0.10244E+01/electron)
 Virial Coefficient  :  -0.4270749161E+00

 orbital energies:
    -0.3105843E+00 (  -8.451eV)


== Virtual Orbital Calculation ==

 Error reading psi - bad grid
 Error reading psi - bad grid
 Error reading psi - bad grid

 Grid is being converted:
 ------------------------

 To turn off automatic grid conversion:

 set nwpw:psi_nogrid .false.

 old_filename: pspw_hf_LiH.emovecs                               
 new_filename: pspw_hf_LiH.emovecs                               
 converting  : 112x112x112 --> 140x140x140
converting .... psi:    1 spin: 1

 input epsi filename:./pspw_hf_LiH.emovecs

 COVOs Mimimization
 ------------------
CI gradient algorithm =         3
maxit_sweeps          =         3
maxit_orb             =       120
maxit_linesearch      =        15
maxerror              = 0.100E-08

     orb,it,eci,eold,eci-eold=                    1                    1 -0.74086284301038674      -0.74085495171486049       -7.8912955262522289E-006 F
     orb,it,eci,eold,eci-eold=                    1                    2 -0.74086542963027235      -0.74086284301038674       -2.5866198856139277E-006 F
     orb,it,eci,eold,eci-eold=                    1                    3 -0.74086775497584245      -0.74086542963027235       -2.3253455700977810E-006 F
     orb,it,eci,eold,eci-eold=                    1                    4 -0.74086905794047553      -0.74086775497584245       -1.3029646330764422E-006 F
     orb,it,eci,eold,eci-eold=                    1                    5 -0.74086924156008305      -0.74086905794047553       -1.8361960751889228E-007 F
     orb,it,eci,eold,eci-eold=                    1                    6 -0.74086946682549604      -0.74086924156008305       -2.2526541298972802E-007 F
     orb,it,eci,eold,eci-eold=                    1                    7 -0.74087006940402400      -0.74086946682549604       -6.0257852796397060E-007 F
     orb,it,eci,eold,eci-eold=                    1                    8 -0.74087013120472078      -0.74087006940402400       -6.1800696782299269E-008 F
     orb,it,eci,eold,eci-eold=                    1                    9 -0.74087020409061544      -0.74087013120472078       -7.2885894653040850E-008 F
     orb,it,eci,eold,eci-eold=                    1                   10 -0.74087023810801278      -0.74087020409061544       -3.4017397343433231E-008 F
     orb,it,eci,eold,eci-eold=                    1                   11 -0.74087024259627010      -0.74087023810801278       -4.4882573213556043E-009 F
     orb,it,eci,eold,eci-eold=                    1                   12 -0.74087024384167854      -0.74087024259627010       -1.2454084430402190E-009 F
     orb,it,eci,eold,eci-eold=                    1                   13 -0.74087024404911928      -0.74087024384167854       -2.0744073125911200E-010 F
     orbital   1 current e=  0.479130E+00 error=0.311E-03 (eci= -0.740870244E+00 error=0.207E-09) iterations  13(   0 preconditioned, Ep,Sp= 20.0  200.0)
     orb,it,eci,eold,eci-eold=                    1                    1 -0.74087024404911928      -0.74087024404911928        0.0000000000000000      F
     orbital   1 current e=  0.479137E+00 error=0.720E-05 (eci= -0.740870244E+00 error=0.000E+00) iterations   1(   0 preconditioned, Ep,Sp= 20.0  200.0)
     orb,it,eci,eold,eci-eold=                    1                    1 -0.74087024383493860      -0.74087024317087846       -6.6406014020969906E-010 F
     orbital   1 current e=  0.479142E+00 error=0.456E-05 (eci= -0.740870244E+00 error=0.664E-09) iterations   1(   0 preconditioned, Ep,Sp= 20.0  200.0)

 virtual orbital energies:
     0.4791416E+00 (  13.038eV)


 == Generating One-Electron and Two-Electron Integrals ==

 begin_one_electron_integrals
    1    1        -0.8227617412
    2    1        -0.1563176625
    2    2        -0.3070093484
 end_one_electron_integrals

 begin_two_electron_integrals
    1    1    1    1        0.5121774898
    1    1    2    1        0.1563190621
    1    1    2    2        0.4521008503
    2    1    2    1        0.1180507287
    2    1    2    2        0.1432840318
    2    2    2    2        0.4222549325
 end_two_electron_integrals


 output epsi filename:./pspw_hf_LiH.emovecs

 Total PSPW energy     :  -0.7262865703E+00


=== Spin Contamination ===

 <Sexact^2> =    0.0000000000000000     
 <S^2>      =    0.0000000000000000     



== Center of Charge ==

spin up     (   -0.0000,   -0.0000,    1.7151 )
spin down   (   -0.0000,   -0.0000,    1.7151 )
     total  (   -0.0000,   -0.0000,    1.7151 )
ionic       (    0.0000,    0.0000,    0.6142 )


== Molecular Dipole wrt Center of Mass ==

mu   =  (    0.0000,    0.0000,   -2.2019 ) au
|mu| =     2.2019 au,       5.5963 Debye

 output psi filename:./pspw_hf_LiH.movecs

 Writing Crystallographic Information File:./LiH.cif
   - cell not shifted (nwpw:cif_shift_cell .false.)


== Timing ==

cputime in seconds
  prologue    :   0.781195E+02
  main loop   :   0.791517E+03
  epilogue    :   0.594650E-01
  total       :   0.869696E+03
  cputime/step:   0.155199E+02       (      51 evalulations,      22 linesearches)


Time spent doing                        total          step       percent
  total time                 :   0.869697E+03  0.170529E+02       100.0 %
  i/o time                   :   0.363091E+00  0.711943E-02         0.0 %
  FFTs                       :   0.686616E+03  0.134631E+02        78.9 %
  dot products               :   0.719580E+00  0.141094E-01         0.1 %
  geodesic                   :   0.234812E+00  0.460415E-02         0.0 %
  ffm_dgemm                  :   0.546190E-01  0.107096E-02         0.0 %
  fmf_dgemm                  :   0.181446E+00  0.355777E-02         0.0 %
  mmm_dgemm                  :   0.684745E-03  0.134264E-04         0.0 %
  m_diagonalize              :   0.556064E-03  0.109032E-04         0.0 %
  local pseudopotentials     :   0.169410E+02  0.332176E+00         1.9 %
  non-local pseudopotentials :   0.148952E+01  0.292062E-01         0.2 %
  structure factors          :   0.123438E+01  0.242035E-01         0.1 %
  phase factors              :   0.170000E-04  0.333333E-06         0.0 %
  masking and packing        :   0.544366E+01  0.106739E+00         0.6 %
  queue fft                  :   0.194188E+02  0.380761E+00         2.2 %
  queue fft (serial)         :   0.103052E+02  0.202063E+00         1.2 %
  queue fft (message passing):   0.884716E+01  0.173474E+00         1.0 %
  HFX potential              :   0.925312E+02  0.181434E+01        10.6 %
  non-local psp FFM          :   0.887837E+00  0.174086E-01         0.1 %
  non-local psp FMF          :   0.187897E+00  0.368426E-02         0.0 %
  non-local psp FFM A        :   0.227121E+00  0.445336E-02         0.0 %
  non-local psp FFM B        :   0.363090E+00  0.711942E-02         0.0 %

== HFX Counters ==
  HFX Evalulations         =    51
  Lin ACE HFX Evalulations =     0


     >>>  JOB COMPLETED     AT Wed Apr  9 19:13:50 2025  <<<

 Task  times  cpu:      865.0s     wall:      869.7s
 Summary of allocated global arrays
-----------------------------------
  No active global arrays


MA_summarize_allocated_blocks: starting scan ...
MA_summarize_allocated_blocks: scan completed: 0 heap blocks, 0 stack blocks
MA usage statistics:

	allocation statistics:
					      heap	     stack
					      ----	     -----
	current number of blocks	         0	         0
	maximum number of blocks	       315	        34
	current total bytes		         0	         0
	maximum total bytes		2854961808	1003617656
	maximum total K-bytes		   2854962	   1003618
	maximum total M-bytes		      2855	      1004


                                NWChem Input Module
                                -------------------




                                     CITATION
                                     --------
                Please cite the following reference when publishing
                           results obtained with NWChem:

          E. Apra, E. J. Bylaska, W. A. de Jong, N. Govind, K. Kowalski,
       T. P. Straatsma, M. Valiev, H. J. J. van Dam, Y. Alexeev, J. Anchell,
       V. Anisimov, F. W. Aquino, R. Atta-Fynn, J. Autschbach, N. P. Bauman,
     J. C. Becca, D. E. Bernholdt, K. Bhaskaran-Nair, S. Bogatko, P. Borowski,
         J. Boschen, J. Brabec, A. Bruner, E. Cauet, Y. Chen, G. N. Chuev,
      C. J. Cramer, J. Daily, M. J. O. Deegan, T. H. Dunning Jr., M. Dupuis,
   K. G. Dyall, G. I. Fann, S. A. Fischer, A. Fonari, H. Fruchtl, L. Gagliardi,
      J. Garza, N. Gawande, S. Ghosh, K. Glaesemann, A. W. Gotz, J. Hammond,
       V. Helms, E. D. Hermes, K. Hirao, S. Hirata, M. Jacquelin, L. Jensen,
   B. G. Johnson, H. Jonsson, R. A. Kendall, M. Klemm, R. Kobayashi, V. Konkov,
      S. Krishnamoorthy, M. Krishnan, Z. Lin, R. D. Lins, R. J. Littlefield,
      A. J. Logsdail, K. Lopata, W. Ma, A. V. Marenich, J. Martin del Campo,
   D. Mejia-Rodriguez, J. E. Moore, J. M. Mullin, T. Nakajima, D. R. Nascimento,
    J. A. Nichols, P. J. Nichols, J. Nieplocha, A. Otero-de-la-Roza, B. Palmer,
    A. Panyala, T. Pirojsirikul, B. Peng, R. Peverati, J. Pittner, L. Pollack,
   R. M. Richard, P. Sadayappan, G. C. Schatz, W. A. Shelton, D. W. Silverstein,
   D. M. A. Smith, T. A. Soares, D. Song, M. Swart, H. L. Taylor, G. S. Thomas,
            V. Tipparaju, D. G. Truhlar, K. Tsemekhman, T. Van Voorhis,
      A. Vazquez-Mayagoitia, P. Verma, O. Villa, A. Vishnu, K. D. Vogiatzis,
        D. Wang, J. H. Weare, M. J. Williamson, T. L. Windus, K. Wolinski,
        A. T. Wong, Q. Wu, C. Yang, Q. Yu, M. Zacharias, Z. Zhang, Y. Zhao,
                                and R. J. Harrison
                        "NWChem: Past, present, and future
                         J. Chem. Phys. 152, 184102 (2020)
                               doi:10.1063/5.0004997

                                      AUTHORS
                                      -------
  E. Apra, E. J. Bylaska, N. Govind, K. Kowalski, M. Valiev, D. Mejia-Rodriguez,
       A. Kunitsa, N. P. Bauman, A. Panyala, W. A. de Jong, T. P. Straatsma,
   H. J. J. van Dam, D. Wang, T. L. Windus, J. Hammond, J. Autschbach, A. Woods,
    K. Bhaskaran-Nair, J. Brabec, K. Lopata, S. A. Fischer, S. Krishnamoorthy,
     M. Jacquelin, W. Ma, M. Klemm, O. Villa, Y. Chen, V. Anisimov, F. Aquino,
     S. Hirata, M. T. Hackler, E. Hermes, L. Jensen, J. E. Moore, J. C. Becca,
      V. Konjkov, T. Risthaus, M. Malagoli, A. Marenich, A. Otero-de-la-Roza,
        J. Mullin, P. Nichols, R. Peverati, J. Pittner, Y. Zhao, P.-D. Fan,
        A. Fonari, M. J. Williamson, R. J. Harrison, J. R. Rehr, M. Dupuis,
     D. Silverstein, D. M. A. Smith, J. Nieplocha, V. Tipparaju, M. Krishnan,
     B. E. Van Kuiken, A. Vazquez-Mayagoitia, M. Swart, Q. Wu, T. Van Voorhis,
     A. A. Auer, M. Nooijen, L. D. Crosby, E. Brown, G. Cisneros, G. I. Fann,
   H. Fruchtl, J. Garza, K. Hirao, R. A. Kendall, J. A. Nichols, K. Tsemekhman,
    K. Wolinski, J. Anchell, D. E. Bernholdt, P. Borowski, T. Clark, D. Clerc,
   H. Dachsel, M. J. O. Deegan, K. Dyall, D. Elwood, E. Glendening, M. Gutowski,
   A. C. Hess, J. Jaffe, B. G. Johnson, J. Ju, R. Kobayashi, R. Kutteh, Z. Lin,
   R. Littlefield, X. Long, B. Meng, T. Nakajima, S. Niu, L. Pollack, M. Rosing,
   K. Glaesemann, G. Sandrone, M. Stave, H. Taylor, G. Thomas, J. H. van Lenthe,
                               A. T. Wong, Z. Zhang.

 Total times  cpu:      865.0s     wall:      869.7s
