 argument  1 = H2-4.0.nw



============================== echo of input deck ==============================
title "swnc: e theory=pspw4 xc=hf formula=H2 charge=0 mult=1"
#machinejob:expert

echo

start pspw_hf_H2

memory heap 1200 mb stack 1200 mb global 10 mb

charge 0

geometry
H    0.00000    0.00000   -2.00000
H    0.00000    0.00000    2.00000
end

nwpw
  ### pseudopotential block begin ###
  ### pseudopotential block end   ###
  simulation_cell
     SC 15.0000
     boundary_conditions aperiodic
  end

  cutoff 50.0
  mult 1
  xc hf
  lmbfgs
  tolerances 1.0e-9 1.0e-9

  virtual 12
end
set nwpw:cif_filename H2

#set nwpw:CI_maxit_orb 15
#set nwpw:CI_maxit_linesearch 15
set pspw:HFX_screening_radius 14.0


set nwpw:2qintegrals .true.
set nwpw:3x3_virtual .true.

task pspw energy
================================================================================


                                         
                                         


             Northwest Computational Chemistry Package (NWChem) 7.2.3
             --------------------------------------------------------


                    Environmental Molecular Sciences Laboratory
                       Pacific Northwest National Laboratory
                                Richland, WA 99352

                              Copyright (c) 1994-2022
                       Pacific Northwest National Laboratory
                            Battelle Memorial Institute

             NWChem is an open-source computational chemistry package
                        distributed under the terms of the
                      Educational Community License (ECL) 2.0
             A copy of the license is included with this distribution
                              in the LICENSE.TXT file

                                  ACKNOWLEDGMENT
                                  --------------

            This software and its documentation were developed at the
            EMSL at Pacific Northwest National Laboratory, a multiprogram
            national laboratory, operated for the U.S. Department of Energy
            by Battelle under Contract Number DE-AC05-76RL01830. Support
            for this work was provided by the Department of Energy Office
            of Biological and Environmental Research, Office of Basic
            Energy Sciences, and the Office of Advanced Scientific Computing.


           Job information
           ---------------

    hostname        = mqs-al
    program         = nwchem
    date            = Sun Apr  6 20:41:04 2025

    compiled        = Thu_Oct_31_08:55:15_2024
    source          = /home/conda/feedstock_root/build_artifacts/nwchem_1730356057992/work
    nwchem branch   = 7.2.3
    nwchem revision = c400b04
    ga revision     = 5.8.0
    use scalapack   = T
    input           = H2-4.0.nw
    prefix          = pspw_hf_H2.
    data base       = ./pspw_hf_H2.db
    status          = startup
    nproc           =       24
    time left       =     -1s



           Memory information
           ------------------

    heap     =  157286394 doubles =   1200.0 Mbytes
    stack    =  157286399 doubles =   1200.0 Mbytes
    global   =    1310720 doubles =     10.0 Mbytes (distinct from heap & stack)
    total    =  315883513 doubles =   2410.0 Mbytes
    verify   = yes
    hardfail = no 


           Directory information
           ---------------------

  0 permanent = .
  0 scratch   = .




                                NWChem Input Module
                                -------------------


               swnc: e theory=pspw4 xc=hf formula=H2 charge=0 mult=1
               -----------------------------------------------------

 Scaling coordinates for geometry "geometry" by  1.889725989
 (inverse scale =  0.529177249)

  zeroes
  zeroes
  zeroes
  zeroes
  zeroes
  zeroes
  zeroes
  zeroes
  zeroes
  zeroes
  zeroes
  zeroes
  zeroes
  zeroes
  zeroes
  zeroes
  zeroes
  zeroes
  zeroes
  zeroes
  zeroes
  zeroes
  zeroes
  zeroes
  zeroes
  zeroes
  zeroes
  zeroes
  zeroes
  zeroes
  zeroes
  zeroes
  zeroes
  zeroes
  zeroes
  zeroes
  zeroes
  zeroes
  zeroes
  zeroes
  zeroes
  zeroes
  zeroes
  zeroes
  zeroes
  zeroes
  zeroes
  zeroes
 ORDER OF PRIMARY AXIS IS BEING SET TO 4
 D4H symmetry detected

          ------
          auto-z
          ------
     1 autoz failed with cvr_scaling = 1.2 changing to 1.3
     2 autoz failed with cvr_scaling = 1.3 changing to 1.4
     3 autoz failed with cvr_scaling = 1.4 changing to 1.5
     4 autoz failed with cvr_scaling = 1.5 changing to 1.6
     5 autoz failed with cvr_scaling = 1.6 changing to 1.7

 AUTOZ failed to generate good internal coordinates.
 Cartesian coordinates will be used in optimizations.



                             Geometry "geometry" -> ""
                             -------------------------

 Output coordinates in angstroms (scale by  1.889725989 to convert to a.u.)

  No.       Tag          Charge          X              Y              Z
 ---- ---------------- ---------- -------------- -------------- --------------
    1 H                    1.0000     0.00000000     0.00000000    -2.00000000
    2 H                    1.0000     0.00000000     0.00000000     2.00000000

      Atomic Mass 
      ----------- 

      H                  1.007825


 Effective nuclear repulsion energy (a.u.)       0.1322943122

            Nuclear Dipole moment (a.u.) 
            ----------------------------
        X                 Y               Z
 ---------------- ---------------- ----------------
     0.0000000000     0.0000000000     0.0000000000

      Symmetry information
      --------------------

 Group name             D4h       
 Group number             28
 Group order              16
 No. of unique centers     1

      Symmetry unique atoms

     1


            XYZ format geometry
            -------------------
     2
 geometry
 H                     0.00000000     0.00000000    -2.00000000
 H                     0.00000000     0.00000000     2.00000000

          ****************************************************
          *                                                  *
          *               NWPW PSPW Calculation              *
          *                                                  *
          * [ (Grassmann/Stiefel manifold implementation)  ] *
          *                                                  *
          *      [ NorthWest Chemistry implementation ]      *
          *                                                  *
          *            version #5.10   06/12/02              *
          *                                                  *
          *    This code was developed by Eric J. Bylaska,   *
          *    and was based upon algorithms and code        *
          *    developed by the group of Prof. John H. Weare *
          *                                                  *
          ****************************************************
     >>>  JOB STARTED       AT Sun Apr  6 20:41:04 2025  <<<
          ================ input data ========================

 input psi filename:./pspw_hf_H2.movecs

 number of processors used:        24
 processor grid           :  24 x   1
 parallel mapping         :2d-hilbert
 parallel mapping         :  balanced
 number of threads        :         1
 parallel io              :       off

 options:
      boundary conditions  = aperiodic   (version4)
      electron spin        = restricted
      exchange-correlation = Hartree-Fock
      - HFX relaxed
      - HFX restricted orbitals :    1
      - HFX free-space coulomb solver


 elements involved in the cluster:
      1: H   valence charge:  1.0000  lmax=  1
             comment    : Parameterized (Chem.Phys.Lett., vol 322, page 447) Hamman psp
             pseudpotential type            :   0
             highest angular component      :   1
             local potential used           :   1
             number of non-local projections:   1
             aperiodic cutoff radius        :  1.000
             cutoff =   0.800   0.800


 total charge:   0.000

 atomic composition:
     H   :    2

 number of electrons: spin up=     1 (   1 per task)  down=     1 (   1 per task) (Fourier space)
 number of orbitals : spin up=     1 (   1 per task)  down=     1 (   1 per task) (Fourier space)

 supercell:
      cell_name:  cell_default                                      
      lattice:    a1=<  15.000   0.000   0.000 >
                  a2=<   0.000  15.000   0.000 >
                  a3=<   0.000   0.000  15.000 >
      reciprocal: b1=<   0.419   0.000   0.000 >
                  b2=<   0.000   0.419   0.000 >
                  b3=<   0.000   0.000   0.419 >
      lattice:    a=      15.000 b=     15.000 c=      15.000
                  alpha=  90.000 beta=  90.000 gamma=  90.000
                  omega=      3375.0

      density cutoff=100.000  fft= 70x 70x 70(    80618 waves     3359 per task)
      wavefnc cutoff= 50.000  fft= 70x 70x 70(    28526 waves     1188 per task)

 technical parameters:
      time step=      5.80     fictitious mass=  400000.0
      tolerance=0.100E-08 (energy)   0.100E-08 (density)
      maximum iterations =      1000 (   10 inner    100 outer )





== Energy Calculation ==


          ============ Grassmann lmbfgs iteration ============
     >>>  ITERATION STARTED AT Sun Apr  6 20:41:11 2025  <<<
    iter.           Energy         DeltaE       DeltaRho 
    ------------------------------------------------------
      10   -0.7944735739E+00   -0.15219E-02    0.70377E-02
     -  10 steepest descent iterations performed
      20   -0.7996231229E+00   -0.13550E-03    0.59108E-04
      30   -0.7998684612E+00   -0.53581E-05    0.52235E-05
      40   -0.7998850306E+00   -0.27493E-06    0.16182E-06
      50   -0.7998858293E+00   -0.12488E-07    0.65521E-09
      60   -0.7998858667E+00   -0.84002E-09    0.12073E-09
  *** tolerance ok. iteration terminated
     >>>  ITERATION ENDED   AT Sun Apr  6 20:41:17 2025  <<<


==  Summary Of Results  ==

 number of electrons: spin up=    1.00000  down=    1.00000 (real space)

 total     energy    :  -0.7998858667E+00 (   -0.39994E+00/ion)
 total orbital energy:  -0.6195471291E+00 (   -0.61955E+00/electron)
 hartree   energy    :   0.6252660996E+00 (    0.62527E+00/electron)
 exc-corr  energy    :   0.0000000000E+00 (    0.00000E+00/electron)
 HF exchange energy  :  -0.3126330498E+00 (   -0.31263E+00/electron)
 ion-ion   energy    :   0.1322943122E+00 (    0.66147E-01/ion)

 kinetic (planewave) :   0.6191803588E+00 (    0.61918E+00/electron)
 V_local (planewave) :  -0.1716987160E+01 (   -0.17170E+01/electron)
 V_nl    (planewave) :  -0.1470064271E+00 (   -0.14701E+00/electron)
 V_Coul  (planewave) :   0.1250532199E+01 (    0.12505E+01/electron)
 V_xc.   (planewave) :   0.0000000000E+00 (    0.00000E+00/electron)
 K.S. HFX energy     :  -0.6252660996E+00 (   -0.62527E+00/electron)
 Virial Coefficient  :  -0.9907636437E+00

 orbital energies:
    -0.3097736E+00 (  -8.429eV)


== Virtual Orbital Calculation ==


 input epsi filename:./pspw_hf_H2.emovecs

 COVOs Mimimization
 ------------------
CI gradient algorithm =         3
maxit_sweeps          =         3
maxit_orb             =       120
maxit_linesearch      =        15
maxerror              = 0.100E-08

     orb,it,eci,eold,eci-eold=                    1                    1 -0.91764307772855502      -0.91683845487256010       -8.0462285599491867E-004 F
     orb,it,eci,eold,eci-eold=                    1                    2 -0.91780504497538007      -0.91764307772855502       -1.6196724682504549E-004 F
     orb,it,eci,eold,eci-eold=                    1                    3 -0.93411011789613607      -0.91780504497538007       -1.6305072920756003E-002 F
     orb,it,eci,eold,eci-eold=                    1                    4 -0.93594228084446995      -0.93411011789613607       -1.8321629483338819E-003 F
     orb,it,eci,eold,eci-eold=                    1                    5 -0.93607027102232854      -0.93594228084446995       -1.2799017785858346E-004 F
     orb,it,eci,eold,eci-eold=                    1                    6 -0.93996518099177462      -0.93607027102232854       -3.8949099694460809E-003 F
     orb,it,eci,eold,eci-eold=                    1                    7 -0.93999608842985360      -0.93996518099177462       -3.0907438078986438E-005 F
     orb,it,eci,eold,eci-eold=                    1                    8 -0.94046660652300984      -0.93999608842985360       -4.7051809315623583E-004 F
     orb,it,eci,eold,eci-eold=                    1                    9 -0.94466511259119146      -0.94046660652300984       -4.1985060681816178E-003 F
     orb,it,eci,eold,eci-eold=                    1                   10 -0.94759832639963415      -0.94466511259119146       -2.9332138084426918E-003 F
     orb,it,eci,eold,eci-eold=                    1                   11 -0.95046927179644125      -0.94759832639963415       -2.8709453968071008E-003 F
     orb,it,eci,eold,eci-eold=                    1                   12 -0.95397902775531851      -0.95046927179644125       -3.5097559588772587E-003 F
     orb,it,eci,eold,eci-eold=                    1                   13 -0.95542629397281564      -0.95397902775531851       -1.4472662174971340E-003 F
     orb,it,eci,eold,eci-eold=                    1                   14 -0.95870280860536305      -0.95542629397281564       -3.2765146325474115E-003 F
     orb,it,eci,eold,eci-eold=                    1                   15 -0.95999931233303182      -0.95870280860536305       -1.2965037276687630E-003 F
     orb,it,eci,eold,eci-eold=                    1                   16 -0.96093255027530255      -0.95999931233303182       -9.3323794227073709E-004 F
     orb,it,eci,eold,eci-eold=                    1                   17 -0.96291883898562158      -0.96093255027530255       -1.9862887103190285E-003 F
     orb,it,eci,eold,eci-eold=                    1                   18 -0.96422749465410251      -0.96291883898562158       -1.3086556684809292E-003 F
     orb,it,eci,eold,eci-eold=                    1                   19 -0.96641110947976228      -0.96422749465410251       -2.1836148256597632E-003 F
     orb,it,eci,eold,eci-eold=                    1                   20 -0.96677082628948741      -0.96641110947976228       -3.5971680972513020E-004 F
     orb,it,eci,eold,eci-eold=                    1                   21 -0.96703768751807828      -0.96677082628948741       -2.6686122859087558E-004 F
     orb,it,eci,eold,eci-eold=                    1                   22 -0.96818579819924144      -0.96703768751807828       -1.1481106811631614E-003 F
     orb,it,eci,eold,eci-eold=                    1                   23 -0.96848412965650132      -0.96818579819924144       -2.9833145725988164E-004 F
     orb,it,eci,eold,eci-eold=                    1                   24 -0.96884802145861137      -0.96848412965650132       -3.6389180211005012E-004 F
     orb,it,eci,eold,eci-eold=                    1                   25 -0.97046135291134361      -0.96884802145861137       -1.6133314527322362E-003 F
     orb,it,eci,eold,eci-eold=                    1                   26 -0.97062787756557301      -0.97046135291134361       -1.6652465422939411E-004 F
     orb,it,eci,eold,eci-eold=                    1                   27 -0.97065828179870628      -0.97062787756557301       -3.0404233133274339E-005 F
     orb,it,eci,eold,eci-eold=                    1                   28 -0.97175201901283237      -0.97065828179870628       -1.0937372141260893E-003 F
     orb,it,eci,eold,eci-eold=                    1                   29 -0.97203951506579822      -0.97175201901283237       -2.8749605296585212E-004 F
     orb,it,eci,eold,eci-eold=                    1                   30 -0.97210747405623710      -0.97203951506579822       -6.7958990438876654E-005 F
     orb,it,eci,eold,eci-eold=                    1                   31 -0.97288500312919446      -0.97210747405623710       -7.7752907295736140E-004 F
     orb,it,eci,eold,eci-eold=                    1                   32 -0.97305318238708005      -0.97288500312919446       -1.6817925788559229E-004 F
     orb,it,eci,eold,eci-eold=                    1                   33 -0.97310505963131666      -0.97305318238708005       -5.1877244236608888E-005 F
     orb,it,eci,eold,eci-eold=                    1                   34 -0.97379022127253356      -0.97310505963131666       -6.8516164121690259E-004 F
     orb,it,eci,eold,eci-eold=                    1                   35 -0.97388272846613255      -0.97379022127253356       -9.2507193598989623E-005 F
     orb,it,eci,eold,eci-eold=                    1                   36 -0.97389551354765114      -0.97388272846613255       -1.2785081518584818E-005 F
     orb,it,eci,eold,eci-eold=                    1                   37 -0.97428325966519225      -0.97389551354765114       -3.8774611754111010E-004 F
     orb,it,eci,eold,eci-eold=                    1                   38 -0.97438736258689784      -0.97428325966519225       -1.0410292170559554E-004 F
     orb,it,eci,eold,eci-eold=                    1                   39 -0.97439674556997480      -0.97438736258689784       -9.3829830769553979E-006 F
     orb,it,eci,eold,eci-eold=                    1                   40 -0.97470904423798399      -0.97439674556997480       -3.1229866800919215E-004 F
     orb,it,eci,eold,eci-eold=                    1                   41 -0.97493560905882681      -0.97470904423798399       -2.2656482084282281E-004 F
     orb,it,eci,eold,eci-eold=                    1                   42 -0.97503129626058771      -0.97493560905882681       -9.5687201760896734E-005 F
     orb,it,eci,eold,eci-eold=                    1                   43 -0.97528801636597073      -0.97503129626058771       -2.5672010538302370E-004 F
     orb,it,eci,eold,eci-eold=                    1                   44 -0.97530153389792440      -0.97528801636597073       -1.3517531953666229E-005 F
     orb,it,eci,eold,eci-eold=                    1                   45 -0.97531171905603398      -0.97530153389792440       -1.0185158109576875E-005 F
     orb,it,eci,eold,eci-eold=                    1                   46 -0.97553020132345991      -0.97531171905603398       -2.1848226742593457E-004 F
     orb,it,eci,eold,eci-eold=                    1                   47 -0.97565601271216873      -0.97553020132345991       -1.2581138870881858E-004 F
     orb,it,eci,eold,eci-eold=                    1                   48 -0.97569445291770429      -0.97565601271216873       -3.8440205535561489E-005 F
     orb,it,eci,eold,eci-eold=                    1                   49 -0.97586249553395943      -0.97569445291770429       -1.6804261625513739E-004 F
     orb,it,eci,eold,eci-eold=                    1                   50 -0.97589435252807966      -0.97586249553395943       -3.1856994120227355E-005 F
     orb,it,eci,eold,eci-eold=                    1                   51 -0.97590196985269240      -0.97589435252807966       -7.6173246127408945E-006 F
     orb,it,eci,eold,eci-eold=                    1                   52 -0.97604713353205352      -0.97590196985269240       -1.4516367936112662E-004 F
     orb,it,eci,eold,eci-eold=                    1                   53 -0.97612064972392654      -0.97604713353205352       -7.3516191873013170E-005 F
     orb,it,eci,eold,eci-eold=                    1                   54 -0.97613613395691445      -0.97612064972392654       -1.5484232987916791E-005 F
     orb,it,eci,eold,eci-eold=                    1                   55 -0.97624371286650524      -0.97613613395691445       -1.0757890959078864E-004 F
     orb,it,eci,eold,eci-eold=                    1                   56 -0.97627905889401423      -0.97624371286650524       -3.5346027508986744E-005 F
     orb,it,eci,eold,eci-eold=                    1                   57 -0.97628794182902312      -0.97627905889401423       -8.8829350088914794E-006 F
     orb,it,eci,eold,eci-eold=                    1                   58 -0.97637835154087194      -0.97628794182902312       -9.0409711848815633E-005 F
     orb,it,eci,eold,eci-eold=                    1                   59 -0.97642168968923360      -0.97637835154087194       -4.3338148361660167E-005 F
     orb,it,eci,eold,eci-eold=                    1                   60 -0.97643353101980068      -0.97642168968923360       -1.1841330567086139E-005 F
     orb,it,eci,eold,eci-eold=                    1                   61 -0.97650094731429626      -0.97643353101980068       -6.7416294495581397E-005 F
     orb,it,eci,eold,eci-eold=                    1                   62 -0.97652592396069271      -0.97650094731429626       -2.4976646396446256E-005 F
     orb,it,eci,eold,eci-eold=                    1                   63 -0.97653550639444753      -0.97652592396069271       -9.5824337548178207E-006 F
     orb,it,eci,eold,eci-eold=                    1                   64 -0.97659181119426353      -0.97653550639444753       -5.6304799815998230E-005 F
     orb,it,eci,eold,eci-eold=                    1                   65 -0.97662009238754033      -0.97659181119426353       -2.8281193276802341E-005 F
     orb,it,eci,eold,eci-eold=                    1                   66 -0.97663300423290256      -0.97662009238754033       -1.2911845362229002E-005 F
     orb,it,eci,eold,eci-eold=                    1                   67 -0.97667754982499100      -0.97663300423290256       -4.4545592088440777E-005 F
     orb,it,eci,eold,eci-eold=                    1                   68 -0.97668091198911866      -0.97667754982499100       -3.3621641276626590E-006 F
     orb,it,eci,eold,eci-eold=                    1                   69 -0.97668105710334008      -0.97668091198911866       -1.4511422141705310E-007 F
     orb,it,eci,eold,eci-eold=                    1                   70 -0.97671312101721020      -0.97668105710334008       -3.2063913870117311E-005 F
     orb,it,eci,eold,eci-eold=                    1                   71 -0.97672939377326040      -0.97671312101721020       -1.6272756050206283E-005 F
     orb,it,eci,eold,eci-eold=                    1                   72 -0.97673422050448122      -0.97672939377326040       -4.8267312208194468E-006 F
     orb,it,eci,eold,eci-eold=                    1                   73 -0.97676184158981738      -0.97673422050448122       -2.7621085336160256E-005 F
     orb,it,eci,eold,eci-eold=                    1                   74 -0.97676854265160273      -0.97676184158981738       -6.7010617853524579E-006 F
     orb,it,eci,eold,eci-eold=                    1                   75 -0.97676884310887235      -0.97676854265160273       -3.0045726961969166E-007 F
     orb,it,eci,eold,eci-eold=                    1                   76 -0.97679006233738530      -0.97676884310887235       -2.1219228512947552E-005 F
     orb,it,eci,eold,eci-eold=                    1                   77 -0.97680260423624510      -0.97679006233738530       -1.2541898859796952E-005 F
     orb,it,eci,eold,eci-eold=                    1                   78 -0.97680597023129612      -0.97680260423624510       -3.3659950510189773E-006 F
     orb,it,eci,eold,eci-eold=                    1                   79 -0.97682356970306117      -0.97680597023129612       -1.7599471765050723E-005 F
     orb,it,eci,eold,eci-eold=                    1                   80 -0.97683037602299039      -0.97682356970306117       -6.8063199292200949E-006 F
     orb,it,eci,eold,eci-eold=                    1                   81 -0.97683259428946800      -0.97683037602299039       -2.2182664776160266E-006 F
     orb,it,eci,eold,eci-eold=                    1                   82 -0.97684751768195888      -0.97683259428946800       -1.4923392490873155E-005 F
     orb,it,eci,eold,eci-eold=                    1                   83 -0.97685475731455951      -0.97684751768195888       -7.2396326006307632E-006 F
     orb,it,eci,eold,eci-eold=                    1                   84 -0.97685750799471904      -0.97685475731455951       -2.7506801595356123E-006 F
     orb,it,eci,eold,eci-eold=                    1                   85 -0.97687066065881567      -0.97685750799471904       -1.3152664096627298E-005 F
     orb,it,eci,eold,eci-eold=                    1                   86 -0.97687417023959178      -0.97687066065881567       -3.5095807761065245E-006 F
     orb,it,eci,eold,eci-eold=                    1                   87 -0.97687473820640414      -0.97687417023959178       -5.6796681235926627E-007 F
     orb,it,eci,eold,eci-eold=                    1                   88 -0.97688479011657536      -0.97687473820640414       -1.0051910171227085E-005 F
     orb,it,eci,eold,eci-eold=                    1                   89 -0.97688996260130068      -0.97688479011657536       -5.1724847253131756E-006 F
     orb,it,eci,eold,eci-eold=                    1                   90 -0.97689140201094848      -0.97688996260130068       -1.4394096478076435E-006 F
     orb,it,eci,eold,eci-eold=                    1                   91 -0.97689959489907696      -0.97689140201094848       -8.1928881284776267E-006 F
     orb,it,eci,eold,eci-eold=                    1                   92 -0.97690158605575084      -0.97689959489907696       -1.9911566738750608E-006 F
     orb,it,eci,eold,eci-eold=                    1                   93 -0.97690179086925177      -0.97690158605575084       -2.0481350093692896E-007 F
     orb,it,eci,eold,eci-eold=                    1                   94 -0.97690821533091721      -0.97690179086925177       -6.4244616654329789E-006 F
     orb,it,eci,eold,eci-eold=                    1                   95 -0.97691139897321921      -0.97690821533091721       -3.1836423020070725E-006 F
     orb,it,eci,eold,eci-eold=                    1                   96 -0.97691208670993346      -0.97691139897321921       -6.8773671424438021E-007 F
     orb,it,eci,eold,eci-eold=                    1                   97 -0.97691716301479548      -0.97691208670993346       -5.0763048620172668E-006 F
     orb,it,eci,eold,eci-eold=                    1                   98 -0.97691899581674124      -0.97691716301479548       -1.8328019457669598E-006 F
     orb,it,eci,eold,eci-eold=                    1                   99 -0.97691936620534348      -0.97691899581674124       -3.7038860223326253E-007 F
     orb,it,eci,eold,eci-eold=                    1                  100 -0.97692308618457246      -0.97691936620534348       -3.7199792289888123E-006 F
     orb,it,eci,eold,eci-eold=                    1                  101 -0.97692453976304283      -0.97692308618457246       -1.4535784703673116E-006 F
     orb,it,eci,eold,eci-eold=                    1                  102 -0.97692494528328711      -0.97692453976304283       -4.0552024427320532E-007 F
     orb,it,eci,eold,eci-eold=                    1                  103 -0.97692788368110794      -0.97692494528328711       -2.9383978208397110E-006 F
     orb,it,eci,eold,eci-eold=                    1                  104 -0.97692911649990710      -0.97692788368110794       -1.2328187991572648E-006 F
     orb,it,eci,eold,eci-eold=                    1                  105 -0.97692956444492185      -0.97692911649990710       -4.4794501474765269E-007 F
     orb,it,eci,eold,eci-eold=                    1                  106 -0.97693199462008595      -0.97692956444492185       -2.4301751641031544E-006 F
     orb,it,eci,eold,eci-eold=                    1                  107 -0.97693290642590580      -0.97693199462008595       -9.1180581984762199E-007 F
     orb,it,eci,eold,eci-eold=                    1                  108 -0.97693326907969902      -0.97693290642590580       -3.6265379321775981E-007 F
     orb,it,eci,eold,eci-eold=                    1                  109 -0.97693542961029223      -0.97693326907969902       -2.1605305932093088E-006 F
     orb,it,eci,eold,eci-eold=                    1                  110 -0.97693617844205050      -0.97693542961029223       -7.4883175826823134E-007 F
     orb,it,eci,eold,eci-eold=                    1                  111 -0.97693635303114879      -0.97693617844205050       -1.7458909828960145E-007 F
     orb,it,eci,eold,eci-eold=                    1                  112 -0.97693808613643907      -0.97693635303114879       -1.7331052902802568E-006 F
     orb,it,eci,eold,eci-eold=                    1                  113 -0.97693880378570841      -0.97693808613643907       -7.1764926934392292E-007 F
     orb,it,eci,eold,eci-eold=                    1                  114 -0.97693894985342045      -0.97693880378570841       -1.4606771203684588E-007 F
     orb,it,eci,eold,eci-eold=                    1                  115 -0.97694032770776640      -0.97693894985342045       -1.3778543459519454E-006 F
     orb,it,eci,eold,eci-eold=                    1                  116 -0.97694090545780199      -0.97694032770776640       -5.7775003559079607E-007 F
     orb,it,eci,eold,eci-eold=                    1                  117 -0.97694104036665186      -0.97694090545780199       -1.3490884986921969E-007 F
     orb,it,eci,eold,eci-eold=                    1                  118 -0.97694212675419367      -0.97694104036665186       -1.0863875418154478E-006 F
     orb,it,eci,eold,eci-eold=                    1                  119 -0.97694249739511418      -0.97694212675419367       -3.7064092051064534E-007 F
     orb,it,eci,eold,eci-eold=                    1                  120 -0.97694256390978862      -0.97694249739511418       -6.6514674434969834E-008 F
     orb,it,eci,eold,eci-eold=                    1                  121 -0.97694339489920889      -0.97694256390978862       -8.3098942027515221E-007 F
     orbital   1 current e= -0.150578E+00 error=0.646E-01 (eci= -0.976943395E+00 error=0.831E-06) iterations 121(   0 preconditioned, Ep,Sp= 20.0  200.0)
     orb,it,eci,eold,eci-eold=                    1                    1 -0.97694577243300396      -0.97694339489920889       -2.3775337950615594E-006 F
     orb,it,eci,eold,eci-eold=                    1                    2 -0.97694640119216847      -0.97694577243300396       -6.2875916451154978E-007 F
     orb,it,eci,eold,eci-eold=                    1                    3 -0.97694642414857691      -0.97694640119216847       -2.2956408440855114E-008 F
     orb,it,eci,eold,eci-eold=                    1                    4 -0.97694701662140826      -0.97694642414857691       -5.9247283135110962E-007 F
     orb,it,eci,eold,eci-eold=                    1                    5 -0.97694768380977592      -0.97694701662140826       -6.6718836766455070E-007 F
     orb,it,eci,eold,eci-eold=                    1                    6 -0.97694800840200446      -0.97694768380977592       -3.2459222853997716E-007 F
     orb,it,eci,eold,eci-eold=                    1                    7 -0.97694809579203135      -0.97694800840200446       -8.7390026881628557E-008 F
     orb,it,eci,eold,eci-eold=                    1                    8 -0.97694811053816888      -0.97694809579203135       -1.4746137533272474E-008 F
     orb,it,eci,eold,eci-eold=                    1                    9 -0.97694826709352778      -0.97694811053816888       -1.5655535889891325E-007 F
     orb,it,eci,eold,eci-eold=                    1                   10 -0.97694830554358048      -0.97694826709352778       -3.8450052697314163E-008 F
     orb,it,eci,eold,eci-eold=                    1                   11 -0.97694835408660485      -0.97694830554358048       -4.8543024377956101E-008 F
     orb,it,eci,eold,eci-eold=                    1                   12 -0.97694844736339714      -0.97694835408660485       -9.3276792290097887E-008 F
     orb,it,eci,eold,eci-eold=                    1                   13 -0.97694846323918172      -0.97694844736339714       -1.5875784575847263E-008 F
     orb,it,eci,eold,eci-eold=                    1                   14 -0.97694850728321780      -0.97694846323918172       -4.4044036084933680E-008 F
     orb,it,eci,eold,eci-eold=                    1                   15 -0.97694858941874940      -0.97694850728321780       -8.2135531598304112E-008 F
     orb,it,eci,eold,eci-eold=                    1                   16 -0.97694862850065212      -0.97694858941874940       -3.9081902714066530E-008 F
     orb,it,eci,eold,eci-eold=                    1                   17 -0.97694866488381971      -0.97694862850065212       -3.6383167589804088E-008 F
     orb,it,eci,eold,eci-eold=                    1                   18 -0.97694868575149996      -0.97694866488381971       -2.0867680250447052E-008 F
     orb,it,eci,eold,eci-eold=                    1                   19 -0.97694872421214685      -0.97694868575149996       -3.8460646889504346E-008 F
     orb,it,eci,eold,eci-eold=                    1                   20 -0.97694874307632207      -0.97694872421214685       -1.8864175221899870E-008 F
     orb,it,eci,eold,eci-eold=                    1                   21 -0.97694876041933365      -0.97694874307632207       -1.7343011582404699E-008 F
     orb,it,eci,eold,eci-eold=                    1                   22 -0.97694877070451713      -0.97694876041933365       -1.0285183482672267E-008 F
     orb,it,eci,eold,eci-eold=                    1                   23 -0.97694878260569007      -0.97694877070451713       -1.1901172936035209E-008 F
     orb,it,eci,eold,eci-eold=                    1                   24 -0.97694878790579120      -0.97694878260569007       -5.3001011357522998E-009 F
     orb,it,eci,eold,eci-eold=                    1                   25 -0.97694879816329039      -0.97694878790579120       -1.0257499183374819E-008 F
     orb,it,eci,eold,eci-eold=                    1                   26 -0.97694879889685171      -0.97694879816329039       -7.3356132279656094E-010 F
     orbital   1 current e= -0.150586E+00 error=0.799E-05 (eci= -0.976948799E+00 error=0.734E-09) iterations  26(   0 preconditioned, Ep,Sp= 20.0  200.0)
     orb,it,eci,eold,eci-eold=                    1                    1 -0.97694881406700662      -0.97694879889685171       -1.5170154910038036E-008 F
     orb,it,eci,eold,eci-eold=                    1                    2 -0.97694881406700662      -0.97694881406700662        0.0000000000000000      F
     orbital   1 current e= -0.150586E+00 error=0.293E-07 (eci= -0.976948814E+00 error=0.000E+00) iterations   2(   0 preconditioned, Ep,Sp= 20.0  200.0)
     orb,it,eci,eold,eci-eold=                    2                    1 -0.80341370550820890      -0.80290595560609801       -5.0774990211088777E-004 F
     orb,it,eci,eold,eci-eold=                    2                    2 -0.80343527087120281      -0.80341370550820890       -2.1565362993913872E-005 F
     orb,it,eci,eold,eci-eold=                    2                    3 -0.80345223599515248      -0.80343527087120281       -1.6965123949663763E-005 F
     orb,it,eci,eold,eci-eold=                    2                    4 -0.80356663545078300      -0.80345223599515248       -1.1439945563052056E-004 F
     orb,it,eci,eold,eci-eold=                    2                    5 -0.80365806316713029      -0.80356663545078300       -9.1427716347292076E-005 F
     orb,it,eci,eold,eci-eold=                    2                    6 -0.80366213492424676      -0.80365806316713029       -4.0717571164750055E-006 F
     orb,it,eci,eold,eci-eold=                    2                    7 -0.80366335939976374      -0.80366213492424676       -1.2244755169810162E-006 F
     orb,it,eci,eold,eci-eold=                    2                    8 -0.80371119803359292      -0.80366335939976374       -4.7838633829178079E-005 F
     orb,it,eci,eold,eci-eold=                    2                    9 -0.80377033906514006      -0.80371119803359292       -5.9141031547138567E-005 F
     orb,it,eci,eold,eci-eold=                    2                   10 -0.80381997593531374      -0.80377033906514006       -4.9636870173674907E-005 F
     orb,it,eci,eold,eci-eold=                    2                   11 -0.80383882759668634      -0.80381997593531374       -1.8851661372609740E-005 F
     orb,it,eci,eold,eci-eold=                    2                   12 -0.80385157405472996      -0.80383882759668634       -1.2746458043610964E-005 F
     orb,it,eci,eold,eci-eold=                    2                   13 -0.80392095798431140      -0.80385157405472996       -6.9383929581445791E-005 F
     orb,it,eci,eold,eci-eold=                    2                   14 -0.80395956678894265      -0.80392095798431140       -3.8608804631246052E-005 F
     orb,it,eci,eold,eci-eold=                    2                   15 -0.80398389137498349      -0.80395956678894265       -2.4324586040846974E-005 F
     orb,it,eci,eold,eci-eold=                    2                   16 -0.80399902183534189      -0.80398389137498349       -1.5130460358392384E-005 F
     orb,it,eci,eold,eci-eold=                    2                   17 -0.80403731218883689      -0.80399902183534189       -3.8290353495007423E-005 F
     orb,it,eci,eold,eci-eold=                    2                   18 -0.80405720041986550      -0.80403731218883689       -1.9888231028608594E-005 F
     orb,it,eci,eold,eci-eold=                    2                   19 -0.80407099071739385      -0.80405720041986550       -1.3790297528348816E-005 F
     orb,it,eci,eold,eci-eold=                    2                   20 -0.80407865369021869      -0.80407099071739385       -7.6629728248400752E-006 F
     orb,it,eci,eold,eci-eold=                    2                   21 -0.80410100247569583      -0.80407865369021869       -2.2348785477133148E-005 F
     orb,it,eci,eold,eci-eold=                    2                   22 -0.80411332130507396      -0.80410100247569583       -1.2318829378132889E-005 F
     orb,it,eci,eold,eci-eold=                    2                   23 -0.80411923146243014      -0.80411332130507396       -5.9101573561815002E-006 F
     orb,it,eci,eold,eci-eold=                    2                   24 -0.80412168592421251      -0.80411923146243014       -2.4544617823751835E-006 F
     orb,it,eci,eold,eci-eold=                    2                   25 -0.80413357580089007      -0.80412168592421251       -1.1889876677551037E-005 F
     orb,it,eci,eold,eci-eold=                    2                   26 -0.80413428797816544      -0.80413357580089007       -7.1217727537487008E-007 F
     orb,it,eci,eold,eci-eold=                    2                   27 -0.80413441291768839      -0.80413428797816544       -1.2493952294967414E-007 F
     orb,it,eci,eold,eci-eold=                    2                   28 -0.80414201410551833      -0.80413441291768839       -7.6011878299420133E-006 F
     orb,it,eci,eold,eci-eold=                    2                   29 -0.80414264169690386      -0.80414201410551833       -6.2759138552692662E-007 F
     orb,it,eci,eold,eci-eold=                    2                   30 -0.80414303910927698      -0.80414264169690386       -3.9741237312096445E-007 F
     orb,it,eci,eold,eci-eold=                    2                   31 -0.80414953785337029      -0.80414303910927698       -6.4987440933084173E-006 F
     orb,it,eci,eold,eci-eold=                    2                   32 -0.80415323780753067      -0.80414953785337029       -3.6999541603854880E-006 F
     orb,it,eci,eold,eci-eold=                    2                   33 -0.80415623206944042      -0.80415323780753067       -2.9942619097500511E-006 F
     orb,it,eci,eold,eci-eold=                    2                   34 -0.80415779569945556      -0.80415623206944042       -1.5636300151333771E-006 F
     orb,it,eci,eold,eci-eold=                    2                   35 -0.80416094277739436      -0.80415779569945556       -3.1470779388032000E-006 F
     orb,it,eci,eold,eci-eold=                    2                   36 -0.80416281129165768      -0.80416094277739436       -1.8685142633145801E-006 F
     orb,it,eci,eold,eci-eold=                    2                   37 -0.80416509885591225      -0.80416281129165768       -2.2875642545772124E-006 F
     orb,it,eci,eold,eci-eold=                    2                   38 -0.80416638598630041      -0.80416509885591225       -1.2871303881611951E-006 F
     orb,it,eci,eold,eci-eold=                    2                   39 -0.80416832583975806      -0.80416638598630041       -1.9398534576442472E-006 F
     orb,it,eci,eold,eci-eold=                    2                   40 -0.80416935719540728      -0.80416832583975806       -1.0313556492169695E-006 F
     orb,it,eci,eold,eci-eold=                    2                   41 -0.80417088454803132      -0.80416935719540728       -1.5273526240422441E-006 F
     orb,it,eci,eold,eci-eold=                    2                   42 -0.80417179432611219      -0.80417088454803132       -9.0977808087089329E-007 F
     orb,it,eci,eold,eci-eold=                    2                   43 -0.80417291892514919      -0.80417179432611219       -1.1245990370056802E-006 F
     orb,it,eci,eold,eci-eold=                    2                   44 -0.80417347113257809      -0.80417291892514919       -5.5220742889439123E-007 F
     orb,it,eci,eold,eci-eold=                    2                   45 -0.80417438447278866      -0.80417347113257809       -9.1334021057321024E-007 F
     orb,it,eci,eold,eci-eold=                    2                   46 -0.80417491795095297      -0.80417438447278866       -5.3347816431070783E-007 F
     orb,it,eci,eold,eci-eold=                    2                   47 -0.80417555905238847      -0.80417491795095297       -6.4110143549456211E-007 F
     orb,it,eci,eold,eci-eold=                    2                   48 -0.80417591123927812      -0.80417555905238847       -3.5218688965166223E-007 F
     orb,it,eci,eold,eci-eold=                    2                   49 -0.80417649065647345      -0.80417591123927812       -5.7941719533438629E-007 F
     orb,it,eci,eold,eci-eold=                    2                   50 -0.80417677895221762      -0.80417649065647345       -2.8829574416633363E-007 F
     orb,it,eci,eold,eci-eold=                    2                   51 -0.80417707441639474      -0.80417677895221762       -2.9546417712467132E-007 F
     orb,it,eci,eold,eci-eold=                    2                   52 -0.80417725536717777      -0.80417707441639474       -1.8095078302415857E-007 F
     orb,it,eci,eold,eci-eold=                    2                   53 -0.80417763069147485      -0.80417725536717777       -3.7532429708608817E-007 F
     orb,it,eci,eold,eci-eold=                    2                   54 -0.80417783395434395      -0.80417763069147485       -2.0326286909178037E-007 F
     orb,it,eci,eold,eci-eold=                    2                   55 -0.80417800287030961      -0.80417783395434395       -1.6891596565926648E-007 F
     orb,it,eci,eold,eci-eold=                    2                   56 -0.80417808621743503      -0.80417800287030961       -8.3347125423571811E-008 F
     orb,it,eci,eold,eci-eold=                    2                   57 -0.80417829133475893      -0.80417808621743503       -2.0511732390371407E-007 F
     orb,it,eci,eold,eci-eold=                    2                   58 -0.80417831463258382      -0.80417829133475893       -2.3297824891521657E-008 F
     orb,it,eci,eold,eci-eold=                    2                   59 -0.80417832128727718      -0.80417831463258382       -6.6546933519262552E-009 F
     orb,it,eci,eold,eci-eold=                    2                   60 -0.80417845926397513      -0.80417832128727718       -1.3797669795589940E-007 F
     orb,it,eci,eold,eci-eold=                    2                   61 -0.80417853561955388      -0.80417845926397513       -7.6355578748632524E-008 F
     orb,it,eci,eold,eci-eold=                    2                   62 -0.80417856730912840      -0.80417853561955388       -3.1689574520044062E-008 F
     orb,it,eci,eold,eci-eold=                    2                   63 -0.80417870526067636      -0.80417856730912840       -1.3795154796270026E-007 F
     orb,it,eci,eold,eci-eold=                    2                   64 -0.80417874640159637      -0.80417870526067636       -4.1140920004067993E-008 F
     orb,it,eci,eold,eci-eold=                    2                   65 -0.80417875106204917      -0.80417874640159637       -4.6604528014526636E-009 F
     orb,it,eci,eold,eci-eold=                    2                   66 -0.80417883094614984      -0.80417875106204917       -7.9884100667726443E-008 F
     orb,it,eci,eold,eci-eold=                    2                   67 -0.80417886210441769      -0.80417883094614984       -3.1158267854713984E-008 F
     orb,it,eci,eold,eci-eold=                    2                   68 -0.80417887308323421      -0.80417886210441769       -1.0978816522566603E-008 F
     orb,it,eci,eold,eci-eold=                    2                   69 -0.80417893878127078      -0.80417887308323421       -6.5698036566530504E-008 F
     orb,it,eci,eold,eci-eold=                    2                   70 -0.80417896137844513      -0.80417893878127078       -2.2597174353933269E-008 F
     orb,it,eci,eold,eci-eold=                    2                   71 -0.80417897051855669      -0.80417896137844513       -9.1401115565048485E-009 F
     orb,it,eci,eold,eci-eold=                    2                   72 -0.80417902888237058      -0.80417897051855669       -5.8363813892903238E-008 F
     orb,it,eci,eold,eci-eold=                    2                   73 -0.80417904865758694      -0.80417902888237058       -1.9775216353323799E-008 F
     orb,it,eci,eold,eci-eold=                    2                   74 -0.80417905221990327      -0.80417904865758694       -3.5623163308073913E-009 F
     orb,it,eci,eold,eci-eold=                    2                   75 -0.80417909567077606      -0.80417905221990327       -4.3450872788675099E-008 F
     orb,it,eci,eold,eci-eold=                    2                   76 -0.80417912170675643      -0.80417909567077606       -2.6035980371652556E-008 F
     orb,it,eci,eold,eci-eold=                    2                   77 -0.80417913282316977      -0.80417912170675643       -1.1116413345391152E-008 F
     orb,it,eci,eold,eci-eold=                    2                   78 -0.80417917594465771      -0.80417913282316977       -4.3121487935948721E-008 F
     orb,it,eci,eold,eci-eold=                    2                   79 -0.80417918654715237      -0.80417917594465771       -1.0602494660005846E-008 F
     orb,it,eci,eold,eci-eold=                    2                   80 -0.80417918792411136      -0.80417918654715237       -1.3769589912726587E-009 F
     orb,it,eci,eold,eci-eold=                    2                   81 -0.80417921854137742      -0.80417918792411136       -3.0617266055799064E-008 F
     orb,it,eci,eold,eci-eold=                    2                   82 -0.80417923656718238      -0.80417921854137742       -1.8025804959798108E-008 F
     orb,it,eci,eold,eci-eold=                    2                   83 -0.80417924323988887      -0.80417923656718238       -6.6727064984561935E-009 F
     orb,it,eci,eold,eci-eold=                    2                   84 -0.80417927260522593      -0.80417924323988887       -2.9365337050890616E-008 F
     orb,it,eci,eold,eci-eold=                    2                   85 -0.80417928050231580      -0.80417927260522593       -7.8970898709229687E-009 F
     orb,it,eci,eold,eci-eold=                    2                   86 -0.80417928165828767      -0.80417928050231580       -1.1559718737785829E-009 F
     orb,it,eci,eold,eci-eold=                    2                   87 -0.80417930423586648      -0.80417928165828767       -2.2577578806526333E-008 F
     orb,it,eci,eold,eci-eold=                    2                   88 -0.80417931608291782      -0.80417930423586648       -1.1847051339941572E-008 F
     orb,it,eci,eold,eci-eold=                    2                   89 -0.80417931885711891      -0.80417931608291782       -2.7742010910714043E-009 F
     orb,it,eci,eold,eci-eold=                    2                   90 -0.80417933672312214      -0.80417931885711891       -1.7866003232391847E-008 F
     orb,it,eci,eold,eci-eold=                    2                   91 -0.80417934441690031      -0.80417933672312214       -7.6937781701147401E-009 F
     orb,it,eci,eold,eci-eold=                    2                   92 -0.80417934713731321      -0.80417934441690031       -2.7204128949520623E-009 F
     orb,it,eci,eold,eci-eold=                    2                   93 -0.80417936291650960      -0.80417934713731321       -1.5779196393950201E-008 F
     orb,it,eci,eold,eci-eold=                    2                   94 -0.80417936781110377      -0.80417936291650960       -4.8945941744094057E-009 F
     orb,it,eci,eold,eci-eold=                    2                   95 -0.80417936830878078      -0.80417936781110377       -4.9767701071345982E-010 F
     orbital   2 current e=  0.335807E+00 error=0.103E+00 (eci= -0.804179368E+00 error=0.498E-09) iterations  95(   0 preconditioned, Ep,Sp= 20.0  200.0)
     orb,it,eci,eold,eci-eold=                    2                    1 -0.80417938726744942      -0.80417936830878078       -1.8958668634994069E-008 F
     orb,it,eci,eold,eci-eold=                    2                    2 -0.80417938726744942      -0.80417938726744942        0.0000000000000000      F
     orbital   2 current e=  0.335792E+00 error=0.152E-04 (eci= -0.804179387E+00 error=0.000E+00) iterations   2(   0 preconditioned, Ep,Sp= 20.0  200.0)
     orb,it,eci,eold,eci-eold=                    2                    1 -0.80417942297236888      -0.80417938671429479       -3.6258074098682869E-008 F
     orb,it,eci,eold,eci-eold=                    2                    2 -0.80417943768353339      -0.80417942297236888       -1.4711164508796060E-008 F
     orb,it,eci,eold,eci-eold=                    2                    3 -0.80417944116947881      -0.80417943768353339       -3.4859454212110563E-009 F
     orb,it,eci,eold,eci-eold=                    2                    4 -0.80417944410852216      -0.80417944116947881       -2.9390433420317663E-009 F
     orb,it,eci,eold,eci-eold=                    2                    5 -0.80417945281335801      -0.80417944410852216       -8.7048358521357727E-009 F
     orb,it,eci,eold,eci-eold=                    2                    6 -0.80417945720658035      -0.80417945281335801       -4.3932223414699934E-009 F
     orb,it,eci,eold,eci-eold=                    2                    7 -0.80417945720658035      -0.80417945720658035        0.0000000000000000      F
     orbital   2 current e=  0.335757E+00 error=0.353E-04 (eci= -0.804179457E+00 error=0.000E+00) iterations   7(   0 preconditioned, Ep,Sp= 20.0  200.0)
     orb,it,eci,eold,eci-eold=                    3                    1 -0.80170972498125836      -0.80161278515708401       -9.6939824174357980E-005 F
     orb,it,eci,eold,eci-eold=                    3                    2 -0.80173970076036571      -0.80170972498125836       -2.9975779107349609E-005 F
     orb,it,eci,eold,eci-eold=                    3                    3 -0.80176249036212988      -0.80173970076036571       -2.2789601764161560E-005 F
     orb,it,eci,eold,eci-eold=                    3                    4 -0.80177817134252116      -0.80176249036212988       -1.5680980391286070E-005 F
     orb,it,eci,eold,eci-eold=                    3                    5 -0.80184448032665578      -0.80177817134252116       -6.6308984134622051E-005 F
     orb,it,eci,eold,eci-eold=                    3                    6 -0.80187921291999442      -0.80184448032665578       -3.4732593338637763E-005 F
     orb,it,eci,eold,eci-eold=                    3                    7 -0.80190168843456877      -0.80187921291999442       -2.2475514574349376E-005 F
     orb,it,eci,eold,eci-eold=                    3                    8 -0.80191613305573206      -0.80190168843456877       -1.4444621163289817E-005 F
     orb,it,eci,eold,eci-eold=                    3                    9 -0.80194633654925984      -0.80191613305573206       -3.0203493527780623E-005 F
     orb,it,eci,eold,eci-eold=                    3                   10 -0.80196269566978773      -0.80194633654925984       -1.6359120527886795E-005 F
     orb,it,eci,eold,eci-eold=                    3                   11 -0.80197925693825822      -0.80196269566978773       -1.6561268470494106E-005 F
     orb,it,eci,eold,eci-eold=                    3                   12 -0.80198859350733298      -0.80197925693825822       -9.3365690747582164E-006 F
     orb,it,eci,eold,eci-eold=                    3                   13 -0.80200661489649128      -0.80198859350733298       -1.8021389158295875E-005 F
     orb,it,eci,eold,eci-eold=                    3                   14 -0.80200663628213498      -0.80200661489649128       -2.1385643700355672E-008 F
     orb,it,eci,eold,eci-eold=                    3                   15 -0.80200848579429918      -0.80200663628213498       -1.8495121641981527E-006 F
     orb,it,eci,eold,eci-eold=                    3                   16 -0.80202046874900690      -0.80200848579429918       -1.1982954707723259E-005 F
     orb,it,eci,eold,eci-eold=                    3                   17 -0.80202438974437684      -0.80202046874900690       -3.9209953699437250E-006 F
     orb,it,eci,eold,eci-eold=                    3                   18 -0.80202656326547350      -0.80202438974437684       -2.1735210966600249E-006 F
     orb,it,eci,eold,eci-eold=                    3                   19 -0.80203611989837575      -0.80202656326547350       -9.5566329022522822E-006 F
     orb,it,eci,eold,eci-eold=                    3                   20 -0.80204043250423585      -0.80203611989837575       -4.3126058600906347E-006 F
     orb,it,eci,eold,eci-eold=                    3                   21 -0.80204329617726111      -0.80204043250423585       -2.8636730252662446E-006 F
     orb,it,eci,eold,eci-eold=                    3                   22 -0.80205201268283188      -0.80204329617726111       -8.7165055707716377E-006 F
     orb,it,eci,eold,eci-eold=                    3                   23 -0.80205373905896016      -0.80205201268283188       -1.7263761282748646E-006 F
     orb,it,eci,eold,eci-eold=                    3                   24 -0.80205484355549073      -0.80205373905896016       -1.1044965305684329E-006 F
     orb,it,eci,eold,eci-eold=                    3                   25 -0.80206148376102127      -0.80205484355549073       -6.6402055305392338E-006 F
     orb,it,eci,eold,eci-eold=                    3                   26 -0.80206261324079575      -0.80206148376102127       -1.1294797744865193E-006 F
     orb,it,eci,eold,eci-eold=                    3                   27 -0.80206325231811326      -0.80206261324079575       -6.3907731751022823E-007 F
     orb,it,eci,eold,eci-eold=                    3                   28 -0.80206909947896454      -0.80206325231811326       -5.8471608512800088E-006 F
     orb,it,eci,eold,eci-eold=                    3                   29 -0.80207201580452425      -0.80206909947896454       -2.9163255597097759E-006 F
     orb,it,eci,eold,eci-eold=                    3                   30 -0.80207533569075529      -0.80207201580452425       -3.3198862310346300E-006 F
     orb,it,eci,eold,eci-eold=                    3                   31 -0.80207739318716031      -0.80207533569075529       -2.0574964050279476E-006 F
     orb,it,eci,eold,eci-eold=                    3                   32 -0.80208071138865578      -0.80207739318716031       -3.3182014954613592E-006 F
     orb,it,eci,eold,eci-eold=                    3                   33 -0.80208100855862607      -0.80208071138865578       -2.9716997029805015E-007 F
     orb,it,eci,eold,eci-eold=                    3                   34 -0.80208158919297956      -0.80208100855862607       -5.8063435348643111E-007 F
     orb,it,eci,eold,eci-eold=                    3                   35 -0.80208412915207550      -0.80208158919297956       -2.5399590959374052E-006 F
     orb,it,eci,eold,eci-eold=                    3                   36 -0.80208437144983291      -0.80208412915207550       -2.4229775741346771E-007 F
     orb,it,eci,eold,eci-eold=                    3                   37 -0.80208460075636068      -0.80208437144983291       -2.2930652776587124E-007 F
     orb,it,eci,eold,eci-eold=                    3                   38 -0.80208737128250340      -0.80208460075636068       -2.7705261427257710E-006 F
     orb,it,eci,eold,eci-eold=                    3                   39 -0.80208893069584097      -0.80208737128250340       -1.5594133375707031E-006 F
     orb,it,eci,eold,eci-eold=                    3                   40 -0.80209028497614066      -0.80208893069584097       -1.3542802996813208E-006 F
     orb,it,eci,eold,eci-eold=                    3                   41 -0.80209104121396835      -0.80209028497614066       -7.5623782769262959E-007 F
     orb,it,eci,eold,eci-eold=                    3                   42 -0.80209277577588023      -0.80209104121396835       -1.7345619118813715E-006 F
     orb,it,eci,eold,eci-eold=                    3                   43 -0.80209286833996196      -0.80209277577588023       -9.2564081732859904E-008 F
     orb,it,eci,eold,eci-eold=                    3                   44 -0.80209287648355954      -0.80209286833996196       -8.1435975740618005E-009 F
     orb,it,eci,eold,eci-eold=                    3                   45 -0.80209416858910898      -0.80209287648355954       -1.2921055494441447E-006 F
     orb,it,eci,eold,eci-eold=                    3                   46 -0.80209489074621154      -0.80209416858910898       -7.2215710256173793E-007 F
     orb,it,eci,eold,eci-eold=                    3                   47 -0.80209498336115026      -0.80209489074621154       -9.2614938718149631E-008 F
     orb,it,eci,eold,eci-eold=                    3                   48 -0.80209589676617421      -0.80209498336115026       -9.1340502395009793E-007 F
     orb,it,eci,eold,eci-eold=                    3                   49 -0.80209646455313721      -0.80209589676617421       -5.6778696300163745E-007 F
     orb,it,eci,eold,eci-eold=                    3                   50 -0.80209672999492021      -0.80209646455313721       -2.6544178299836574E-007 F
     orb,it,eci,eold,eci-eold=                    3                   51 -0.80209767337206195      -0.80209672999492021       -9.4337714173775566E-007 F
     orb,it,eci,eold,eci-eold=                    3                   52 -0.80209793356661985      -0.80209767337206195       -2.6019455789949575E-007 F
     orb,it,eci,eold,eci-eold=                    3                   53 -0.80209799574086293      -0.80209793356661985       -6.2174243087298464E-008 F
     orb,it,eci,eold,eci-eold=                    3                   54 -0.80209860166021052      -0.80209799574086293       -6.0591934758491561E-007 F
     orb,it,eci,eold,eci-eold=                    3                   55 -0.80209878205222296      -0.80209860166021052       -1.8039201243880143E-007 F
     orb,it,eci,eold,eci-eold=                    3                   56 -0.80209882933315313      -0.80209878205222296       -4.7280930171034186E-008 F
     orb,it,eci,eold,eci-eold=                    3                   57 -0.80209932699713127      -0.80209882933315313       -4.9766397813844065E-007 F
     orb,it,eci,eold,eci-eold=                    3                   58 -0.80209956921787318      -0.80209932699713127       -2.4222074190838327E-007 F
     orb,it,eci,eold,eci-eold=                    3                   59 -0.80209966370130348      -0.80209956921787318       -9.4483430301828264E-008 F
     orb,it,eci,eold,eci-eold=                    3                   60 -0.80210015883534191      -0.80209966370130348       -4.9513403843626236E-007 F
     orb,it,eci,eold,eci-eold=                    3                   61 -0.80210037172659387      -0.80210015883534191       -2.1289125196055636E-007 F
     orb,it,eci,eold,eci-eold=                    3                   62 -0.80210042967821105      -0.80210037172659387       -5.7951617171703163E-008 F
     orb,it,eci,eold,eci-eold=                    3                   63 -0.80210080643334702      -0.80210042967821105       -3.7675513597790200E-007 F
     orb,it,eci,eold,eci-eold=                    3                   64 -0.80210096926270080      -0.80210080643334702       -1.6282935377809338E-007 F
     orb,it,eci,eold,eci-eold=                    3                   65 -0.80210102449823406      -0.80210096926270080       -5.5235533258368719E-008 F
     orb,it,eci,eold,eci-eold=                    3                   66 -0.80210134970557045      -0.80210102449823406       -3.2520733639351818E-007 F
     orb,it,eci,eold,eci-eold=                    3                   67 -0.80210150944572034      -0.80210134970557045       -1.5974014988540119E-007 F
     orb,it,eci,eold,eci-eold=                    3                   68 -0.80210157337164145      -0.80210150944572034       -6.3925921112151229E-008 F
     orb,it,eci,eold,eci-eold=                    3                   69 -0.80210185723826299      -0.80210157337164145       -2.8386662154211706E-007 F
     orb,it,eci,eold,eci-eold=                    3                   70 -0.80210194716080940      -0.80210185723826299       -8.9922546409049176E-008 F
     orb,it,eci,eold,eci-eold=                    3                   71 -0.80210197082813561      -0.80210194716080940       -2.3667326209952932E-008 F
     orb,it,eci,eold,eci-eold=                    3                   72 -0.80210216426878778      -0.80210197082813561       -1.9344065216309048E-007 F
     orb,it,eci,eold,eci-eold=                    3                   73 -0.80210220708987134      -0.80210216426878778       -4.2821083567901042E-008 F
     orb,it,eci,eold,eci-eold=                    3                   74 -0.80210221231480228      -0.80210220708987134       -5.2249309323570969E-009 F
     orb,it,eci,eold,eci-eold=                    3                   75 -0.80210237438896992      -0.80210221231480228       -1.6207416764224547E-007 F
     orb,it,eci,eold,eci-eold=                    3                   76 -0.80210247087093833      -0.80210237438896992       -9.6481968414607877E-008 F
     orb,it,eci,eold,eci-eold=                    3                   77 -0.80210250228846058      -0.80210247087093833       -3.1417522250443142E-008 F
     orb,it,eci,eold,eci-eold=                    3                   78 -0.80210266149008513      -0.80210250228846058       -1.5920162454996500E-007 F
     orb,it,eci,eold,eci-eold=                    3                   79 -0.80210273774588692      -0.80210266149008513       -7.6255801784164134E-008 F
     orb,it,eci,eold,eci-eold=                    3                   80 -0.80210276291499860      -0.80210273774588692       -2.5169111683709389E-008 F
     orb,it,eci,eold,eci-eold=                    3                   81 -0.80210290121533867      -0.80210276291499860       -1.3830034006900860E-007 F
     orb,it,eci,eold,eci-eold=                    3                   82 -0.80210296070256759      -0.80210290121533867       -5.9487228920573898E-008 F
     orb,it,eci,eold,eci-eold=                    3                   83 -0.80210297468525549      -0.80210296070256759       -1.3982687896429979E-008 F
     orb,it,eci,eold,eci-eold=                    3                   84 -0.80210306715671154      -0.80210297468525549       -9.2471456047960032E-008 F
     orb,it,eci,eold,eci-eold=                    3                   85 -0.80210310225184223      -0.80210306715671154       -3.5095130690443455E-008 F
     orb,it,eci,eold,eci-eold=                    3                   86 -0.80210311543365553      -0.80210310225184223       -1.3181813307561185E-008 F
     orb,it,eci,eold,eci-eold=                    3                   87 -0.80210318789636048      -0.80210311543365553       -7.2462704947540146E-008 F
     orb,it,eci,eold,eci-eold=                    3                   88 -0.80210321244135252      -0.80210318789636048       -2.4544992038855185E-008 F
     orb,it,eci,eold,eci-eold=                    3                   89 -0.80210322330982364      -0.80210321244135252       -1.0868471123082202E-008 F
     orb,it,eci,eold,eci-eold=                    3                   90 -0.80210328707544631      -0.80210322330982364       -6.3765622670963751E-008 F
     orb,it,eci,eold,eci-eold=                    3                   91 -0.80210330841015587      -0.80210328707544631       -2.1334709554565734E-008 F
     orb,it,eci,eold,eci-eold=                    3                   92 -0.80210331382062172      -0.80210330841015587       -5.4104658531173300E-009 F
     orb,it,eci,eold,eci-eold=                    3                   93 -0.80210336327703069      -0.80210331382062172       -4.9456408968140408E-008 F
     orb,it,eci,eold,eci-eold=                    3                   94 -0.80210338494327371      -0.80210336327703069       -2.1666243021911669E-008 F
     orb,it,eci,eold,eci-eold=                    3                   95 -0.80210339219015392      -0.80210338494327371       -7.2468802070346783E-009 F
     orb,it,eci,eold,eci-eold=                    3                   96 -0.80210344083861607      -0.80210339219015392       -4.8648462147582450E-008 F
     orb,it,eci,eold,eci-eold=                    3                   97 -0.80210346580420833      -0.80210344083861607       -2.4965592260173253E-008 F
     orb,it,eci,eold,eci-eold=                    3                   98 -0.80210347323433562      -0.80210346580420833       -7.4301272912080663E-009 F
     orb,it,eci,eold,eci-eold=                    3                   99 -0.80210351495660870      -0.80210347323433562       -4.1722273080857519E-008 F
     orb,it,eci,eold,eci-eold=                    3                  100 -0.80210353218182118      -0.80210351495660870       -1.7225212478599872E-008 F
     orb,it,eci,eold,eci-eold=                    3                  101 -0.80210353613465535      -0.80210353218182118       -3.9528341710948212E-009 F
     orb,it,eci,eold,eci-eold=                    3                  102 -0.80210356585228715      -0.80210353613465535       -2.9717631799819344E-008 F
     orb,it,eci,eold,eci-eold=                    3                  103 -0.80210357822061618      -0.80210356585228715       -1.2368329027623304E-008 F
     orb,it,eci,eold,eci-eold=                    3                  104 -0.80210358263364767      -0.80210357822061618       -4.4130314957868677E-009 F
     orb,it,eci,eold,eci-eold=                    3                  105 -0.80210360771730094      -0.80210358263364767       -2.5083653265589589E-008 F
     orb,it,eci,eold,eci-eold=                    3                  106 -0.80210361703465116      -0.80210360771730094       -9.3173502246912676E-009 F
     orb,it,eci,eold,eci-eold=                    3                  107 -0.80210362034786853      -0.80210361703465116       -3.3132173671290843E-009 F
     orb,it,eci,eold,eci-eold=                    3                  108 -0.80210364148696855      -0.80210362034786853       -2.1139100025990842E-008 F
     orb,it,eci,eold,eci-eold=                    3                  109 -0.80210364856697569      -0.80210364148696855       -7.0800071361176720E-009 F
     orb,it,eci,eold,eci-eold=                    3                  110 -0.80210365000955419      -0.80210364856697569       -1.4425785010985237E-009 F
     orb,it,eci,eold,eci-eold=                    3                  111 -0.80210366590060378      -0.80210365000955419       -1.5891049587324346E-008 F
     orb,it,eci,eold,eci-eold=                    3                  112 -0.80210367263445170      -0.80210366590060378       -6.7338479237122328E-009 F
     orb,it,eci,eold,eci-eold=                    3                  113 -0.80210367446070330      -0.80210367263445170       -1.8262515943945345E-009 F
     orb,it,eci,eold,eci-eold=                    3                  114 -0.80210368819682210      -0.80210367446070330       -1.3736118797957886E-008 F
     orb,it,eci,eold,eci-eold=                    3                  115 -0.80210369506313439      -0.80210368819682210       -6.8663122965162415E-009 F
     orb,it,eci,eold,eci-eold=                    3                  116 -0.80210369730755504      -0.80210369506313439       -2.2444206493332786E-009 F
     orb,it,eci,eold,eci-eold=                    3                  117 -0.80210370859091573      -0.80210369730755504       -1.1283360690228506E-008 F
     orb,it,eci,eold,eci-eold=                    3                  118 -0.80210371272899628      -0.80210370859091573       -4.1380805448909541E-009 F
     orb,it,eci,eold,eci-eold=                    3                  119 -0.80210371408866021      -0.80210371272899628       -1.3596639369950481E-009 F
     orb,it,eci,eold,eci-eold=                    3                  120 -0.80210372317841638      -0.80210371408866021       -9.0897561699776475E-009 F
     orb,it,eci,eold,eci-eold=                    3                  121 -0.80210372735189805      -0.80210372317841638       -4.1734816713656642E-009 F
     orbital   3 current e=  0.373699E+00 error=0.203E-01 (eci= -0.802103727E+00 error=0.417E-08) iterations 121(   0 preconditioned, Ep,Sp= 20.0  200.0)
     orb,it,eci,eold,eci-eold=                    3                    1 -0.80210374497542059      -0.80210372735189805       -1.7623522530207936E-008 F
     orb,it,eci,eold,eci-eold=                    3                    2 -0.80210375527688216      -0.80210374497542059       -1.0301461572659321E-008 F
     orb,it,eci,eold,eci-eold=                    3                    3 -0.80210375652803645      -0.80210375527688216       -1.2511542912818641E-009 F
     orb,it,eci,eold,eci-eold=                    3                    4 -0.80210376046868292      -0.80210375652803645       -3.9406464757973936E-009 F
     orb,it,eci,eold,eci-eold=                    3                    5 -0.80210376956292273      -0.80210376046868292       -9.0942398056625962E-009 F
     orb,it,eci,eold,eci-eold=                    3                    6 -0.80210376956292273      -0.80210376956292273        0.0000000000000000      F
     orbital   3 current e=  0.373530E+00 error=0.170E-03 (eci= -0.802103770E+00 error=0.000E+00) iterations   6(   0 preconditioned, Ep,Sp= 20.0  200.0)
     orb,it,eci,eold,eci-eold=                    3                    1 -0.80210376910579251      -0.80210376906104863       -4.4743875271535671E-011 F
     orbital   3 current e=  0.373521E+00 error=0.830E-05 (eci= -0.802103769E+00 error=0.447E-10) iterations   1(   0 preconditioned, Ep,Sp= 20.0  200.0)
     orb,it,eci,eold,eci-eold=                    4                    1 -0.80144293505017283      -0.80135195301864015       -9.0982031532682583E-005 F
     orb,it,eci,eold,eci-eold=                    4                    2 -0.80145221219958995      -0.80144293505017283       -9.2771494171195457E-006 F
     orb,it,eci,eold,eci-eold=                    4                    3 -0.80149311245302612      -0.80145221219958995       -4.0900253436171319E-005 F
     orb,it,eci,eold,eci-eold=                    4                    4 -0.80152341300316043      -0.80149311245302612       -3.0300550134310100E-005 F
     orb,it,eci,eold,eci-eold=                    4                    5 -0.80153053733502189      -0.80152341300316043       -7.1243318614522266E-006 F
     orb,it,eci,eold,eci-eold=                    4                    6 -0.80153188644952478      -0.80153053733502189       -1.3491145028909912E-006 F
     orb,it,eci,eold,eci-eold=                    4                    7 -0.80155049657711896      -0.80153188644952478       -1.8610127594187453E-005 F
     orb,it,eci,eold,eci-eold=                    4                    8 -0.80156102861996359      -0.80155049657711896       -1.0532042844624279E-005 F
     orb,it,eci,eold,eci-eold=                    4                    9 -0.80157314317588857      -0.80156102861996359       -1.2114555924980230E-005 F
     orb,it,eci,eold,eci-eold=                    4                   10 -0.80157827637617485      -0.80157314317588857       -5.1332002862780612E-006 F
     orb,it,eci,eold,eci-eold=                    4                   11 -0.80158221672291385      -0.80157827637617485       -3.9403467390064506E-006 F
     orb,it,eci,eold,eci-eold=                    4                   12 -0.80158735486561050      -0.80158221672291385       -5.1381426966479182E-006 F
     orb,it,eci,eold,eci-eold=                    4                   13 -0.80158746492250754      -0.80158735486561050       -1.1005689704024491E-007 F
     orb,it,eci,eold,eci-eold=                    4                   14 -0.80158776020653411      -0.80158746492250754       -2.9528402656353592E-007 F
     orb,it,eci,eold,eci-eold=                    4                   15 -0.80159196860480098      -0.80158776020653411       -4.2083982668694730E-006 F
     orb,it,eci,eold,eci-eold=                    4                   16 -0.80159904480683819      -0.80159196860480098       -7.0762020372150403E-006 F
     orb,it,eci,eold,eci-eold=                    4                   17 -0.80160301037171278      -0.80159904480683819       -3.9655648745862138E-006 F
     orb,it,eci,eold,eci-eold=                    4                   18 -0.80160967766644964      -0.80160301037171278       -6.6672947368617841E-006 F
     orb,it,eci,eold,eci-eold=                    4                   19 -0.80161348148000799      -0.80160967766644964       -3.8038135583562394E-006 F
     orb,it,eci,eold,eci-eold=                    4                   20 -0.80161800501539515      -0.80161348148000799       -4.5235353871575512E-006 F
     orb,it,eci,eold,eci-eold=                    4                   21 -0.80162041032328357      -0.80161800501539515       -2.4053078884200829E-006 F
     orb,it,eci,eold,eci-eold=                    4                   22 -0.80162427294094107      -0.80162041032328357       -3.8626176575018434E-006 F
     orb,it,eci,eold,eci-eold=                    4                   23 -0.80162631416127061      -0.80162427294094107       -2.0412203295405718E-006 F
     orb,it,eci,eold,eci-eold=                    4                   24 -0.80162863119133609      -0.80162631416127061       -2.3170300654795639E-006 F
     orb,it,eci,eold,eci-eold=                    4                   25 -0.80163002274736062      -0.80162863119133609       -1.3915560245214564E-006 F
     orb,it,eci,eold,eci-eold=                    4                   26 -0.80163266728173832      -0.80163002274736062       -2.6445343777048436E-006 F
     orb,it,eci,eold,eci-eold=                    4                   27 -0.80163403596672156      -0.80163266728173832       -1.3686849832383885E-006 F
     orb,it,eci,eold,eci-eold=                    4                   28 -0.80163506123597617      -0.80163403596672156       -1.0252692546064424E-006 F
     orb,it,eci,eold,eci-eold=                    4                   29 -0.80163553193642301      -0.80163506123597617       -4.7070044684183188E-007 F
     orb,it,eci,eold,eci-eold=                    4                   30 -0.80163684830126170      -0.80163553193642301       -1.3163648386882443E-006 F
     orb,it,eci,eold,eci-eold=                    4                   31 -0.80163698700604813      -0.80163684830126170       -1.3870478643429607E-007 F
     orb,it,eci,eold,eci-eold=                    4                   32 -0.80163710647908248      -0.80163698700604813       -1.1947303435455581E-007 F
     orb,it,eci,eold,eci-eold=                    4                   33 -0.80163811036273391      -0.80163710647908248       -1.0038836514292271E-006 F
     orb,it,eci,eold,eci-eold=                    4                   34 -0.80163863140453795      -0.80163811036273391       -5.2104180403578226E-007 F
     orb,it,eci,eold,eci-eold=                    4                   35 -0.80163925896395427      -0.80163863140453795       -6.2755941632186563E-007 F
     orb,it,eci,eold,eci-eold=                    4                   36 -0.80163961296754382      -0.80163925896395427       -3.5400358955328670E-007 F
     orb,it,eci,eold,eci-eold=                    4                   37 -0.80164014157184549      -0.80163961296754382       -5.2860430166390415E-007 F
     orb,it,eci,eold,eci-eold=                    4                   38 -0.80164043816651653      -0.80164014157184549       -2.9659467104536930E-007 F
     orb,it,eci,eold,eci-eold=                    4                   39 -0.80164080270816951      -0.80164043816651653       -3.6454165297516994E-007 F
     orb,it,eci,eold,eci-eold=                    4                   40 -0.80164098902643943      -0.80164080270816951       -1.8631826992354661E-007 F
     orb,it,eci,eold,eci-eold=                    4                   41 -0.80164131276944928      -0.80164098902643943       -3.2374300984461257E-007 F
     orb,it,eci,eold,eci-eold=                    4                   42 -0.80164135533158676      -0.80164131276944928       -4.2562137481105822E-008 F
     orb,it,eci,eold,eci-eold=                    4                   43 -0.80164139794094025      -0.80164135533158676       -4.2609353489986290E-008 F
     orb,it,eci,eold,eci-eold=                    4                   44 -0.80164161772682518      -0.80164139794094025       -2.1978588493620776E-007 F
     orb,it,eci,eold,eci-eold=                    4                   45 -0.80164166541271220      -0.80164161772682518       -4.7685887016868378E-008 F
     orb,it,eci,eold,eci-eold=                    4                   46 -0.80164168402619129      -0.80164166541271220       -1.8613479091378338E-008 F
     orb,it,eci,eold,eci-eold=                    4                   47 -0.80164186768386525      -0.80164168402619129       -1.8365767395778221E-007 F
     orb,it,eci,eold,eci-eold=                    4                   48 -0.80164195856675058      -0.80164186768386525       -9.0882885328547047E-008 F
     orb,it,eci,eold,eci-eold=                    4                   49 -0.80164198286204869      -0.80164195856675058       -2.4295298106657981E-008 F
     orb,it,eci,eold,eci-eold=                    4                   50 -0.80164209853163371      -0.80164198286204869       -1.1566958502129410E-007 F
     orb,it,eci,eold,eci-eold=                    4                   51 -0.80164213437484921      -0.80164209853163371       -3.5843215506758952E-008 F
     orb,it,eci,eold,eci-eold=                    4                   52 -0.80164215703666841      -0.80164213437484921       -2.2661819198965816E-008 F
     orb,it,eci,eold,eci-eold=                    4                   53 -0.80164227249674880      -0.80164215703666841       -1.1546008038543221E-007 F
     orb,it,eci,eold,eci-eold=                    4                   54 -0.80164231187025581      -0.80164227249674880       -3.9373507010331821E-008 F
     orb,it,eci,eold,eci-eold=                    4                   55 -0.80164232141986547      -0.80164231187025581       -9.5496096585989676E-009 F
     orb,it,eci,eold,eci-eold=                    4                   56 -0.80164240195751979      -0.80164232141986547       -8.0537654323364904E-008 F
     orb,it,eci,eold,eci-eold=                    4                   57 -0.80164243807298508      -0.80164240195751979       -3.6115465285035953E-008 F
     orb,it,eci,eold,eci-eold=                    4                   58 -0.80164245049079075      -0.80164243807298508       -1.2417805672626514E-008 F
[...]
   10    7   10   10        0.0007113711
   10    7   11   10        0.0010495992
   10    7   12   10        0.0000045044
   10    7   13   10        0.0000001007
   10    7   11   11        0.0085532219
   10    7   12   11       -0.0089326076
   10    7   13   11        0.0000150183
   10    7   12   12        0.0058808166
   10    7   13   12        0.0000118223
   10    7   13   13        0.0108885862
   11    7   11    7        0.0221454612
   11    7   12    7       -0.0116153248
   11    7   13    7        0.0000294135
   11    7    8    8       -0.0000762305
   11    7    9    8       -0.0000001088
   11    7   10    8       -0.0000000748
   11    7   11    8        0.0000096147
   11    7   12    8        0.0000149022
   11    7   13    8        0.0107350862
   11    7    9    9       -0.0000763660
   11    7   10    9        0.0000000295
   11    7   11    9       -0.0000039797
   11    7   12    9       -0.0000381057
   11    7   13    9       -0.0037682884
   11    7   10   10        0.0000709178
   11    7   11   10        0.0167287230
   11    7   12   10        0.0010169727
   11    7   13   10       -0.0000051170
   11    7   11   11       -0.0000485512
   11    7   12   11        0.0004449821
   11    7   13   11       -0.0000008583
   11    7   12   12        0.0000230929
   11    7   13   12       -0.0000013564
   11    7   13   13       -0.0001673464
   12    7   12    7        0.0985881349
   12    7   13    7       -0.0001761493
   12    7    8    8       -0.0003796924
   12    7    9    8        0.0000005456
   12    7   10    8       -0.0000003225
   12    7   11    8       -0.0000169390
   12    7   12    8       -0.0000158116
   12    7   13    8       -0.0537235129
   12    7    9    9       -0.0003788087
   12    7   10    9       -0.0000000185
   12    7   11    9        0.0000204966
   12    7   12    9        0.0001620498
   12    7   13    9        0.0188641636
   12    7   10   10       -0.0003173840
   12    7   11   10       -0.0757906453
   12    7   12   10        0.0066491949
   12    7   13   10        0.0000114601
   12    7   11   11       -0.0007109163
   12    7   12   11       -0.0021514724
   12    7   13   11        0.0000037018
   12    7   12   12       -0.0019054500
   12    7   13   12        0.0000079922
   12    7   13   13       -0.0000856428
   13    7   13    7        0.0206694218
   13    7    8    8        0.0000007423
   13    7    9    8        0.0000000277
   13    7   10    8        0.0000492709
   13    7   11    8       -0.0046365696
   13    7   12    8        0.0010389349
   13    7   13    8        0.0001220042
   13    7    9    9        0.0000008062
   13    7   10    9       -0.0000173052
   13    7   11    9        0.0016281553
   13    7   12    9       -0.0003653279
   13    7   13    9       -0.0000436030
   13    7   10   10        0.0000007133
   13    7   11   10        0.0001681017
   13    7   12   10        0.0000167075
   13    7   13   10        0.0119374110
   13    7   11   11        0.0000016393
   13    7   12   11        0.0000047682
   13    7   13   11       -0.0000085867
   13    7   12   12        0.0000053302
   13    7   13   12        0.0000507169
   13    7   13   13       -0.0000000777
    8    8    8    8        0.3149881287
    8    8    9    8        0.0000008932
    8    8   10    8        0.0000012172
    8    8   11    8       -0.0000001298
    8    8   12    8       -0.0000013762
    8    8   13    8        0.0002735906
    8    8    9    9        0.2878841553
    8    8   10    9       -0.0000001908
    8    8   11    9        0.0000000295
    8    8   12    9       -0.0000003830
    8    8   13    9       -0.0000850379
    8    8   10   10        0.2982397681
    8    8   11   10        0.0005188190
    8    8   12   10        0.0006358072
    8    8   13   10       -0.0000007157
    8    8   11   11        0.2973162734
    8    8   12   11       -0.0058149589
    8    8   13   11        0.0000111517
    8    8   12   12        0.2878159495
    8    8   13   12        0.0000168463
    8    8   13   13        0.3007392673
    9    8    9    8        0.0141613499
    9    8   10    8       -0.0000001850
    9    8   11    8        0.0000000143
    9    8   12    8       -0.0000000184
    9    8   13    8       -0.0000059480
    9    8    9    9       -0.0000008951
    9    8   10    9        0.0000004980
    9    8   11    9       -0.0000000342
    9    8   12    9       -0.0000000855
    9    8   13    9        0.0000164121
    9    8   10   10        0.0000000013
    9    8   11   10       -0.0000005617
    9    8   12   10        0.0000000152
    9    8   13   10       -0.0000000294
    9    8   11   11       -0.0000000046
    9    8   12   11       -0.0000000266
    9    8   13   11       -0.0000006724
    9    8   12   12       -0.0000000763
    9    8   13   12       -0.0000347869
    9    8   13   13       -0.0063507167
   10    8   10    8        0.0153698629
   10    8   11    8        0.0000479713
   10    8   12    8        0.0000102322
   10    8   13    8        0.0000002526
   10    8    9    9        0.0000005193
   10    8   10    9        0.0000000002
   10    8   11    9       -0.0000000450
   10    8   12    9        0.0000000073
   10    8   13    9       -0.0000000971
   10    8   10   10       -0.0000006257
   10    8   11   10        0.0000003803
   10    8   12   10       -0.0000000935
   10    8   13   10       -0.0000252853
   10    8   11   11        0.0000067968
   10    8   12   11        0.0000095227
   10    8   13   11        0.0096800835
   10    8   12   12        0.0000195304
   10    8   13   12        0.0027630281
   10    8   13   13       -0.0000097349
   11    8   11    8        0.0103469871
   11    8   12    8       -0.0042197938
   11    8   13    8        0.0000185412
   11    8    9    9       -0.0000000702
   11    8   10    9       -0.0000000452
   11    8   11    9       -0.0000000030
   11    8   12    9       -0.0000000399
   11    8   13    9       -0.0000024254
   11    8   10   10       -0.0000000122
   11    8   11   10        0.0000170516
   11    8   12   10        0.0000004729
   11    8   13   10        0.0011112709
   11    8   11   11       -0.0000000329
   11    8   12   11        0.0000004283
   11    8   13   11        0.0000533673
   11    8   12   12        0.0000004147
   11    8   13   12        0.0001126525
   11    8   13   13       -0.0000005032
   12    8   12    8        0.0116571846
   12    8   13    8        0.0000175088
   12    8    9    9       -0.0000012076
   12    8   10    9        0.0000000078
   12    8   11    9       -0.0000000090
   12    8   12    9       -0.0000000950
   12    8   13    9       -0.0000276722
   12    8   10   10       -0.0000013455
   12    8   11   10        0.0000251726
   12    8   12   10        0.0000274093
   12    8   13   10        0.0066760296
   12    8   11   11       -0.0000013377
   12    8   12   11        0.0000006630
   12    8   13   11        0.0001025683
   12    8   12   12       -0.0000010871
   12    8   13   12        0.0001082520
   12    8   13   13       -0.0000021835
   13    8   13    8        0.0498920217
   13    8    9    9        0.0002416916
   13    8   10    9       -0.0000001153
   13    8   11    9       -0.0000033301
   13    8   12    9       -0.0001287160
   13    8   13    9       -0.0155310776
   13    8   10   10        0.0001952889
   13    8   11   10        0.0522642561
   13    8   12   10        0.0021240028
   13    8   13   10       -0.0000172144
   13    8   11   11        0.0004922376
   13    8   12   11        0.0013442562
   13    8   13   11       -0.0000026024
   13    8   12   12        0.0012027463
   13    8   13   12       -0.0000053336
   13    8   13   13        0.0000843302
    9    9    9    9        0.3149756309
    9    9   10    9       -0.0000005198
    9    9   11    9        0.0000000540
    9    9   12    9       -0.0000004207
    9    9   13    9       -0.0000961591
    9    9   10   10        0.2982324449
    9    9   11   10        0.0005180252
    9    9   12   10        0.0006357808
    9    9   13   10       -0.0000007786
    9    9   11   11        0.2973086696
    9    9   12   11       -0.0058137492
    9    9   13   11        0.0000096081
    9    9   12   12        0.2878103137
    9    9   13   12        0.0000184186
    9    9   13   13        0.2851749242
   10    9   10    9        0.0153680890
   10    9   11    9        0.0000479125
   10    9   12    9        0.0000102465
   10    9   13    9        0.0000000247
   10    9   10   10        0.0000002623
   10    9   11   10       -0.0000001672
   10    9   12   10        0.0000000477
   10    9   13   10        0.0000088563
   10    9   11   11       -0.0000028028
   10    9   12   11       -0.0000328212
   10    9   13   11       -0.0033985661
   10    9   12   12       -0.0000242721
   10    9   13   12       -0.0009694520
   10    9   13   13        0.0000029531
   11    9   11    9        0.0103463752
   11    9   12    9       -0.0042192788
   11    9   13    9        0.0000120319
   11    9   10   10        0.0000000038
   11    9   11   10       -0.0000070371
   11    9   12   10       -0.0000034330
   11    9   13   10       -0.0003908841
   11    9   11   11        0.0000000141
   11    9   12   11       -0.0000003720
   11    9   13   11       -0.0000187465
   11    9   12   12       -0.0000007829
   11    9   13   12       -0.0000395446
   11    9   13   13        0.0000001871
   12    9   12    9        0.0116573617
   12    9   13    9        0.0000351089
   12    9   10   10       -0.0000002516
   12    9   11   10       -0.0001650547
   12    9   12   10       -0.0000376306
   12    9   13   10       -0.0023429614
   12    9   11   11       -0.0000011355
   12    9   12   11       -0.0000044670
   12    9   13   11       -0.0000360011
   12    9   12   12       -0.0000038960
   12    9   13   12       -0.0000379965
   12    9   13   13        0.0000004600
   13    9   13    9        0.0112722166
   13    9   10   10       -0.0000687025
   13    9   11   10       -0.0183516735
   13    9   12   10       -0.0007443550
   13    9   13   10        0.0000054085
   13    9   11   11       -0.0001729783
   13    9   12   11       -0.0004720033
   13    9   13   11        0.0000009138
   13    9   12   12       -0.0004224544
   13    9   13   12        0.0000018518
   13    9   13   13       -0.0000296152
   10   10   10   10        0.3368392869
   10   10   11   10        0.0005109659
   10   10   12   10        0.0008646587
   10   10   13   10       -0.0000010579
   10   10   11   11        0.3339175265
   10   10   12   11       -0.0010206310
   10   10   13   11       -0.0000063969
   10   10   12   12        0.3023121987
   10   10   13   12        0.0000131834
   10   10   13   13        0.3026366849
   11   10   11   10        0.0895117123
   11   10   12   10        0.0008865536
   11   10   13   10       -0.0000071012
   11   10   11   11        0.0010204540
   11   10   12   11        0.0022255378
   11   10   13   11       -0.0000038678
   11   10   12   12        0.0019436087
   11   10   13   12       -0.0000075208
   11   10   13   13        0.0002110697
   12   10   12   10        0.0168444925
   12   10   13   10       -0.0000004010
   12   10   11   11        0.0010543613
   12   10   12   11        0.0000050787
   12   10   13   11       -0.0000003097
   12   10   12   12        0.0008345579
   12   10   13   12        0.0000000451
   12   10   13   13        0.0007282851
   13   10   13   10        0.0161409517
   13   10   11   11       -0.0000014101
   13   10   12   11       -0.0000004650
   13   10   13   11        0.0000056302
   13   10   12   12       -0.0000007625
   13   10   13   12        0.0000662883
   13   10   13   13       -0.0000010456
   11   11   11   11        0.3497008285
   11   11   12   11       -0.0041184540
   11   11   13   11        0.0000023084
   11   11   12   12        0.3114065731
   11   11   13   12        0.0000098524
   11   11   13   13        0.3109589427
   12   11   12   11        0.0110326964
   12   11   13   11        0.0000083273
   12   11   12   12       -0.0052034486
   12   11   13   12       -0.0000047544
   12   11   13   13       -0.0074658688
   13   11   13   11        0.0136815832
   13   11   12   12        0.0000158998
   13   11   13   12        0.0005504438
   13   11   13   13        0.0000082123
   12   12   12   12        0.3261367266
   12   12   13   12       -0.0000212800
   12   12   13   13        0.2972033212
   13   12   13   12        0.0105076023
   13   12   13   13        0.0000051697
   13   13   13   13        0.3162449469
 end_two_electron_integrals


 output epsi filename:./pspw_hf_H2.emovecs

 Total PSPW energy     :  -0.7998858667E+00


=== Spin Contamination ===

 <Sexact^2> =    0.0000000000000000     
 <S^2>      =    0.0000000000000000     



== Center of Charge ==

spin up     (    0.0000,    0.0000,    0.0034 )
spin down   (    0.0000,    0.0000,    0.0034 )
     total  (    0.0000,    0.0000,    0.0034 )
ionic       (    0.0000,    0.0000,    0.0000 )


== Molecular Dipole wrt Center of Mass ==

mu   =  (   -0.0000,   -0.0000,   -0.0068 ) au
|mu| =     0.0068 au,       0.0173 Debye

 output psi filename:./pspw_hf_H2.movecs

 Writing Crystallographic Information File:./H2.cif
   - cell not shifted (nwpw:cif_shift_cell .false.)


== Timing ==

cputime in seconds
  prologue    :   0.679152E+01
  main loop   :   0.413733E+03
  epilogue    :   0.166783E-01
  total       :   0.420541E+03
  cputime/step:   0.293428E+01       (     141 evalulations,      59 linesearches)


Time spent doing                        total          step       percent
  total time                 :   0.420560E+03  0.298270E+01       100.0 %
  i/o time                   :   0.317801E+00  0.225391E-02         0.1 %
  FFTs                       :   0.292277E+03  0.207289E+01        69.5 %
  dot products               :   0.217816E+02  0.154480E+00         5.2 %
  geodesic                   :   0.605224E-01  0.429237E-03         0.0 %
  ffm_dgemm                  :   0.936052E-02  0.663867E-04         0.0 %
  fmf_dgemm                  :   0.656257E-02  0.465430E-04         0.0 %
  mmm_dgemm                  :   0.241414E-02  0.171216E-04         0.0 %
  m_diagonalize              :   0.119966E-02  0.850826E-05         0.0 %
  local pseudopotentials     :   0.598359E+01  0.424368E-01         1.4 %
  non-local pseudopotentials :   0.198904E+02  0.141067E+00         4.7 %
  structure factors          :   0.649104E+00  0.460357E-02         0.2 %
  phase factors              :   0.821100E-05  0.582340E-07         0.0 %
  masking and packing        :   0.777933E+01  0.551726E-01         1.8 %
  queue fft                  :   0.832919E+01  0.590723E-01         2.0 %
  queue fft (serial)         :   0.298341E+01  0.211589E-01         0.7 %
  queue fft (message passing):   0.530760E+01  0.376426E-01         1.3 %
  HFX potential              :   0.368917E+01  0.261643E-01         0.9 %
  non-local psp FFM          :   0.194278E+02  0.137786E+00         4.6 %
  non-local psp FMF          :   0.100224E+00  0.710806E-03         0.0 %
  non-local psp FFM A        :   0.421322E-01  0.298810E-03         0.0 %
  non-local psp FFM B        :   0.146580E+00  0.103957E-02         0.0 %

== HFX Counters ==
  HFX Evalulations         =   141
  Lin ACE HFX Evalulations =     0


     >>>  JOB COMPLETED     AT Sun Apr  6 20:48:04 2025  <<<

 Task  times  cpu:      394.8s     wall:      420.6s


                                NWChem Input Module
                                -------------------


 Summary of allocated global arrays
-----------------------------------
  No active global arrays


MA_summarize_allocated_blocks: starting scan ...
MA_summarize_allocated_blocks: scan completed: 0 heap blocks, 0 stack blocks
MA usage statistics:

	allocation statistics:
					      heap	     stack
					      ----	     -----
	current number of blocks	         0	         0
	maximum number of blocks	       313	        36
	current total bytes		         0	         0
	maximum total bytes		  16458992	   5334744
	maximum total K-bytes		     16459	      5335
	maximum total M-bytes		        17	         6


                                     CITATION
                                     --------
                Please cite the following reference when publishing
                           results obtained with NWChem:

          E. Apra, E. J. Bylaska, W. A. de Jong, N. Govind, K. Kowalski,
       T. P. Straatsma, M. Valiev, H. J. J. van Dam, Y. Alexeev, J. Anchell,
       V. Anisimov, F. W. Aquino, R. Atta-Fynn, J. Autschbach, N. P. Bauman,
     J. C. Becca, D. E. Bernholdt, K. Bhaskaran-Nair, S. Bogatko, P. Borowski,
         J. Boschen, J. Brabec, A. Bruner, E. Cauet, Y. Chen, G. N. Chuev,
      C. J. Cramer, J. Daily, M. J. O. Deegan, T. H. Dunning Jr., M. Dupuis,
   K. G. Dyall, G. I. Fann, S. A. Fischer, A. Fonari, H. Fruchtl, L. Gagliardi,
      J. Garza, N. Gawande, S. Ghosh, K. Glaesemann, A. W. Gotz, J. Hammond,
       V. Helms, E. D. Hermes, K. Hirao, S. Hirata, M. Jacquelin, L. Jensen,
   B. G. Johnson, H. Jonsson, R. A. Kendall, M. Klemm, R. Kobayashi, V. Konkov,
      S. Krishnamoorthy, M. Krishnan, Z. Lin, R. D. Lins, R. J. Littlefield,
      A. J. Logsdail, K. Lopata, W. Ma, A. V. Marenich, J. Martin del Campo,
   D. Mejia-Rodriguez, J. E. Moore, J. M. Mullin, T. Nakajima, D. R. Nascimento,
    J. A. Nichols, P. J. Nichols, J. Nieplocha, A. Otero-de-la-Roza, B. Palmer,
    A. Panyala, T. Pirojsirikul, B. Peng, R. Peverati, J. Pittner, L. Pollack,
   R. M. Richard, P. Sadayappan, G. C. Schatz, W. A. Shelton, D. W. Silverstein,
   D. M. A. Smith, T. A. Soares, D. Song, M. Swart, H. L. Taylor, G. S. Thomas,
            V. Tipparaju, D. G. Truhlar, K. Tsemekhman, T. Van Voorhis,
      A. Vazquez-Mayagoitia, P. Verma, O. Villa, A. Vishnu, K. D. Vogiatzis,
        D. Wang, J. H. Weare, M. J. Williamson, T. L. Windus, K. Wolinski,
        A. T. Wong, Q. Wu, C. Yang, Q. Yu, M. Zacharias, Z. Zhang, Y. Zhao,
                                and R. J. Harrison
                        "NWChem: Past, present, and future
                         J. Chem. Phys. 152, 184102 (2020)
                               doi:10.1063/5.0004997

                                      AUTHORS
                                      -------
  E. Apra, E. J. Bylaska, N. Govind, K. Kowalski, M. Valiev, D. Mejia-Rodriguez,
       A. Kunitsa, N. P. Bauman, A. Panyala, W. A. de Jong, T. P. Straatsma,
   H. J. J. van Dam, D. Wang, T. L. Windus, J. Hammond, J. Autschbach, A. Woods,
    K. Bhaskaran-Nair, J. Brabec, K. Lopata, S. A. Fischer, S. Krishnamoorthy,
     M. Jacquelin, W. Ma, M. Klemm, O. Villa, Y. Chen, V. Anisimov, F. Aquino,
     S. Hirata, M. T. Hackler, E. Hermes, L. Jensen, J. E. Moore, J. C. Becca,
      V. Konjkov, T. Risthaus, M. Malagoli, A. Marenich, A. Otero-de-la-Roza,
        J. Mullin, P. Nichols, R. Peverati, J. Pittner, Y. Zhao, P.-D. Fan,
        A. Fonari, M. J. Williamson, R. J. Harrison, J. R. Rehr, M. Dupuis,
     D. Silverstein, D. M. A. Smith, J. Nieplocha, V. Tipparaju, M. Krishnan,
     B. E. Van Kuiken, A. Vazquez-Mayagoitia, M. Swart, Q. Wu, T. Van Voorhis,
     A. A. Auer, M. Nooijen, L. D. Crosby, E. Brown, G. Cisneros, G. I. Fann,
   H. Fruchtl, J. Garza, K. Hirao, R. A. Kendall, J. A. Nichols, K. Tsemekhman,
    K. Wolinski, J. Anchell, D. E. Bernholdt, P. Borowski, T. Clark, D. Clerc,
   H. Dachsel, M. J. O. Deegan, K. Dyall, D. Elwood, E. Glendening, M. Gutowski,
   A. C. Hess, J. Jaffe, B. G. Johnson, J. Ju, R. Kobayashi, R. Kutteh, Z. Lin,
   R. Littlefield, X. Long, B. Meng, T. Nakajima, S. Niu, L. Pollack, M. Rosing,
   K. Glaesemann, G. Sandrone, M. Stave, H. Taylor, G. Thomas, J. H. van Lenthe,
                               A. T. Wong, Z. Zhang.

 Total times  cpu:      394.9s     wall:      420.7s
