 argument  1 = H2-3.5.nw



============================== echo of input deck ==============================
title "swnc: e theory=pspw4 xc=hf formula=H2 charge=0 mult=1"
#machinejob:expert

echo

start pspw_hf_H2

memory heap 1200 mb stack 1200 mb global 10 mb

charge 0

geometry
H    0.00000    0.00000   -1.75000
H    0.00000    0.00000    1.75000
end

nwpw
  ### pseudopotential block begin ###
  ### pseudopotential block end   ###
  simulation_cell
     SC 15.0000
     boundary_conditions aperiodic
  end

  cutoff 50.0
  mult 1
  xc hf
  lmbfgs
  tolerances 1.0e-9 1.0e-9

  virtual 18
end
set nwpw:cif_filename H2

#set nwpw:CI_maxit_orb 15
#set nwpw:CI_maxit_linesearch 15
set pspw:HFX_screening_radius 14.0


set nwpw:2qintegrals .true.
set nwpw:3x3_virtual .true.

task pspw energy
================================================================================


                                         
                                         


             Northwest Computational Chemistry Package (NWChem) 7.2.3
             --------------------------------------------------------


                    Environmental Molecular Sciences Laboratory
                       Pacific Northwest National Laboratory
                                Richland, WA 99352

                              Copyright (c) 1994-2022
                       Pacific Northwest National Laboratory
                            Battelle Memorial Institute

             NWChem is an open-source computational chemistry package
                        distributed under the terms of the
                      Educational Community License (ECL) 2.0
             A copy of the license is included with this distribution
                              in the LICENSE.TXT file

                                  ACKNOWLEDGMENT
                                  --------------

            This software and its documentation were developed at the
            EMSL at Pacific Northwest National Laboratory, a multiprogram
            national laboratory, operated for the U.S. Department of Energy
            by Battelle under Contract Number DE-AC05-76RL01830. Support
            for this work was provided by the Department of Energy Office
            of Biological and Environmental Research, Office of Basic
            Energy Sciences, and the Office of Advanced Scientific Computing.


           Job information
           ---------------

    hostname        = mqs-al
    program         = nwchem
    date            = Sun Apr  6 15:10:49 2025

    compiled        = Thu_Oct_31_08:55:15_2024
    source          = /home/conda/feedstock_root/build_artifacts/nwchem_1730356057992/work
    nwchem branch   = 7.2.3
    nwchem revision = c400b04
    ga revision     = 5.8.0
    use scalapack   = T
    input           = H2-3.5.nw
    prefix          = pspw_hf_H2.
    data base       = ./pspw_hf_H2.db
    status          = startup
    nproc           =       24
    time left       =     -1s



           Memory information
           ------------------

    heap     =  157286394 doubles =   1200.0 Mbytes
    stack    =  157286399 doubles =   1200.0 Mbytes
    global   =    1310720 doubles =     10.0 Mbytes (distinct from heap & stack)
    total    =  315883513 doubles =   2410.0 Mbytes
    verify   = yes
    hardfail = no 


           Directory information
           ---------------------

  0 permanent = .
  0 scratch   = .




                                NWChem Input Module
                                -------------------


               swnc: e theory=pspw4 xc=hf formula=H2 charge=0 mult=1
               -----------------------------------------------------

 Scaling coordinates for geometry "geometry" by  1.889725989
 (inverse scale =  0.529177249)

  zeroes
  zeroes
  zeroes
  zeroes
  zeroes
  zeroes
  zeroes
  zeroes
  zeroes
  zeroes
  zeroes
  zeroes
  zeroes
  zeroes
  zeroes
  zeroes
  zeroes
  zeroes
  zeroes
  zeroes
  zeroes
  zeroes
  zeroes
  zeroes
  zeroes
  zeroes
  zeroes
  zeroes
  zeroes
  zeroes
  zeroes
  zeroes
  zeroes
  zeroes
  zeroes
  zeroes
  zeroes
  zeroes
  zeroes
  zeroes
  zeroes
  zeroes
  zeroes
  zeroes
  zeroes
  zeroes
  zeroes
  zeroes
 ORDER OF PRIMARY AXIS IS BEING SET TO 4
 D4H symmetry detected

          ------
          auto-z
          ------
     1 autoz failed with cvr_scaling = 1.2 changing to 1.3
     2 autoz failed with cvr_scaling = 1.3 changing to 1.4
     3 autoz failed with cvr_scaling = 1.4 changing to 1.5
     4 autoz failed with cvr_scaling = 1.5 changing to 1.6
     5 autoz failed with cvr_scaling = 1.6 changing to 1.7

 AUTOZ failed to generate good internal coordinates.
 Cartesian coordinates will be used in optimizations.



                             Geometry "geometry" -> ""
                             -------------------------

 Output coordinates in angstroms (scale by  1.889725989 to convert to a.u.)

  No.       Tag          Charge          X              Y              Z
 ---- ---------------- ---------- -------------- -------------- --------------
    1 H                    1.0000     0.00000000     0.00000000    -1.75000000
    2 H                    1.0000     0.00000000     0.00000000     1.75000000

      Atomic Mass 
      ----------- 

      H                  1.007825


 Effective nuclear repulsion energy (a.u.)       0.1511934997

            Nuclear Dipole moment (a.u.) 
            ----------------------------
        X                 Y               Z
 ---------------- ---------------- ----------------
     0.0000000000     0.0000000000     0.0000000000

      Symmetry information
      --------------------

 Group name             D4h       
 Group number             28
 Group order              16
 No. of unique centers     1

      Symmetry unique atoms

     1


            XYZ format geometry
            -------------------
     2
 geometry
 H                     0.00000000     0.00000000    -1.75000000
 H                     0.00000000     0.00000000     1.75000000

          ****************************************************
          *                                                  *
          *               NWPW PSPW Calculation              *
          *                                                  *
          * [ (Grassmann/Stiefel manifold implementation)  ] *
          *                                                  *
          *      [ NorthWest Chemistry implementation ]      *
          *                                                  *
          *            version #5.10   06/12/02              *
          *                                                  *
          *    This code was developed by Eric J. Bylaska,   *
          *    and was based upon algorithms and code        *
          *    developed by the group of Prof. John H. Weare *
          *                                                  *
          ****************************************************
     >>>  JOB STARTED       AT Sun Apr  6 15:10:49 2025  <<<
          ================ input data ========================

 input psi filename:./pspw_hf_H2.movecs

 number of processors used:        24
 processor grid           :  24 x   1
 parallel mapping         :2d-hilbert
 parallel mapping         :  balanced
 number of threads        :         1
 parallel io              :       off

 options:
      boundary conditions  = aperiodic   (version4)
      electron spin        = restricted
      exchange-correlation = Hartree-Fock
      - HFX relaxed
      - HFX restricted orbitals :    1
      - HFX free-space coulomb solver


 elements involved in the cluster:
      1: H   valence charge:  1.0000  lmax=  1
             comment    : Parameterized (Chem.Phys.Lett., vol 322, page 447) Hamman psp
             pseudpotential type            :   0
             highest angular component      :   1
             local potential used           :   1
             number of non-local projections:   1
             aperiodic cutoff radius        :  1.000
             cutoff =   0.800   0.800


 total charge:   0.000

 atomic composition:
     H   :    2

 number of electrons: spin up=     1 (   1 per task)  down=     1 (   1 per task) (Fourier space)
 number of orbitals : spin up=     1 (   1 per task)  down=     1 (   1 per task) (Fourier space)

 supercell:
      cell_name:  cell_default                                      
      lattice:    a1=<  15.000   0.000   0.000 >
                  a2=<   0.000  15.000   0.000 >
                  a3=<   0.000   0.000  15.000 >
      reciprocal: b1=<   0.419   0.000   0.000 >
                  b2=<   0.000   0.419   0.000 >
                  b3=<   0.000   0.000   0.419 >
      lattice:    a=      15.000 b=     15.000 c=      15.000
                  alpha=  90.000 beta=  90.000 gamma=  90.000
                  omega=      3375.0

      density cutoff=100.000  fft= 70x 70x 70(    80618 waves     3359 per task)
      wavefnc cutoff= 50.000  fft= 70x 70x 70(    28526 waves     1188 per task)

 technical parameters:
      time step=      5.80     fictitious mass=  400000.0
      tolerance=0.100E-08 (energy)   0.100E-08 (density)
      maximum iterations =      1000 (   10 inner    100 outer )





== Energy Calculation ==


          ============ Grassmann lmbfgs iteration ============
     >>>  ITERATION STARTED AT Sun Apr  6 15:10:56 2025  <<<
    iter.           Energy         DeltaE       DeltaRho 
    ------------------------------------------------------
      10   -0.8076756791E+00   -0.15974E-02    0.70733E-02
     -  10 steepest descent iterations performed
      20   -0.8127970491E+00   -0.13623E-03    0.76577E-04
      30   -0.8130334057E+00   -0.53416E-05    0.53269E-05
      40   -0.8130484528E+00   -0.22671E-06    0.16010E-06
      50   -0.8130491422E+00   -0.11878E-07    0.76210E-09
      60   -0.8130491716E+00   -0.87442E-09    0.74537E-10
  *** tolerance ok. iteration terminated
     >>>  ITERATION ENDED   AT Sun Apr  6 15:11:02 2025  <<<


==  Summary Of Results  ==

 number of electrons: spin up=    1.00000  down=    1.00000 (real space)

 total     energy    :  -0.8130491716E+00 (   -0.40652E+00/ion)
 total orbital energy:  -0.6392100831E+00 (   -0.63921E+00/electron)
 hartree   energy    :   0.6500651763E+00 (    0.65007E+00/electron)
 exc-corr  energy    :   0.0000000000E+00 (    0.00000E+00/electron)
 HF exchange energy  :  -0.3250325881E+00 (   -0.32503E+00/electron)
 ion-ion   energy    :   0.1511934997E+00 (    0.75597E-01/ion)

 kinetic (planewave) :   0.6171981574E+00 (    0.61720E+00/electron)
 V_local (planewave) :  -0.1759826413E+01 (   -0.17598E+01/electron)
 V_nl    (planewave) :  -0.1466470041E+00 (   -0.14665E+00/electron)
 V_Coul  (planewave) :   0.1300130353E+01 (    0.13001E+01/electron)
 V_xc.   (planewave) :   0.0000000000E+00 (    0.00000E+00/electron)
 K.S. HFX energy     :  -0.6500651763E+00 (   -0.65007E+00/electron)
 Virial Coefficient  :  -0.9824123046E+00

 orbital energies:
    -0.3196050E+00 (  -8.697eV)


== Virtual Orbital Calculation ==


 input epsi filename:./pspw_hf_H2.emovecs

 COVOs Mimimization
 ------------------
CI gradient algorithm =         3
maxit_sweeps          =         3
maxit_orb             =       120
maxit_linesearch      =        15
maxerror              = 0.100E-08

     orb,it,eci,eold,eci-eold=                    1                    1 -0.92109932284700380      -0.91895586268849827       -2.1434601585055280E-003 F
     orb,it,eci,eold,eci-eold=                    1                    2 -0.92146234979465458      -0.92109932284700380       -3.6302694765077970E-004 F
     orb,it,eci,eold,eci-eold=                    1                    3 -0.93551204333899574      -0.92146234979465458       -1.4049693544341157E-002 F
     orb,it,eci,eold,eci-eold=                    1                    4 -0.93593795407411462      -0.93551204333899574       -4.2591073511888400E-004 F
     orb,it,eci,eold,eci-eold=                    1                    5 -0.93854002506385037      -0.93593795407411462       -2.6020709897357497E-003 F
     orb,it,eci,eold,eci-eold=                    1                    6 -0.94317656932950977      -0.93854002506385037       -4.6365442656594036E-003 F
     orb,it,eci,eold,eci-eold=                    1                    7 -0.94711517990699767      -0.94317656932950977       -3.9386105774878999E-003 F
     orb,it,eci,eold,eci-eold=                    1                    8 -0.94860083545626916      -0.94711517990699767       -1.4856555492714918E-003 F
     orb,it,eci,eold,eci-eold=                    1                    9 -0.94961802529825212      -0.94860083545626916       -1.0171898419829573E-003 F
     orb,it,eci,eold,eci-eold=                    1                   10 -0.95576293490800268      -0.94961802529825212       -6.1449096097505596E-003 F
     orb,it,eci,eold,eci-eold=                    1                   11 -0.95603149650856101      -0.95576293490800268       -2.6856160055832579E-004 F
     orb,it,eci,eold,eci-eold=                    1                   12 -0.95613856809500464      -0.95603149650856101       -1.0707158644363002E-004 F
     orb,it,eci,eold,eci-eold=                    1                   13 -0.95987978698446841      -0.95613856809500464       -3.7412188894637710E-003 F
     orb,it,eci,eold,eci-eold=                    1                   14 -0.96175117688260547      -0.95987978698446841       -1.8713898981370658E-003 F
     orb,it,eci,eold,eci-eold=                    1                   15 -0.96444965977617614      -0.96175117688260547       -2.6984828935706640E-003 F
     orb,it,eci,eold,eci-eold=                    1                   16 -0.96598073777119775      -0.96444965977617614       -1.5310779950216125E-003 F
     orb,it,eci,eold,eci-eold=                    1                   17 -0.96734848983855937      -0.96598073777119775       -1.3677520673616161E-003 F
     orb,it,eci,eold,eci-eold=                    1                   18 -0.96798944519908470      -0.96734848983855937       -6.4095536052533042E-004 F
     orb,it,eci,eold,eci-eold=                    1                   19 -0.96953058052988228      -0.96798944519908470       -1.5411353307975828E-003 F
     orb,it,eci,eold,eci-eold=                    1                   20 -0.96987296039188720      -0.96953058052988228       -3.4237986200491566E-004 F
     orb,it,eci,eold,eci-eold=                    1                   21 -0.97015495020095022      -0.96987296039188720       -2.8198980906302129E-004 F
     orb,it,eci,eold,eci-eold=                    1                   22 -0.97145742778960908      -0.97015495020095022       -1.3024775886588680E-003 F
     orb,it,eci,eold,eci-eold=                    1                   23 -0.97153716318183592      -0.97145742778960908       -7.9735392226831792E-005 F
     orb,it,eci,eold,eci-eold=                    1                   24 -0.97161377127783155      -0.97153716318183592       -7.6608095995633896E-005 F
     orb,it,eci,eold,eci-eold=                    1                   25 -0.97294144136751459      -0.97161377127783155       -1.3276700896830418E-003 F
     orb,it,eci,eold,eci-eold=                    1                   26 -0.97297584469841647      -0.97294144136751459       -3.4403330901877638E-005 F
     orb,it,eci,eold,eci-eold=                    1                   27 -0.97299681663857451      -0.97297584469841647       -2.0971940158043267E-005 F
     orb,it,eci,eold,eci-eold=                    1                   28 -0.97402387332339946      -0.97299681663857451       -1.0270566848249452E-003 F
     orb,it,eci,eold,eci-eold=                    1                   29 -0.97452497569913143      -0.97402387332339946       -5.0110237573197658E-004 F
     orb,it,eci,eold,eci-eold=                    1                   30 -0.97485665106827768      -0.97452497569913143       -3.3167536914624485E-004 F
     orb,it,eci,eold,eci-eold=                    1                   31 -0.97504990476527453      -0.97485665106827768       -1.9325369699685346E-004 F
     orb,it,eci,eold,eci-eold=                    1                   32 -0.97554743341737948      -0.97504990476527453       -4.9752865210495045E-004 F
     orb,it,eci,eold,eci-eold=                    1                   33 -0.97555891123175020      -0.97554743341737948       -1.1477814370719486E-005 F
     orb,it,eci,eold,eci-eold=                    1                   34 -0.97559165122590907      -0.97555891123175020       -3.2739994158870189E-005 F
     orb,it,eci,eold,eci-eold=                    1                   35 -0.97605141900318937      -0.97559165122590907       -4.5976777728029550E-004 F
     orb,it,eci,eold,eci-eold=                    1                   36 -0.97632306841232919      -0.97605141900318937       -2.7164940913981805E-004 F
     orb,it,eci,eold,eci-eold=                    1                   37 -0.97655551059156909      -0.97632306841232919       -2.3244217923990007E-004 F
     orb,it,eci,eold,eci-eold=                    1                   38 -0.97667000947809213      -0.97655551059156909       -1.1449888652304008E-004 F
     orb,it,eci,eold,eci-eold=                    1                   39 -0.97690767037598025      -0.97667000947809213       -2.3766089788812561E-004 F
     orb,it,eci,eold,eci-eold=                    1                   40 -0.97704009937160741      -0.97690767037598025       -1.3242899562715404E-004 F
     orb,it,eci,eold,eci-eold=                    1                   41 -0.97716867148429210      -0.97704009937160741       -1.2857211268468838E-004 F
     orb,it,eci,eold,eci-eold=                    1                   42 -0.97723754330043588      -0.97716867148429210       -6.8871816143789566E-005 F
     orb,it,eci,eold,eci-eold=                    1                   43 -0.97737922027536950      -0.97723754330043588       -1.4167697493361331E-004 F
     orb,it,eci,eold,eci-eold=                    1                   44 -0.97738686006209763      -0.97737922027536950       -7.6397867281308152E-006 F
     orb,it,eci,eold,eci-eold=                    1                   45 -0.97739170107279505      -0.97738686006209763       -4.8410106974206002E-006 F
     orb,it,eci,eold,eci-eold=                    1                   46 -0.97748776192677089      -0.97739170107279505       -9.6060853975843408E-005 F
     orb,it,eci,eold,eci-eold=                    1                   47 -0.97752149773116259      -0.97748776192677089       -3.3735804391699098E-005 F
     orb,it,eci,eold,eci-eold=                    1                   48 -0.97752443098431563      -0.97752149773116259       -2.9332531530368300E-006 F
     orb,it,eci,eold,eci-eold=                    1                   49 -0.97759804913329107      -0.97752443098431563       -7.3618148975440612E-005 F
     orb,it,eci,eold,eci-eold=                    1                   50 -0.97765691832138146      -0.97759804913329107       -5.8869188090393543E-005 F
     orb,it,eci,eold,eci-eold=                    1                   51 -0.97768046353566818      -0.97765691832138146       -2.3545214286713190E-005 F
     orb,it,eci,eold,eci-eold=                    1                   52 -0.97773613732551168      -0.97768046353566818       -5.5673789843502242E-005 F
     orb,it,eci,eold,eci-eold=                    1                   53 -0.97774227529636226      -0.97773613732551168       -6.1379708505837627E-006 F
     orb,it,eci,eold,eci-eold=                    1                   54 -0.97774928179348242      -0.97774227529636226       -7.0064971201544424E-006 F
     orb,it,eci,eold,eci-eold=                    1                   55 -0.97780339245331538      -0.97774928179348242       -5.4110659832962149E-005 F
     orb,it,eci,eold,eci-eold=                    1                   56 -0.97783023315290263      -0.97780339245331538       -2.6840699587249439E-005 F
     orb,it,eci,eold,eci-eold=                    1                   57 -0.97783749294136602      -0.97783023315290263       -7.2597884633873733E-006 F
     orb,it,eci,eold,eci-eold=                    1                   58 -0.97787455569801163      -0.97783749294136602       -3.7062756645611650E-005 F
     orb,it,eci,eold,eci-eold=                    1                   59 -0.97788837990595767      -0.97787455569801163       -1.3824207946044886E-005 F
     orb,it,eci,eold,eci-eold=                    1                   60 -0.97789455828825544      -0.97788837990595767       -6.1783822977723446E-006 F
     orb,it,eci,eold,eci-eold=                    1                   61 -0.97792904586693941      -0.97789455828825544       -3.4487578683961573E-005 F
     orb,it,eci,eold,eci-eold=                    1                   62 -0.97794573043588795      -0.97792904586693941       -1.6684568948543976E-005 F
     orb,it,eci,eold,eci-eold=                    1                   63 -0.97795121388022221      -0.97794573043588795       -5.4834443342643979E-006 F
     orb,it,eci,eold,eci-eold=                    1                   64 -0.97797581166977587      -0.97795121388022221       -2.4597789553659766E-005 F
     orb,it,eci,eold,eci-eold=                    1                   65 -0.97798662486508803      -0.97797581166977587       -1.0813195312153745E-005 F
     orb,it,eci,eold,eci-eold=                    1                   66 -0.97799295051528956      -0.97798662486508803       -6.3256502015329730E-006 F
     orb,it,eci,eold,eci-eold=                    1                   67 -0.97801832103286368      -0.97799295051528956       -2.5370517574119233E-005 F
     orb,it,eci,eold,eci-eold=                    1                   68 -0.97802623224674556      -0.97801832103286368       -7.9112138818837607E-006 F
     orb,it,eci,eold,eci-eold=                    1                   69 -0.97802796932103941      -0.97802623224674556       -1.7370742938505046E-006 F
     orb,it,eci,eold,eci-eold=                    1                   70 -0.97804394247337922      -0.97802796932103941       -1.5973152339809893E-005 F
     orb,it,eci,eold,eci-eold=                    1                   71 -0.97804925823087263      -0.97804394247337922       -5.3157574934070695E-006 F
     orb,it,eci,eold,eci-eold=                    1                   72 -0.97805084578162071      -0.97804925823087263       -1.5875507480833662E-006 F
     orb,it,eci,eold,eci-eold=                    1                   73 -0.97806467038146172      -0.97805084578162071       -1.3824599841005814E-005 F
     orb,it,eci,eold,eci-eold=                    1                   74 -0.97807162395992864      -0.97806467038146172       -6.9535784669172429E-006 F
     orb,it,eci,eold,eci-eold=                    1                   75 -0.97807378358885200      -0.97807162395992864       -2.1596289233594135E-006 F
     orb,it,eci,eold,eci-eold=                    1                   76 -0.97808432868794060      -0.97807378358885200       -1.0545099088599130E-005 F
     orb,it,eci,eold,eci-eold=                    1                   77 -0.97808721362426843      -0.97808432868794060       -2.8849363278293794E-006 F
     orb,it,eci,eold,eci-eold=                    1                   78 -0.97808805994726300      -0.97808721362426843       -8.4632299457432225E-007 F
     orb,it,eci,eold,eci-eold=                    1                   79 -0.97809720247796583      -0.97808805994726300       -9.1425307028325520E-006 F
     orb,it,eci,eold,eci-eold=                    1                   80 -0.97810258558008156      -0.97809720247796583       -5.3831021157302317E-006 F
     orb,it,eci,eold,eci-eold=                    1                   81 -0.97810444607875224      -0.97810258558008156       -1.8604986706804993E-006 F
     orb,it,eci,eold,eci-eold=                    1                   82 -0.97811242532982168      -0.97810444607875224       -7.9792510694343122E-006 F
     orb,it,eci,eold,eci-eold=                    1                   83 -0.97811461391360055      -0.97811242532982168       -2.1885837788726548E-006 F
     orb,it,eci,eold,eci-eold=                    1                   84 -0.97811496669994236      -0.97811461391360055       -3.5278634180624380E-007 F
     orb,it,eci,eold,eci-eold=                    1                   85 -0.97812130849544399      -0.97811496669994236       -6.3417955016298322E-006 F
     orb,it,eci,eold,eci-eold=                    1                   86 -0.97812586537859647      -0.97812130849544399       -4.5568831524844811E-006 F
     orb,it,eci,eold,eci-eold=                    1                   87 -0.97812754617153519      -0.97812586537859647       -1.6807929387185894E-006 F
     orb,it,eci,eold,eci-eold=                    1                   88 -0.97813304457450168      -0.97812754617153519       -5.4984029664861822E-006 F
     orb,it,eci,eold,eci-eold=                    1                   89 -0.97813476421520162      -0.97813304457450168       -1.7196406999486769E-006 F
     orb,it,eci,eold,eci-eold=                    1                   90 -0.97813553396670028      -0.97813476421520162       -7.6975149865265990E-007 F
     orb,it,eci,eold,eci-eold=                    1                   91 -0.97814028485451376      -0.97813553396670028       -4.7508878134872035E-006 F
     orb,it,eci,eold,eci-eold=                    1                   92 -0.97814200000511797      -0.97814028485451376       -1.7151506042090148E-006 F
     orb,it,eci,eold,eci-eold=                    1                   93 -0.97814229879081838      -0.97814200000511797       -2.9878570040331454E-007 F
     orb,it,eci,eold,eci-eold=                    1                   94 -0.97814561738351247      -0.97814229879081838       -3.3185926940904054E-006 F
     orb,it,eci,eold,eci-eold=                    1                   95 -0.97814724620457660      -0.97814561738351247       -1.6288210641368650E-006 F
     orb,it,eci,eold,eci-eold=                    1                   96 -0.97814779980406086      -0.97814724620457660       -5.5359948425426353E-007 F
     orb,it,eci,eold,eci-eold=                    1                   97 -0.97815069238541741      -0.97814779980406086       -2.8925813565505720E-006 F
     orb,it,eci,eold,eci-eold=                    1                   98 -0.97815203949444063      -0.97815069238541741       -1.3471090232197724E-006 F
     orb,it,eci,eold,eci-eold=                    1                   99 -0.97815254430694831      -0.97815203949444063       -5.0481250768452668E-007 F
     orb,it,eci,eold,eci-eold=                    1                  100 -0.97815480857406378      -0.97815254430694831       -2.2642671154704530E-006 F
     orb,it,eci,eold,eci-eold=                    1                  101 -0.97815543566402152      -0.97815480857406378       -6.2708995773874676E-007 F
     orb,it,eci,eold,eci-eold=                    1                  102 -0.97815557201978143      -0.97815543566402152       -1.3635575990544879E-007 F
     orb,it,eci,eold,eci-eold=                    1                  103 -0.97815707152912934      -0.97815557201978143       -1.4995093479130972E-006 F
     orb,it,eci,eold,eci-eold=                    1                  104 -0.97815778738986925      -0.97815707152912934       -7.1586073990825838E-007 F
     orb,it,eci,eold,eci-eold=                    1                  105 -0.97815811024603105      -0.97815778738986925       -3.2285616180516286E-007 F
     orb,it,eci,eold,eci-eold=                    1                  106 -0.97815951960327374      -0.97815811024603105       -1.4093572426876477E-006 F
     orb,it,eci,eold,eci-eold=                    1                  107 -0.97816003682571839      -0.97815951960327374       -5.1722244465146616E-007 F
     orb,it,eci,eold,eci-eold=                    1                  108 -0.97816022410815084      -0.97816003682571839       -1.8728243245114129E-007 F
     orb,it,eci,eold,eci-eold=                    1                  109 -0.97816139778134148      -0.97816022410815084       -1.1736731906353270E-006 F
     orb,it,eci,eold,eci-eold=                    1                  110 -0.97816205037304349      -0.97816139778134148       -6.5259170201059646E-007 F
     orb,it,eci,eold,eci-eold=                    1                  111 -0.97816231722739122      -0.97816205037304349       -2.6685434773021655E-007 F
     orb,it,eci,eold,eci-eold=                    1                  112 -0.97816332794316341      -0.97816231722739122       -1.0107157721872539E-006 F
     orb,it,eci,eold,eci-eold=                    1                  113 -0.97816371923616852      -0.97816332794316341       -3.9129300510865050E-007 F
     orb,it,eci,eold,eci-eold=                    1                  114 -0.97816389825676220      -0.97816371923616852       -1.7902059368246626E-007 F
     orb,it,eci,eold,eci-eold=                    1                  115 -0.97816474707785073      -0.97816389825676220       -8.4882108852823990E-007 F
     orb,it,eci,eold,eci-eold=                    1                  116 -0.97816496432644828      -0.97816474707785073       -2.1724859755600789E-007 F
     orb,it,eci,eold,eci-eold=                    1                  117 -0.97816499814164282      -0.97816496432644828       -3.3815194533381998E-008 F
     orb,it,eci,eold,eci-eold=                    1                  118 -0.97816560518108508      -0.97816499814164282       -6.0703944226858653E-007 F
     orb,it,eci,eold,eci-eold=                    1                  119 -0.97816590892367716      -0.97816560518108508       -3.0374259207821552E-007 F
     orb,it,eci,eold,eci-eold=                    1                  120 -0.97816599617962163      -0.97816590892367716       -8.7255944469788460E-008 F
     orb,it,eci,eold,eci-eold=                    1                  121 -0.97816649045632720      -0.97816599617962163       -4.9427670556490000E-007 F
     orbital   1 current e= -0.137148E+00 error=0.830E-01 (eci= -0.978166490E+00 error=0.494E-06) iterations 121(   0 preconditioned, Ep,Sp= 20.0  200.0)
     orb,it,eci,eold,eci-eold=                    1                    1 -0.97816789659605419      -0.97816649045632720       -1.4061397269893305E-006 F
     orb,it,eci,eold,eci-eold=                    1                    2 -0.97816847154415143      -0.97816789659605419       -5.7494809724278895E-007 F
     orb,it,eci,eold,eci-eold=                    1                    3 -0.97816910306937577      -0.97816847154415143       -6.3152522433718161E-007 F
     orb,it,eci,eold,eci-eold=                    1                    4 -0.97816915052503128      -0.97816910306937577       -4.7455655516337458E-008 F
     orb,it,eci,eold,eci-eold=                    1                    5 -0.97816915499000545      -0.97816915052503128       -4.4649741681723754E-009 F
     orb,it,eci,eold,eci-eold=                    1                    6 -0.97816949383618379      -0.97816915499000545       -3.3884617833823683E-007 F
     orb,it,eci,eold,eci-eold=                    1                    7 -0.97816953115228433      -0.97816949383618379       -3.7316100542916786E-008 F
     orb,it,eci,eold,eci-eold=                    1                    8 -0.97816956936289401      -0.97816953115228433       -3.8210609676347929E-008 F
     orb,it,eci,eold,eci-eold=                    1                    9 -0.97816968910563529      -0.97816956936289401       -1.1974274127801721E-007 F
     orb,it,eci,eold,eci-eold=                    1                   10 -0.97816970983648976      -0.97816968910563529       -2.0730854477513105E-008 F
     orb,it,eci,eold,eci-eold=                    1                   11 -0.97816977277470707      -0.97816970983648976       -6.2938217304520094E-008 F
     orb,it,eci,eold,eci-eold=                    1                   12 -0.97816990246706281      -0.97816977277470707       -1.2969235574367133E-007 F
     orb,it,eci,eold,eci-eold=                    1                   13 -0.97816996124462918      -0.97816990246706281       -5.8777566369627721E-008 F
     orb,it,eci,eold,eci-eold=                    1                   14 -0.97817000479110772      -0.97816996124462918       -4.3546478534217670E-008 F
     orb,it,eci,eold,eci-eold=                    1                   15 -0.97817002697922217      -0.97817000479110772       -2.2188114456866970E-008 F
     orb,it,eci,eold,eci-eold=                    1                   16 -0.97817007786289167      -0.97817002697922217       -5.0883669500123574E-008 F
     orb,it,eci,eold,eci-eold=                    1                   17 -0.97817010594123932      -0.97817007786289167       -2.8078347646953716E-008 F
     orb,it,eci,eold,eci-eold=                    1                   18 -0.97817012112599389      -0.97817010594123932       -1.5184754564856462E-008 F
     orb,it,eci,eold,eci-eold=                    1                   19 -0.97817012790984448      -0.97817012112599389       -6.7838505923845105E-009 F
     orb,it,eci,eold,eci-eold=                    1                   20 -0.97817014739089203      -0.97817012790984448       -1.9481047552893926E-008 F
     orb,it,eci,eold,eci-eold=                    1                   21 -0.97817015821738107      -0.97817014739089203       -1.0826489038606724E-008 F
     orb,it,eci,eold,eci-eold=                    1                   22 -0.97817017012325858      -0.97817015821738107       -1.1905877506102058E-008 F
     orb,it,eci,eold,eci-eold=                    1                   23 -0.97817017684902696      -0.97817017012325858       -6.7257683866728257E-009 F
     orb,it,eci,eold,eci-eold=                    1                   24 -0.97817018108033016      -0.97817017684902696       -4.2313031967111669E-009 F
     orb,it,eci,eold,eci-eold=                    1                   25 -0.97817018254669441      -0.97817018108033016       -1.4663642522450004E-009 F
     orb,it,eci,eold,eci-eold=                    1                   26 -0.97817018983600779      -0.97817018254669441       -7.2893133751250616E-009 F
     orb,it,eci,eold,eci-eold=                    1                   27 -0.97817019085552548      -0.97817018983600779       -1.0195176924909788E-009 F
     orb,it,eci,eold,eci-eold=                    1                   28 -0.97817019085552548      -0.97817019085552548        0.0000000000000000      F
     orbital   1 current e= -0.137156E+00 error=0.809E-05 (eci= -0.978170191E+00 error=0.000E+00) iterations  28(   0 preconditioned, Ep,Sp= 20.0  200.0)
     orb,it,eci,eold,eci-eold=                    1                    1 -0.97817019036423358      -0.97817019036423358        0.0000000000000000      F
     orbital   1 current e= -0.137156E+00 error=0.225E-07 (eci= -0.978170190E+00 error=0.000E+00) iterations   1(   0 preconditioned, Ep,Sp= 20.0  200.0)
     orb,it,eci,eold,eci-eold=                    2                    1 -0.81606895086001607      -0.81606635361047208       -2.5972495439896548E-006 F
     orb,it,eci,eold,eci-eold=                    2                    2 -0.81611134416509801      -0.81606895086001607       -4.2393305081933619E-005 F
     orb,it,eci,eold,eci-eold=                    2                    3 -0.81637257505607619      -0.81611134416509801       -2.6123089097818131E-004 F
     orb,it,eci,eold,eci-eold=                    2                    4 -0.81649966077366631      -0.81637257505607619       -1.2708571759012521E-004 F
     orb,it,eci,eold,eci-eold=                    2                    5 -0.81669362232820419      -0.81649966077366631       -1.9396155453788033E-004 F
     orb,it,eci,eold,eci-eold=                    2                    6 -0.81681506654817437      -0.81669362232820419       -1.2144421997017929E-004 F
     orb,it,eci,eold,eci-eold=                    2                    7 -0.81682899631456074      -0.81681506654817437       -1.3929766386366893E-005 F
     orb,it,eci,eold,eci-eold=                    2                    8 -0.81682983584518309      -0.81682899631456074       -8.3953062235408993E-007 F
     orb,it,eci,eold,eci-eold=                    2                    9 -0.81693667656555513      -0.81682983584518309       -1.0684072037203673E-004 F
     orb,it,eci,eold,eci-eold=                    2                   10 -0.81697202606205876      -0.81693667656555513       -3.5349496503633837E-005 F
     orb,it,eci,eold,eci-eold=                    2                   11 -0.81698216310678795      -0.81697202606205876       -1.0137044729185973E-005 F
     orb,it,eci,eold,eci-eold=                    2                   12 -0.81703838388497185      -0.81698216310678795       -5.6220778183901920E-005 F
     orb,it,eci,eold,eci-eold=                    2                   13 -0.81706134817750620      -0.81703838388497185       -2.2964292534344288E-005 F
     orb,it,eci,eold,eci-eold=                    2                   14 -0.81710758490309110      -0.81706134817750620       -4.6236725584902771E-005 F
     orb,it,eci,eold,eci-eold=                    2                   15 -0.81712443933699608      -0.81710758490309110       -1.6854433904978094E-005 F
     orb,it,eci,eold,eci-eold=                    2                   16 -0.81713724432248624      -0.81712443933699608       -1.2804985490166843E-005 F
     orb,it,eci,eold,eci-eold=                    2                   17 -0.81716983482824812      -0.81713724432248624       -3.2590505761875832E-005 F
     orb,it,eci,eold,eci-eold=                    2                   18 -0.81717294616738412      -0.81716983482824812       -3.1113391359971487E-006 F
     orb,it,eci,eold,eci-eold=                    2                   19 -0.81717994804893435      -0.81717294616738412       -7.0018815502281839E-006 F
     orb,it,eci,eold,eci-eold=                    2                   20 -0.81721683908020593      -0.81717994804893435       -3.6891031271579777E-005 F
     orb,it,eci,eold,eci-eold=                    2                   21 -0.81722398148343556      -0.81721683908020593       -7.1424032296318885E-006 F
     orb,it,eci,eold,eci-eold=                    2                   22 -0.81722613131092481      -0.81722398148343556       -2.1498274892506331E-006 F
     orb,it,eci,eold,eci-eold=                    2                   23 -0.81724966043513114      -0.81722613131092481       -2.3529124206334018E-005 F
     orb,it,eci,eold,eci-eold=                    2                   24 -0.81726393967877398      -0.81724966043513114       -1.4279243642834061E-005 F
     orb,it,eci,eold,eci-eold=                    2                   25 -0.81728498631139423      -0.81726393967877398       -2.1046632620258521E-005 F
     orb,it,eci,eold,eci-eold=                    2                   26 -0.81729691875566790      -0.81728498631139423       -1.1932444273665688E-005 F
     orb,it,eci,eold,eci-eold=                    2                   27 -0.81730946987089736      -0.81729691875566790       -1.2551115229464394E-005 F
     orb,it,eci,eold,eci-eold=                    2                   28 -0.81731496453176744      -0.81730946987089736       -5.4946608700756627E-006 F
     orb,it,eci,eold,eci-eold=                    2                   29 -0.81732484331445177      -0.81731496453176744       -9.8787826843249604E-006 F
     orb,it,eci,eold,eci-eold=                    2                   30 -0.81732494355346086      -0.81732484331445177       -1.0023900909317263E-007 F
     orb,it,eci,eold,eci-eold=                    2                   31 -0.81732631872707695      -0.81732494355346086       -1.3751736160916295E-006 F
     orb,it,eci,eold,eci-eold=                    2                   32 -0.81733619247501677      -0.81732631872707695       -9.8737479398147698E-006 F
     orb,it,eci,eold,eci-eold=                    2                   33 -0.81733787548588155      -0.81733619247501677       -1.6830108647836184E-006 F
     orb,it,eci,eold,eci-eold=                    2                   34 -0.81733834629180890      -0.81733787548588155       -4.7080592735504467E-007 F
     orb,it,eci,eold,eci-eold=                    2                   35 -0.81734675168300064      -0.81733834629180890       -8.4053911917347790E-006 F
     orb,it,eci,eold,eci-eold=                    2                   36 -0.81734834766454889      -0.81734675168300064       -1.5959815482524675E-006 F
     orb,it,eci,eold,eci-eold=                    2                   37 -0.81734836044235515      -0.81734834766454889       -1.2777806257524560E-008 F
     orb,it,eci,eold,eci-eold=                    2                   38 -0.81735311982922465      -0.81734836044235515       -4.7593868695017250E-006 F
     orb,it,eci,eold,eci-eold=                    2                   39 -0.81735511164639951      -0.81735311982922465       -1.9918171748622981E-006 F
     orb,it,eci,eold,eci-eold=                    2                   40 -0.81735561599736806      -0.81735511164639951       -5.0435096854428707E-007 F
     orb,it,eci,eold,eci-eold=                    2                   41 -0.81735968332802322      -0.81735561599736806       -4.0673306551664012E-006 F
     orb,it,eci,eold,eci-eold=                    2                   42 -0.81736196406106276      -0.81735968332802322       -2.2807330395391290E-006 F
     orb,it,eci,eold,eci-eold=                    2                   43 -0.81736298227844140      -0.81736196406106276       -1.0182173786343895E-006 F
     orb,it,eci,eold,eci-eold=                    2                   44 -0.81736653318135211      -0.81736298227844140       -3.5509029107094747E-006 F
     orb,it,eci,eold,eci-eold=                    2                   45 -0.81736672456082071      -0.81736653318135211       -1.9137946860592336E-007 F
     orb,it,eci,eold,eci-eold=                    2                   46 -0.81736696990699720      -0.81736672456082071       -2.4534617648619417E-007 F
     orb,it,eci,eold,eci-eold=                    2                   47 -0.81737076977887790      -0.81736696990699720       -3.7998718807052967E-006 F
     orb,it,eci,eold,eci-eold=                    2                   48 -0.81737134415740187      -0.81737076977887790       -5.7437852396535760E-007 F
     orb,it,eci,eold,eci-eold=                    2                   49 -0.81737152450126693      -0.81737134415740187       -1.8034386506382560E-007 F
     orb,it,eci,eold,eci-eold=                    2                   50 -0.81737437223022713      -0.81737152450126693       -2.8477289601980260E-006 F
     orb,it,eci,eold,eci-eold=                    2                   51 -0.81737603463553343      -0.81737437223022713       -1.6624053063019062E-006 F
     orb,it,eci,eold,eci-eold=                    2                   52 -0.81737731841853423      -0.81737603463553343       -1.2837830007939033E-006 F
     orb,it,eci,eold,eci-eold=                    2                   53 -0.81737790921668851      -0.81737731841853423       -5.9079815428741966E-007 F
     orb,it,eci,eold,eci-eold=                    2                   54 -0.81737925046056525      -0.81737790921668851       -1.3412438767401724E-006 F
     orb,it,eci,eold,eci-eold=                    2                   55 -0.81737940030532685      -0.81737925046056525       -1.4984476159884963E-007 F
     orb,it,eci,eold,eci-eold=                    2                   56 -0.81737947089706986      -0.81737940030532685       -7.0591743006609420E-008 F
     orb,it,eci,eold,eci-eold=                    2                   57 -0.81738027299872973      -0.81737947089706986       -8.0210165986915882E-007 F
     orb,it,eci,eold,eci-eold=                    2                   58 -0.81738046531072195      -0.81738027299872973       -1.9231199221980688E-007 F
     orb,it,eci,eold,eci-eold=                    2                   59 -0.81738053285711953      -0.81738046531072195       -6.7546397586326634E-008 F
     orb,it,eci,eold,eci-eold=                    2                   60 -0.81738138384057124      -0.81738053285711953       -8.5098345170564471E-007 F
     orb,it,eci,eold,eci-eold=                    2                   61 -0.81738194889599769      -0.81738138384057124       -5.6505542644913476E-007 F
     orb,it,eci,eold,eci-eold=                    2                   62 -0.81738209164845843      -0.81738194889599769       -1.4275246074113568E-007 F
     orb,it,eci,eold,eci-eold=                    2                   63 -0.81738264080959910      -0.81738209164845843       -5.4916114067271593E-007 F
     orb,it,eci,eold,eci-eold=                    2                   64 -0.81738276877822547      -0.81738264080959910       -1.2796862636221817E-007 F
     orb,it,eci,eold,eci-eold=                    2                   65 -0.81738283247241339      -0.81738276877822547       -6.3694187923957202E-008 F
     orb,it,eci,eold,eci-eold=                    2                   66 -0.81738338687572787      -0.81738283247241339       -5.5440331447886848E-007 F
     orb,it,eci,eold,eci-eold=                    2                   67 -0.81738374120585044      -0.81738338687572787       -3.5433012257612972E-007 F
     orb,it,eci,eold,eci-eold=                    2                   68 -0.81738386473793589      -0.81738374120585044       -1.2353208544979566E-007 F
     orb,it,eci,eold,eci-eold=                    2                   69 -0.81738428824380660      -0.81738386473793589       -4.2350587070583146E-007 F
     orb,it,eci,eold,eci-eold=                    2                   70 -0.81738436632271960      -0.81738428824380660       -7.8078913001711214E-008 F
     orb,it,eci,eold,eci-eold=                    2                   71 -0.81738438600137908      -0.81738436632271960       -1.9678659479716032E-008 F
     orb,it,eci,eold,eci-eold=                    2                   72 -0.81738470676100672      -0.81738438600137908       -3.2075962763666865E-007 F
     orb,it,eci,eold,eci-eold=                    2                   73 -0.81738485680202877      -0.81738470676100672       -1.5004102205118386E-007 F
     orb,it,eci,eold,eci-eold=                    2                   74 -0.81738489262576253      -0.81738485680202877       -3.5823733757212040E-008 F
     orb,it,eci,eold,eci-eold=                    2                   75 -0.81738513412953617      -0.81738489262576253       -2.4150377364584585E-007 F
     orb,it,eci,eold,eci-eold=                    2                   76 -0.81738524139375923      -0.81738513412953617       -1.0726422305928907E-007 F
     orb,it,eci,eold,eci-eold=                    2                   77 -0.81738528402786681      -0.81738524139375923       -4.2634107577654845E-008 F
     orb,it,eci,eold,eci-eold=                    2                   78 -0.81738551274175530      -0.81738528402786681       -2.2871388849488028E-007 F
     orb,it,eci,eold,eci-eold=                    2                   79 -0.81738561947624711      -0.81738551274175530       -1.0673449180043093E-007 F
     orb,it,eci,eold,eci-eold=                    2                   80 -0.81738565017230935      -0.81738561947624711       -3.0696062247592693E-008 F
     orb,it,eci,eold,eci-eold=                    2                   81 -0.81738581059502957      -0.81738565017230935       -1.6042272021898896E-007 F
     orb,it,eci,eold,eci-eold=                    2                   82 -0.81738587481097325      -0.81738581059502957       -6.4215943673673337E-008 F
     orb,it,eci,eold,eci-eold=                    2                   83 -0.81738590131492916      -0.81738587481097325       -2.6503955918855127E-008 F
     orb,it,eci,eold,eci-eold=                    2                   84 -0.81738603727806347      -0.81738590131492916       -1.3596313430674911E-007 F
     orb,it,eci,eold,eci-eold=                    2                   85 -0.81738609958230302      -0.81738603727806347       -6.2304239545341034E-008 F
     orb,it,eci,eold,eci-eold=                    2                   86 -0.81738612633806040      -0.81738609958230302       -2.6755757387419976E-008 F
     orb,it,eci,eold,eci-eold=                    2                   87 -0.81738623878339567      -0.81738612633806040       -1.1244533526522105E-007 F
     orb,it,eci,eold,eci-eold=                    2                   88 -0.81738627089813654      -0.81738623878339567       -3.2114740866617808E-008 F
     orb,it,eci,eold,eci-eold=                    2                   89 -0.81738628167231542      -0.81738627089813654       -1.0774178882400065E-008 F
     orb,it,eci,eold,eci-eold=                    2                   90 -0.81738637264266989      -0.81738628167231542       -9.0970354471586745E-008 F
     orb,it,eci,eold,eci-eold=                    2                   91 -0.81738641267178358      -0.81738637264266989       -4.0029113690387419E-008 F
     orb,it,eci,eold,eci-eold=                    2                   92 -0.81738642269816419      -0.81738641267178358       -1.0026380614647223E-008 F
     orb,it,eci,eold,eci-eold=                    2                   93 -0.81738649117832374      -0.81738642269816419       -6.8480159542971819E-008 F
     orb,it,eci,eold,eci-eold=                    2                   94 -0.81738652051375538      -0.81738649117832374       -2.9335431639410103E-008 F
     orb,it,eci,eold,eci-eold=                    2                   95 -0.81738653004757333      -0.81738652051375538       -9.5338179573190018E-009 F
     orb,it,eci,eold,eci-eold=                    2                   96 -0.81738658459007918      -0.81738653004757333       -5.4542505845134315E-008 F
     orb,it,eci,eold,eci-eold=                    2                   97 -0.81738660597518753      -0.81738658459007918       -2.1385108350813198E-008 F
     orb,it,eci,eold,eci-eold=                    2                   98 -0.81738661347880448      -0.81738660597518753       -7.5036169500108940E-009 F
     orb,it,eci,eold,eci-eold=                    2                   99 -0.81738665804747712      -0.81738661347880448       -4.4568672641354112E-008 F
     orb,it,eci,eold,eci-eold=                    2                  100 -0.81738667414825295      -0.81738665804747712       -1.6100775823701952E-008 F
     orb,it,eci,eold,eci-eold=                    2                  101 -0.81738667866895620      -0.81738667414825295       -4.5207032561833671E-009 F
     orb,it,eci,eold,eci-eold=                    2                  102 -0.81738671498324666      -0.81738667866895620       -3.6314290463579368E-008 F
     orb,it,eci,eold,eci-eold=                    2                  103 -0.81738673222559854      -0.81738671498324666       -1.7242351879609430E-008 F
     orb,it,eci,eold,eci-eold=                    2                  104 -0.81738673716901067      -0.81738673222559854       -4.9434121240921058E-009 F
     orb,it,eci,eold,eci-eold=                    2                  105 -0.81738676592940296      -0.81738673716901067       -2.8760392289939318E-008 F
     orb,it,eci,eold,eci-eold=                    2                  106 -0.81738677913614366      -0.81738676592940296       -1.3206740701043884E-008 F
     orb,it,eci,eold,eci-eold=                    2                  107 -0.81738678414081822      -0.81738677913614366       -5.0046745636578294E-009 F
     orb,it,eci,eold,eci-eold=                    2                  108 -0.81738680929843255      -0.81738678414081822       -2.5157614325088673E-008 F
     orb,it,eci,eold,eci-eold=                    2                  109 -0.81738682081269887      -0.81738680929843255       -1.1514266318179978E-008 F
     orb,it,eci,eold,eci-eold=                    2                  110 -0.81738682504341342      -0.81738682081269887       -4.2307145564635107E-009 F
     orb,it,eci,eold,eci-eold=                    2                  111 -0.81738684465358480      -0.81738682504341342       -1.9610171375639140E-008 F
     orb,it,eci,eold,eci-eold=                    2                  112 -0.81738685008819023      -0.81738684465358480       -5.4346054323417547E-009 F
     orb,it,eci,eold,eci-eold=                    2                  113 -0.81738685137751455      -0.81738685008819023       -1.2893243139799893E-009 F
     orb,it,eci,eold,eci-eold=                    2                  114 -0.81738686567753827      -0.81738685137751455       -1.4300023720714705E-008 F
     orb,it,eci,eold,eci-eold=                    2                  115 -0.81738687223919637      -0.81738686567753827       -6.5616581057525991E-009 F
     orb,it,eci,eold,eci-eold=                    2                  116 -0.81738687434064361      -0.81738687223919637       -2.1014472384450755E-009 F
     orb,it,eci,eold,eci-eold=                    2                  117 -0.81738688604271459      -0.81738687434064361       -1.1702070978891754E-008 F
     orb,it,eci,eold,eci-eold=                    2                  118 -0.81738689035714596      -0.81738688604271459       -4.3144313677245805E-009 F
     orb,it,eci,eold,eci-eold=                    2                  119 -0.81738689172866497      -0.81738689035714596       -1.3715190094742979E-009 F
     orb,it,eci,eold,eci-eold=                    2                  120 -0.81738690154773397      -0.81738689172866497       -9.8190690023258753E-009 F
     orb,it,eci,eold,eci-eold=                    2                  121 -0.81738690658796553      -0.81738690154773397       -5.0402315654451968E-009 F
     orbital   2 current e=  0.349719E+00 error=0.648E-01 (eci= -0.817386907E+00 error=0.504E-08) iterations 121(   0 preconditioned, Ep,Sp= 20.0  200.0)
     orb,it,eci,eold,eci-eold=                    2                    1 -0.81738690658796553      -0.81738690658796553        0.0000000000000000      F
     orbital   2 current e=  0.349714E+00 error=0.519E-05 (eci= -0.817386907E+00 error=0.000E+00) iterations   1(   0 preconditioned, Ep,Sp= 20.0  200.0)
     orb,it,eci,eold,eci-eold=                    2                    1 -0.81738694772881071      -0.81738690606989861       -4.1658912097730649E-008 F
     orb,it,eci,eold,eci-eold=                    2                    2 -0.81738695295185138      -0.81738694772881071       -5.2230406666353701E-009 F
     orb,it,eci,eold,eci-eold=                    2                    3 -0.81738695997309585      -0.81738695295185138       -7.0212444747141944E-009 F
     orb,it,eci,eold,eci-eold=                    2                    4 -0.81738696361267349      -0.81738695997309585       -3.6395776392694756E-009 F
     orb,it,eci,eold,eci-eold=                    2                    5 -0.81738696361267349      -0.81738696361267349        0.0000000000000000      F
     orbital   2 current e=  0.349706E+00 error=0.850E-05 (eci= -0.817386964E+00 error=0.000E+00) iterations   5(   0 preconditioned, Ep,Sp= 20.0  200.0)
     orb,it,eci,eold,eci-eold=                    3                    1 -0.81496300838120805      -0.81490962101510789       -5.3387366100166034E-005 F
     orb,it,eci,eold,eci-eold=                    3                    2 -0.81496470719702474      -0.81496300838120805       -1.6988158166864054E-006 F
     orb,it,eci,eold,eci-eold=                    3                    3 -0.81502386265537474      -0.81496470719702474       -5.9155458350002021E-005 F
     orb,it,eci,eold,eci-eold=                    3                    4 -0.81504234546863952      -0.81502386265537474       -1.8482813264775189E-005 F
     orb,it,eci,eold,eci-eold=                    3                    5 -0.81506614507867658      -0.81504234546863952       -2.3799610037067431E-005 F
     orb,it,eci,eold,eci-eold=                    3                    6 -0.81511647015561484      -0.81506614507867658       -5.0325076938251279E-005 F
     orb,it,eci,eold,eci-eold=                    3                    7 -0.81513947879371740      -0.81511647015561484       -2.3008638102561818E-005 F
     orb,it,eci,eold,eci-eold=                    3                    8 -0.81516612479147077      -0.81513947879371740       -2.6645997753371731E-005 F
     orb,it,eci,eold,eci-eold=                    3                    9 -0.81518538603487289      -0.81516612479147077       -1.9261243402124428E-005 F
     orb,it,eci,eold,eci-eold=                    3                   10 -0.81521612511632213      -0.81518538603487289       -3.0739081449238093E-005 F
     orb,it,eci,eold,eci-eold=                    3                   11 -0.81523171877898004      -0.81521612511632213       -1.5593662657908958E-005 F
     orb,it,eci,eold,eci-eold=                    3                   12 -0.81525092127987775      -0.81523171877898004       -1.9202500897708141E-005 F
     orb,it,eci,eold,eci-eold=                    3                   13 -0.81526258364867121      -0.81525092127987775       -1.1662368793463607E-005 F
     orb,it,eci,eold,eci-eold=                    3                   14 -0.81528153732505915      -0.81526258364867121       -1.8953676387933882E-005 F
     orb,it,eci,eold,eci-eold=                    3                   15 -0.81529213313193394      -0.81528153732505915       -1.0595806874791336E-005 F
     orb,it,eci,eold,eci-eold=                    3                   16 -0.81530571258396933      -0.81529213313193394       -1.3579452035394901E-005 F
     orb,it,eci,eold,eci-eold=                    3                   17 -0.81531332687238223      -0.81530571258396933       -7.6142884128937993E-006 F
     orb,it,eci,eold,eci-eold=                    3                   18 -0.81532497406288407      -0.81531332687238223       -1.1647190501840043E-005 F
     orb,it,eci,eold,eci-eold=                    3                   19 -0.81533152295307243      -0.81532497406288407       -6.5488901883625772E-006 F
     orb,it,eci,eold,eci-eold=                    3                   20 -0.81534072087001908      -0.81533152295307243       -9.1979169466460675E-006 F
     orb,it,eci,eold,eci-eold=                    3                   21 -0.81534089976376589      -0.81534072087001908       -1.7889374681612225E-007 F
     orb,it,eci,eold,eci-eold=                    3                   22 -0.81534264679521495      -0.81534089976376589       -1.7470314490619643E-006 F
     orb,it,eci,eold,eci-eold=                    3                   23 -0.81534998065882547      -0.81534264679521495       -7.3338636105146904E-006 F
     orb,it,eci,eold,eci-eold=                    3                   24 -0.81535040011211524      -0.81534998065882547       -4.1945328976833451E-007 F
     orb,it,eci,eold,eci-eold=                    3                   25 -0.81535098607295631      -0.81535040011211524       -5.8596084107076507E-007 F
     orb,it,eci,eold,eci-eold=                    3                   26 -0.81535727061003660      -0.81535098607295631       -6.2845370802921963E-006 F
     orb,it,eci,eold,eci-eold=                    3                   27 -0.81536066160770537      -0.81535727061003660       -3.3909976687729326E-006 F
     orb,it,eci,eold,eci-eold=                    3                   28 -0.81536397017891371      -0.81536066160770537       -3.3085712083380514E-006 F
     orb,it,eci,eold,eci-eold=                    3                   29 -0.81536565684757722      -0.81536397017891371       -1.6866686635141903E-006 F
     orb,it,eci,eold,eci-eold=                    3                   30 -0.81536881006978712      -0.81536565684757722       -3.1532222098951124E-006 F
     orb,it,eci,eold,eci-eold=                    3                   31 -0.81536914838922070      -0.81536881006978712       -3.3831943357931493E-007 F
     orb,it,eci,eold,eci-eold=                    3                   32 -0.81536957908259866      -0.81536914838922070       -4.3069337796186602E-007 F
     orb,it,eci,eold,eci-eold=                    3                   33 -0.81537218449668758      -0.81536957908259866       -2.6054140889186783E-006 F
     orb,it,eci,eold,eci-eold=                    3                   34 -0.81537307317178676      -0.81537218449668758       -8.8867509917545107E-007 F
     orb,it,eci,eold,eci-eold=                    3                   35 -0.81537330539858333      -0.81537307317178676       -2.3222679657042278E-007 F
     orb,it,eci,eold,eci-eold=                    3                   36 -0.81537515025971263      -0.81537330539858333       -1.8448611293075956E-006 F
     orb,it,eci,eold,eci-eold=                    3                   37 -0.81537583960554427      -0.81537515025971263       -6.8934583163926533E-007 F
     orb,it,eci,eold,eci-eold=                    3                   38 -0.81537606681747854      -0.81537583960554427       -2.2721193426722408E-007 F
     orb,it,eci,eold,eci-eold=                    3                   39 -0.81537758999670829      -0.81537606681747854       -1.5231792297454305E-006 F
     orb,it,eci,eold,eci-eold=                    3                   40 -0.81537829402924655      -0.81537758999670829       -7.0403253826789580E-007 F
     orb,it,eci,eold,eci-eold=                    3                   41 -0.81537860344792346      -0.81537829402924655       -3.0941867690259528E-007 F
     orb,it,eci,eold,eci-eold=                    3                   42 -0.81538006952977771      -0.81537860344792346       -1.4660818542511223E-006 F
     orb,it,eci,eold,eci-eold=                    3                   43 -0.81538061132675588      -0.81538006952977771       -5.4179697817069439E-007 F
     orb,it,eci,eold,eci-eold=                    3                   44 -0.81538076573026697      -0.81538061132675588       -1.5440351108786388E-007 F
     orb,it,eci,eold,eci-eold=                    3                   45 -0.81538186399230428      -0.81538076573026697       -1.0982620373134466E-006 F
     orb,it,eci,eold,eci-eold=                    3                   46 -0.81538235996739217      -0.81538186399230428       -4.9597508788856715E-007 F
     orb,it,eci,eold,eci-eold=                    3                   47 -0.81538253966341778      -0.81538235996739217       -1.7969602561507259E-007 F
     orb,it,eci,eold,eci-eold=                    3                   48 -0.81538340810694454      -0.81538253966341778       -8.6844352675807812E-007 F
     orb,it,eci,eold,eci-eold=                    3                   49 -0.81538368528028715      -0.81538340810694454       -2.7717334261101456E-007 F
     orb,it,eci,eold,eci-eold=                    3                   50 -0.81538379247619786      -0.81538368528028715       -1.0719591070351697E-007 F
     orb,it,eci,eold,eci-eold=                    3                   51 -0.81538446714441715      -0.81538379247619786       -6.7466821929151877E-007 F
     orb,it,eci,eold,eci-eold=                    3                   52 -0.81538472986759625      -0.81538446714441715       -2.6272317910081000E-007 F
     orb,it,eci,eold,eci-eold=                    3                   53 -0.81538484626163654      -0.81538472986759625       -1.1639404029484268E-007 F
     orb,it,eci,eold,eci-eold=                    3                   54 -0.81538544221945297      -0.81538484626163654       -5.9595781642940437E-007 F
     orb,it,eci,eold,eci-eold=                    3                   55 -0.81538558159786845      -0.81538544221945297       -1.3937841547573271E-007 F
     orb,it,eci,eold,eci-eold=                    3                   56 -0.81538560262861171      -0.81538558159786845       -2.1030743257988149E-008 F
     orb,it,eci,eold,eci-eold=                    3                   57 -0.81538606879237674      -0.81538560262861171       -4.6616376503383350E-007 F
     orb,it,eci,eold,eci-eold=                    3                   58 -0.81538630220693187      -0.81538606879237674       -2.3341455512859710E-007 F
     orb,it,eci,eold,eci-eold=                    3                   59 -0.81538635514492741      -0.81538630220693187       -5.2937995542734484E-008 F
     orb,it,eci,eold,eci-eold=                    3                   60 -0.81538672861212291      -0.81538635514492741       -3.7346719550246377E-007 F
     orb,it,eci,eold,eci-eold=                    3                   61 -0.81538690741469289      -0.81538672861212291       -1.7880256997226951E-007 F
     orb,it,eci,eold,eci-eold=                    3                   62 -0.81538697594781251      -0.81538690741469289       -6.8533119623737093E-008 F
     orb,it,eci,eold,eci-eold=                    3                   63 -0.81538731829031419      -0.81538697594781251       -3.4234250168019287E-007 F
     orb,it,eci,eold,eci-eold=                    3                   64 -0.81538744955009057      -0.81538731829031419       -1.3125977638139830E-007 F
     orb,it,eci,eold,eci-eold=                    3                   65 -0.81538749234820163      -0.81538744955009057       -4.2798111055120103E-008 F
     orb,it,eci,eold,eci-eold=                    3                   66 -0.81538776896148424      -0.81538749234820163       -2.7661328261263662E-007 F
     orb,it,eci,eold,eci-eold=                    3                   67 -0.81538784308387169      -0.81538776896148424       -7.4122387450081817E-008 F
     orb,it,eci,eold,eci-eold=                    3                   68 -0.81538784563931044      -0.81538784308387169       -2.5554387494963748E-009 F
     orb,it,eci,eold,eci-eold=                    3                   69 -0.81538803426189166      -0.81538784563931044       -1.8862258122087638E-007 F
     orb,it,eci,eold,eci-eold=                    3                   70 -0.81538814169735907      -0.81538803426189166       -1.0743546741132093E-007 F
     orb,it,eci,eold,eci-eold=                    3                   71 -0.81538818330369522      -0.81538814169735907       -4.1606336154131895E-008 F
     orb,it,eci,eold,eci-eold=                    3                   72 -0.81538837952035137      -0.81538818330369522       -1.9621665614533157E-007 F
     orb,it,eci,eold,eci-eold=                    3                   73 -0.81538845755810585      -0.81538837952035137       -7.8037754480675403E-008 F
     orb,it,eci,eold,eci-eold=                    3                   74 -0.81538848112693008      -0.81538845755810585       -2.3568824225606022E-008 F
     orb,it,eci,eold,eci-eold=                    3                   75 -0.81538864257526944      -0.81538848112693008       -1.6144833936415637E-007 F
     orb,it,eci,eold,eci-eold=                    3                   76 -0.81538870228312765      -0.81538864257526944       -5.9707858213187137E-008 F
     orb,it,eci,eold,eci-eold=                    3                   77 -0.81538871393854229      -0.81538870228312765       -1.1655414633437999E-008 F
     orb,it,eci,eold,eci-eold=                    3                   78 -0.81538883970408471      -0.81538871393854229       -1.2576554242471616E-007 F
     orb,it,eci,eold,eci-eold=                    3                   79 -0.81538889102272150      -0.81538883970408471       -5.1318636784536409E-008 F
     orb,it,eci,eold,eci-eold=                    3                   80 -0.81538890064177505      -0.81538889102272150       -9.6190535536777588E-009 F
     orb,it,eci,eold,eci-eold=                    3                   81 -0.81538899771429185      -0.81538890064177505       -9.7072516802576558E-008 F
     orb,it,eci,eold,eci-eold=                    3                   82 -0.81538904087545971      -0.81538899771429185       -4.3161167861960337E-008 F
     orb,it,eci,eold,eci-eold=                    3                   83 -0.81538905291782870      -0.81538904087545971       -1.2042368990883290E-008 F
     orb,it,eci,eold,eci-eold=                    3                   84 -0.81538913239161648      -0.81538905291782870       -7.9473787772954552E-008 F
     orb,it,eci,eold,eci-eold=                    3                   85 -0.81538916916778992      -0.81538913239161648       -3.6776173439889703E-008 F
     orb,it,eci,eold,eci-eold=                    3                   86 -0.81538918310649788      -0.81538916916778992       -1.3938707965621688E-008 F
     orb,it,eci,eold,eci-eold=                    3                   87 -0.81538925043625832      -0.81538918310649788       -6.7329760433665342E-008 F
     orb,it,eci,eold,eci-eold=                    3                   88 -0.81538927783435300      -0.81538925043625832       -2.7398094681885254E-008 F
     orb,it,eci,eold,eci-eold=                    3                   89 -0.81538928976730252      -0.81538927783435300       -1.1932949517401426E-008 F
     orb,it,eci,eold,eci-eold=                    3                   90 -0.81538934814820707      -0.81538928976730252       -5.8380904555122015E-008 F
     orb,it,eci,eold,eci-eold=                    3                   91 -0.81538936682029028      -0.81538934814820707       -1.8672083212933899E-008 F
     orb,it,eci,eold,eci-eold=                    3                   92 -0.81538937264556011      -0.81538936682029028       -5.8252698220684351E-009 F
     orb,it,eci,eold,eci-eold=                    3                   93 -0.81538941972833456      -0.81538937264556011       -4.7082774456974619E-008 F
     orb,it,eci,eold,eci-eold=                    3                   94 -0.81538943640436345      -0.81538941972833456       -1.6676028891104977E-008 F
     orb,it,eci,eold,eci-eold=                    3                   95 -0.81538943987884327      -0.81538943640436345       -3.4744798149688449E-009 F
     orb,it,eci,eold,eci-eold=                    3                   96 -0.81538947933373906      -0.81538943987884327       -3.9454895794932554E-008 F
     orb,it,eci,eold,eci-eold=                    3                   97 -0.81538949857092557      -0.81538947933373906       -1.9237186510423498E-008 F
     orb,it,eci,eold,eci-eold=                    3                   98 -0.81538950323478021      -0.81538949857092557       -4.6638546358224175E-009 F
     orb,it,eci,eold,eci-eold=                    3                   99 -0.81538953432935024      -0.81538950323478021       -3.1094570029921442E-008 F
     orb,it,eci,eold,eci-eold=                    3                  100 -0.81538954380752360      -0.81538953432935024       -9.4781733572801841E-009 F
     orb,it,eci,eold,eci-eold=                    3                  101 -0.81538954552996556      -0.81538954380752360       -1.7224419668337987E-009 F
     orb,it,eci,eold,eci-eold=                    3                  102 -0.81538957153160385      -0.81538954552996556       -2.6001638286921036E-008 F
     orb,it,eci,eold,eci-eold=                    3                  103 -0.81538958518425231      -0.81538957153160385       -1.3652648456208283E-008 F
     orb,it,eci,eold,eci-eold=                    3                  104 -0.81538958875346457      -0.81538958518425231       -3.5692122590802455E-009 F
     orb,it,eci,eold,eci-eold=                    3                  105 -0.81538960996167320      -0.81538958875346457       -2.1208208633716197E-008 F
     orb,it,eci,eold,eci-eold=                    3                  106 -0.81538961734555282      -0.81538960996167320       -7.3838796188496758E-009 F
     orb,it,eci,eold,eci-eold=                    3                  107 -0.81538961908464913      -0.81538961734555282       -1.7390963114038982E-009 F
     orb,it,eci,eold,eci-eold=                    3                  108 -0.81538963583235935      -0.81538961908464913       -1.6747710218645295E-008 F
     orb,it,eci,eold,eci-eold=                    3                  109 -0.81538964417682003      -0.81538963583235935       -8.3444606779892183E-009 F
     orb,it,eci,eold,eci-eold=                    3                  110 -0.81538964716898676      -0.81538964417682003       -2.9921667366039628E-009 F
     orb,it,eci,eold,eci-eold=                    3                  111 -0.81538966213571429      -0.81538964716898676       -1.4966727523990642E-008 F
     orb,it,eci,eold,eci-eold=                    3                  112 -0.81538966768677590      -0.81538966213571429       -5.5510616103759958E-009 F
     orb,it,eci,eold,eci-eold=                    3                  113 -0.81538966958913228      -0.81538966768677590       -1.9023563835318669E-009 F
     orb,it,eci,eold,eci-eold=                    3                  114 -0.81538968266514766      -0.81538966958913228       -1.3076015381585648E-008 F
     orb,it,eci,eold,eci-eold=                    3                  115 -0.81538968829984726      -0.81538968266514766       -5.6346995958023172E-009 F
     orb,it,eci,eold,eci-eold=                    3                  116 -0.81538968989059557      -0.81538968829984726       -1.5907483108534848E-009 F
     orb,it,eci,eold,eci-eold=                    3                  117 -0.81538970075242823      -0.81538968989059557       -1.0861832655528758E-008 F
     orb,it,eci,eold,eci-eold=                    3                  118 -0.81538970489389406      -0.81538970075242823       -4.1414658369376411E-009 F
     orb,it,eci,eold,eci-eold=                    3                  119 -0.81538970579048375      -0.81538970489389406       -8.9658969137929034E-010 F
     orbital   3 current e=  0.383351E+00 error=0.120E+00 (eci= -0.815389706E+00 error=0.897E-09) iterations 119(   0 preconditioned, Ep,Sp= 20.0  200.0)
     orb,it,eci,eold,eci-eold=                    3                    1 -0.81538973018618133      -0.81538970579048375       -2.4395697573176278E-008 F
     orb,it,eci,eold,eci-eold=                    3                    2 -0.81538973922252989      -0.81538973018618133       -9.0363485583111469E-009 F
     orb,it,eci,eold,eci-eold=                    3                    3 -0.81538974387706720      -0.81538973922252989       -4.6545373111328558E-009 F
     orb,it,eci,eold,eci-eold=                    3                    4 -0.81538975430925453      -0.81538974387706720       -1.0432187336206766E-008 F
     orb,it,eci,eold,eci-eold=                    3                    5 -0.81538975529119884      -0.81538975430925453       -9.8194430364628715E-010 F
     orbital   3 current e=  0.383448E+00 error=0.971E-04 (eci= -0.815389755E+00 error=0.982E-09) iterations   5(   0 preconditioned, Ep,Sp= 20.0  200.0)
     orb,it,eci,eold,eci-eold=                    3                    1 -0.81538976746099534      -0.81538975529119884       -1.2169796503869179E-008 F
     orb,it,eci,eold,eci-eold=                    3                    2 -0.81538976992556611      -0.81538976746099534       -2.4645707696890895E-009 F
     orb,it,eci,eold,eci-eold=                    3                    3 -0.81538977163336868      -0.81538976992556611       -1.7078025660310914E-009 F
     orb,it,eci,eold,eci-eold=                    3                    4 -0.81538977163336868      -0.81538977163336868        0.0000000000000000      F
     orbital   3 current e=  0.383469E+00 error=0.213E-04 (eci= -0.815389772E+00 error=0.000E+00) iterations   4(   0 preconditioned, Ep,Sp= 20.0  200.0)
     orb,it,eci,eold,eci-eold=                    4                    1 -0.81469318069300900      -0.81461133864488355       -8.1842048125446709E-005 F
     orb,it,eci,eold,eci-eold=                    4                    2 -0.81470175632148967      -0.81469318069300900       -8.5756284806670635E-006 F
     orb,it,eci,eold,eci-eold=                    4                    3 -0.81473218683919169      -0.81470175632148967       -3.0430517702018101E-005 F
     orb,it,eci,eold,eci-eold=                    4                    4 -0.81474193674518725      -0.81473218683919169       -9.7499059955596934E-006 F
     orb,it,eci,eold,eci-eold=                    4                    5 -0.81475359035579542      -0.81474193674518725       -1.1653610608175491E-005 F
     orb,it,eci,eold,eci-eold=                    4                    6 -0.81477429879284213      -0.81475359035579542       -2.0708437046712547E-005 F
     orb,it,eci,eold,eci-eold=                    4                    7 -0.81477700201844983      -0.81477429879284213       -2.7032256076919836E-006 F
     orb,it,eci,eold,eci-eold=                    4                    8 -0.81478513301747679      -0.81477700201844983       -8.1309990269673449E-006 F
     orb,it,eci,eold,eci-eold=                    4                    9 -0.81480540893414566      -0.81478513301747679       -2.0275916668865968E-005 F
     orb,it,eci,eold,eci-eold=                    4                   10 -0.81480999596670434      -0.81480540893414566       -4.5870325586783167E-006 F
     orb,it,eci,eold,eci-eold=                    4                   11 -0.81481655710640233      -0.81480999596670434       -6.5611396979914360E-006 F
     orb,it,eci,eold,eci-eold=                    4                   12 -0.81483354622818660      -0.81481655710640233       -1.6989121784272143E-005 F
     orb,it,eci,eold,eci-eold=                    4                   13 -0.81483965722182850      -0.81483354622818660       -6.1109936418946020E-006 F
     orb,it,eci,eold,eci-eold=                    4                   14 -0.81484558302645271      -0.81483965722182850       -5.9258046242183227E-006 F
     orb,it,eci,eold,eci-eold=                    4                   15 -0.81485899379191751      -0.81484558302645271       -1.3410765464794139E-005 F
     orb,it,eci,eold,eci-eold=                    4                   16 -0.81486304948373123      -0.81485899379191751       -4.0556918137202302E-006 F
     orb,it,eci,eold,eci-eold=                    4                   17 -0.81486697581253431      -0.81486304948373123       -3.9263288030833010E-006 F
     orb,it,eci,eold,eci-eold=                    4                   18 -0.81487658422319131      -0.81486697581253431       -9.6084106570026862E-006 F
     orb,it,eci,eold,eci-eold=                    4                   19 -0.81487760544164589      -0.81487658422319131       -1.0212184545776992E-006 F
     orb,it,eci,eold,eci-eold=                    4                   20 -0.81487913663920253      -0.81487760544164589       -1.5311975566367764E-006 F
     orb,it,eci,eold,eci-eold=                    4                   21 -0.81488526758871671      -0.81487913663920253       -6.1309495141825820E-006 F
     orb,it,eci,eold,eci-eold=                    4                   22 -0.81488675335517147      -0.81488526758871671       -1.4857664547562877E-006 F
     orb,it,eci,eold,eci-eold=                    4                   23 -0.81488804761570022      -0.81488675335517147       -1.2942605287502573E-006 F
     orb,it,eci,eold,eci-eold=                    4                   24 -0.81489215926178393      -0.81488804761570022       -4.1116460837153923E-006 F
     orb,it,eci,eold,eci-eold=                    4                   25 -0.81489321558208938      -0.81489215926178393       -1.0563203054481107E-006 F
     orb,it,eci,eold,eci-eold=                    4                   26 -0.81489430338809521      -0.81489321558208938       -1.0878060058283623E-006 F
     orb,it,eci,eold,eci-eold=                    4                   27 -0.81489771415793855      -0.81489430338809521       -3.4107698433372136E-006 F
     orb,it,eci,eold,eci-eold=                    4                   28 -0.81489855835366598      -0.81489771415793855       -8.4419572743410498E-007 F
     orb,it,eci,eold,eci-eold=                    4                   29 -0.81489920270728555      -0.81489855835366598       -6.4435361957215775E-007 F
     orb,it,eci,eold,eci-eold=                    4                   30 -0.81490181941188122      -0.81489920270728555       -2.6167045956704271E-006 F
     orb,it,eci,eold,eci-eold=                    4                   31 -0.81490271086541721      -0.81490181941188122       -8.9145353598940602E-007 F
     orb,it,eci,eold,eci-eold=                    4                   32 -0.81490324174806739      -0.81490271086541721       -5.3088265017375846E-007 F
     orb,it,eci,eold,eci-eold=                    4                   33 -0.81490517089143655      -0.81490324174806739       -1.9291433691615012E-006 F
     orb,it,eci,eold,eci-eold=                    4                   34 -0.81490569890559050      -0.81490517089143655       -5.2801415395542506E-007 F
[...]
   16   13   16   16        0.0052747719
   16   13   17   16        0.0000119472
   16   13   18   16        0.0000145433
   16   13   19   16        0.0000017424
   16   13   17   17        0.0039516125
   16   13   18   17       -0.0000020457
   16   13   19   17       -0.0003883601
   16   13   18   18        0.0039275897
   16   13   19   18       -0.0004060619
   16   13   19   19        0.0051670422
   17   13   17   13        0.0120246936
   17   13   18   13       -0.0000270284
   17   13   19   13        0.0000028765
   17   13   14   14        0.0000110840
   17   13   15   14       -0.0044219650
   17   13   16   14       -0.0035715449
   17   13   17   14       -0.0000102632
   17   13   18   14        0.0000125845
   17   13   19   14        0.0000000271
   17   13   15   15        0.0000116698
   17   13   16   15        0.0000178686
   17   13   17   15       -0.0000307407
   17   13   18   15        0.0000422629
   17   13   19   15        0.0000397810
   17   13   16   16        0.0000270912
   17   13   17   16        0.0000350282
   17   13   18   16        0.0000268159
   17   13   19   16       -0.0000211017
   17   13   17   17        0.0000042181
   17   13   18   17        0.0000002117
   17   13   19   17       -0.0000001563
   17   13   18   18        0.0000036279
   17   13   19   18       -0.0000001241
   17   13   19   19        0.0000200608
   18   13   18   13        0.0119508645
   18   13   19   13        0.0000025952
   18   13   14   14        0.0000091384
   18   13   15   14        0.0035589189
   18   13   16   14       -0.0043827984
   18   13   17   14       -0.0000131566
   18   13   18   14       -0.0000108311
   18   13   19   14       -0.0000001365
   18   13   15   15       -0.0000064330
   18   13   16   15       -0.0000078540
   18   13   17   15       -0.0000434163
   18   13   18   15       -0.0000335626
   18   13   19   15        0.0000095883
   18   13   16   16        0.0000289050
   18   13   17   16       -0.0000355383
   18   13   18   16        0.0000486845
   18   13   19   16       -0.0000417905
   18   13   17   17        0.0000022314
   18   13   18   17        0.0000002953
   18   13   19   17        0.0000001889
   18   13   18   18        0.0000026701
   18   13   19   18        0.0000002748
   18   13   19   19       -0.0000000125
   19   13   19   13        0.0118865145
   19   13   14   14        0.0000000035
   19   13   15   14        0.0000018037
   19   13   16   14        0.0000396012
   19   13   17   14       -0.0000000231
   19   13   18   14       -0.0000000726
   19   13   19   14       -0.0000048997
   19   13   15   15       -0.0000000180
   19   13   16   15        0.0000005593
   19   13   17   15        0.0000080174
   19   13   18   15        0.0000354058
   19   13   19   15       -0.0004408682
   19   13   16   16        0.0000023021
   19   13   17   16       -0.0000373560
   19   13   18   16       -0.0000210391
   19   13   19   16        0.0005989140
   19   13   17   17        0.0000002329
   19   13   18   17        0.0000000055
   19   13   19   17        0.0000391384
   19   13   18   18        0.0000003297
   19   13   19   18        0.0000496744
   19   13   19   19       -0.0000002085
   14   14   14   14        0.3303058821
   14   14   15   14       -0.0000049734
   14   14   16   14        0.0000287016
   14   14   17   14       -0.0000211168
   14   14   18   14        0.0000072390
   14   14   19   14        0.0000003521
   14   14   15   15        0.2879220726
   14   14   16   15        0.0000433251
   14   14   17   15       -0.0000061353
   14   14   18   15       -0.0000233538
   14   14   19   15        0.0000012283
   14   14   16   16        0.2878324183
   14   14   17   16        0.0000247789
   14   14   18   16       -0.0000029094
   14   14   19   16        0.0000004329
   14   14   17   17        0.2813887945
   14   14   18   17       -0.0000117801
   14   14   19   17       -0.0003995340
   14   14   18   18        0.2812469965
   14   14   19   18       -0.0004173587
   14   14   19   19        0.2879115901
   15   14   15   14        0.0096263356
   15   14   16   14        0.0000053534
   15   14   17   14       -0.0000042759
   15   14   18   14       -0.0000187256
   15   14   19   14        0.0000000864
   15   14   15   15       -0.0000321075
   15   14   16   15       -0.0000318240
   15   14   17   15       -0.0032263667
   15   14   18   15       -0.0009060592
   15   14   19   15       -0.0000707537
   15   14   16   16       -0.0000091752
   15   14   17   16        0.0009266477
   15   14   18   16       -0.0032594230
   15   14   19   16       -0.0000396406
   15   14   17   17        0.0000177593
   15   14   18   17       -0.0000000126
   15   14   19   17       -0.0000080631
   15   14   18   18        0.0000171469
   15   14   19   18       -0.0000084921
   15   14   19   19        0.0000147047
   16   14   16   14        0.0096162052
   16   14   17   14        0.0000187507
   16   14   18   14       -0.0000036526
   16   14   19   14        0.0000000264
   16   14   15   15       -0.0000071186
   16   14   16   15       -0.0000100813
   16   14   17   15        0.0009227746
   16   14   18   15       -0.0032573623
   16   14   19   15       -0.0000397059
   16   14   16   16       -0.0000699536
   16   14   17   16        0.0032368689
   16   14   18   16        0.0009224521
   16   14   19   16        0.0000671130
   16   14   17   17        0.0000694242
   16   14   18   17        0.0000002492
   16   14   19   17       -0.0000229430
   16   14   18   18        0.0000690243
   16   14   19   18       -0.0000238401
   16   14   19   19        0.0000785425
   17   14   17   14        0.0061939637
   17   14   18   14       -0.0000006867
   17   14   19   14       -0.0000388214
   17   14   15   15       -0.0046164381
   17   14   16   15        0.0013231204
   17   14   17   15        0.0000264199
   17   14   18   15       -0.0000005277
   17   14   19   15       -0.0000005065
   17   14   16   16        0.0046065840
   17   14   17   16        0.0000747458
   17   14   18   16        0.0000015654
   17   14   19   16       -0.0000013248
   17   14   17   17       -0.0000594832
   17   14   18   17        0.0000065445
   17   14   19   17        0.0000053015
   17   14   18   18       -0.0000223079
   17   14   19   18        0.0000047500
   17   14   19   19       -0.0000264085
   18   14   18   14        0.0061846205
   18   14   19   14       -0.0000405252
   18   14   15   15       -0.0012996835
   18   14   16   15       -0.0046569371
   18   14   17   15        0.0000004423
   18   14   18   15        0.0000253065
   18   14   19   15       -0.0000004504
   18   14   16   16        0.0013067225
   18   14   17   16       -0.0000005390
   18   14   18   16        0.0000744978
   18   14   19   16       -0.0000014136
   18   14   17   17        0.0000077023
   18   14   18   17       -0.0000189865
   18   14   19   17       -0.0000016807
   18   14   18   18        0.0000203366
   18   14   19   18       -0.0000019412
   18   14   19   19        0.0000090977
   19   14   19   14        0.0066282837
   19   14   15   15        0.0000101250
   19   14   16   15        0.0000074403
   19   14   17   15       -0.0000003263
   19   14   18   15       -0.0000004804
   19   14   19   15        0.0000310600
   19   14   16   16       -0.0000104524
   19   14   17   16       -0.0000014831
   19   14   18   16       -0.0000013423
   19   14   19   16        0.0000797255
   19   14   17   17        0.0000010380
   19   14   18   17        0.0000002128
   19   14   19   17       -0.0000206099
   19   14   18   18        0.0000000943
   19   14   19   18        0.0000073039
   19   14   19   19        0.0000011107
   15   15   15   15        0.3038680776
   15   15   16   15        0.0000194405
   15   15   17   15       -0.0000015511
   15   15   18   15       -0.0000007773
   15   15   19   15       -0.0000002171
   15   15   16   16        0.2834351166
   15   15   17   16       -0.0000642503
   15   15   18   16        0.0000044393
   15   15   19   16        0.0000004370
   15   15   17   17        0.2841658103
   15   15   18   17       -0.0000217842
   15   15   19   17       -0.0000834808
   15   15   18   18        0.2840484436
   15   15   19   18       -0.0000863206
   15   15   19   19        0.2896409520
   16   15   16   15        0.0103700723
   16   15   17   15        0.0000333954
   16   15   18   15       -0.0000011896
   16   15   19   15       -0.0000011608
   16   15   16   16        0.0000272170
   16   15   17   16       -0.0000015220
   16   15   18   16       -0.0000336104
   16   15   19   16        0.0000002334
   16   15   17   17        0.0000110589
   16   15   18   17        0.0000172821
   16   15   19   17        0.0000039544
   16   15   18   18        0.0000091632
   16   15   19   18        0.0000039826
   16   15   19   19        0.0000231083
   17   15   17   15        0.0100209511
   17   15   18   15       -0.0000223074
   17   15   19   15        0.0000018106
   17   15   16   16        0.0000003285
   17   15   17   16        0.0000047495
   17   15   18   16        0.0043600225
   17   15   19   16       -0.0000001981
   17   15   17   17       -0.0000016537
   17   15   18   17        0.0000002211
   17   15   19   17       -0.0000000094
   17   15   18   18       -0.0000002113
   17   15   19   18        0.0000000660
   17   15   19   19       -0.0000243817
   18   15   18   15        0.0101034610
   18   15   19   15        0.0000016303
   18   15   16   16        0.0000644845
   18   15   17   16       -0.0043762940
   18   15   18   16        0.0000056387
   18   15   19   16       -0.0000021105
   18   15   17   17       -0.0000010743
   18   15   18   17       -0.0000007382
   18   15   19   17        0.0000001058
   18   15   18   18       -0.0000006525
   18   15   19   18        0.0000000448
   18   15   19   19       -0.0000174026
   19   15   19   15        0.0103905149
   19   15   16   16       -0.0000014139
   19   15   17   16        0.0000008221
   19   15   18   16        0.0000027644
   19   15   19   16        0.0000022050
   19   15   17   17       -0.0000007785
   19   15   18   17        0.0000000071
   19   15   19   17       -0.0001505903
   19   15   18   18       -0.0000009708
   19   15   19   18       -0.0001610900
   19   15   19   19        0.0000008836
   16   16   16   16        0.3037115129
   16   16   17   16        0.0000041482
   16   16   18   16        0.0000006518
   16   16   19   16        0.0000013818
   16   16   17   17        0.2840300336
   16   16   18   17       -0.0000198776
   16   16   19   17       -0.0000635258
   16   16   18   18        0.2839792987
   16   16   19   18       -0.0000664052
   16   16   19   19        0.2895642154
   17   16   17   16        0.0100476140
   17   16   18   16       -0.0000231296
   17   16   19   16        0.0000020499
   17   16   17   17        0.0000012278
   17   16   18   17        0.0000006496
   17   16   19   17       -0.0000003534
   17   16   18   18        0.0000013449
   17   16   19   18       -0.0000003383
   17   16   19   19        0.0000005000
   18   16   18   16        0.0100973322
   18   16   19   16        0.0000027188
   18   16   17   17       -0.0000015713
   18   16   18   17       -0.0000000642
   18   16   19   17       -0.0000004376
   18   16   18   18       -0.0000002865
   18   16   19   18       -0.0000004390
   18   16   19   19       -0.0000194382
   19   16   19   16        0.0103857930
   19   16   17   17       -0.0000004858
   19   16   18   17       -0.0000000252
   19   16   19   17       -0.0000812820
   19   16   18   18       -0.0000006016
   19   16   19   18       -0.0000758500
   19   16   19   19        0.0000004131
   17   17   17   17        0.3051011909
   17   17   18   17       -0.0000136868
   17   17   19   17        0.0004222733
   17   17   18   18        0.2935562820
   17   17   19   18        0.0004092571
   17   17   19   19        0.3048637544
   18   17   18   17        0.0057517296
   18   17   19   17        0.0000165076
   18   17   18   18       -0.0000136794
   18   17   19   18        0.0000196047
   18   17   19   19        0.0059866959
   19   17   19   17        0.0798637940
   19   17   18   18        0.0004869306
   19   17   19   18        0.0772729406
   19   17   19   19       -0.0004163641
   18   18   18   18        0.3048462221
   18   18   19   18        0.0005509789
   18   18   19   19        0.3052669456
   19   18   19   18        0.0868247450
   19   18   19   19       -0.0004348114
   19   19   19   19        0.3181123441
 end_two_electron_integrals


 output epsi filename:./pspw_hf_H2.emovecs

 Total PSPW energy     :  -0.8130491716E+00


=== Spin Contamination ===

 <Sexact^2> =    0.0000000000000000     
 <S^2>      =    0.0000000000000000     



== Center of Charge ==

spin up     (    0.0000,    0.0000,    0.0013 )
spin down   (    0.0000,    0.0000,    0.0013 )
     total  (    0.0000,    0.0000,    0.0013 )
ionic       (    0.0000,    0.0000,    0.0000 )


== Molecular Dipole wrt Center of Mass ==

mu   =  (   -0.0000,   -0.0000,   -0.0025 ) au
|mu| =     0.0025 au,       0.0065 Debye

 output psi filename:./pspw_hf_H2.movecs

 Writing Crystallographic Information File:./H2.cif
   - cell not shifted (nwpw:cif_shift_cell .false.)


== Timing ==

cputime in seconds
  prologue    :   0.663089E+01
  main loop   :   0.512050E+03
  epilogue    :   0.161636E-01
  total       :   0.518697E+03
  cputime/step:   0.368381E+01       (     139 evalulations,      58 linesearches)


Time spent doing                        total          step       percent
  total time                 :   0.518712E+03  0.373174E+01       100.0 %
  i/o time                   :   0.419888E+00  0.302077E-02         0.1 %
  FFTs                       :   0.354455E+03  0.255004E+01        68.3 %
  dot products               :   0.285376E+02  0.205306E+00         5.5 %
  geodesic                   :   0.608033E-01  0.437434E-03         0.0 %
  ffm_dgemm                  :   0.975110E-02  0.701518E-04         0.0 %
  fmf_dgemm                  :   0.715991E-02  0.515102E-04         0.0 %
  mmm_dgemm                  :   0.235214E-02  0.169219E-04         0.0 %
  m_diagonalize              :   0.119046E-02  0.856449E-05         0.0 %
  local pseudopotentials     :   0.712997E+01  0.512948E-01         1.4 %
  non-local pseudopotentials :   0.267016E+02  0.192098E+00         5.1 %
  structure factors          :   0.866177E+00  0.623149E-02         0.2 %
  phase factors              :   0.590500E-05  0.424820E-07         0.0 %
  masking and packing        :   0.144636E+02  0.104054E+00         2.8 %
  queue fft                  :   0.111101E+02  0.799287E-01         2.1 %
  queue fft (serial)         :   0.349758E+01  0.251625E-01         0.7 %
  queue fft (message passing):   0.756980E+01  0.544590E-01         1.5 %
  HFX potential              :   0.415346E+01  0.298810E-01         0.8 %
  non-local psp FFM          :   0.261419E+02  0.188071E+00         5.0 %
  non-local psp FMF          :   0.119181E+00  0.857418E-03         0.0 %
  non-local psp FFM A        :   0.507226E-01  0.364911E-03         0.0 %
  non-local psp FFM B        :   0.164889E+00  0.118625E-02         0.0 %

== HFX Counters ==
  HFX Evalulations         =   139
  Lin ACE HFX Evalulations =     0


     >>>  JOB COMPLETED     AT Sun Apr  6 15:19:28 2025  <<<

 Task  times  cpu:      486.0s     wall:      518.7s


                                NWChem Input Module
                                -------------------


 Summary of allocated global arrays
-----------------------------------
  No active global arrays


MA_summarize_allocated_blocks: starting scan ...
MA_summarize_allocated_blocks: scan completed: 0 heap blocks, 0 stack blocks
MA usage statistics:

	allocation statistics:
					      heap	     stack
					      ----	     -----
	current number of blocks	         0	         0
	maximum number of blocks	       313	        36
	current total bytes		         0	         0
	maximum total bytes		  16802704	   5334808
	maximum total K-bytes		     16803	      5335
	maximum total M-bytes		        17	         6


                                     CITATION
                                     --------
                Please cite the following reference when publishing
                           results obtained with NWChem:

          E. Apra, E. J. Bylaska, W. A. de Jong, N. Govind, K. Kowalski,
       T. P. Straatsma, M. Valiev, H. J. J. van Dam, Y. Alexeev, J. Anchell,
       V. Anisimov, F. W. Aquino, R. Atta-Fynn, J. Autschbach, N. P. Bauman,
     J. C. Becca, D. E. Bernholdt, K. Bhaskaran-Nair, S. Bogatko, P. Borowski,
         J. Boschen, J. Brabec, A. Bruner, E. Cauet, Y. Chen, G. N. Chuev,
      C. J. Cramer, J. Daily, M. J. O. Deegan, T. H. Dunning Jr., M. Dupuis,
   K. G. Dyall, G. I. Fann, S. A. Fischer, A. Fonari, H. Fruchtl, L. Gagliardi,
      J. Garza, N. Gawande, S. Ghosh, K. Glaesemann, A. W. Gotz, J. Hammond,
       V. Helms, E. D. Hermes, K. Hirao, S. Hirata, M. Jacquelin, L. Jensen,
   B. G. Johnson, H. Jonsson, R. A. Kendall, M. Klemm, R. Kobayashi, V. Konkov,
      S. Krishnamoorthy, M. Krishnan, Z. Lin, R. D. Lins, R. J. Littlefield,
      A. J. Logsdail, K. Lopata, W. Ma, A. V. Marenich, J. Martin del Campo,
   D. Mejia-Rodriguez, J. E. Moore, J. M. Mullin, T. Nakajima, D. R. Nascimento,
    J. A. Nichols, P. J. Nichols, J. Nieplocha, A. Otero-de-la-Roza, B. Palmer,
    A. Panyala, T. Pirojsirikul, B. Peng, R. Peverati, J. Pittner, L. Pollack,
   R. M. Richard, P. Sadayappan, G. C. Schatz, W. A. Shelton, D. W. Silverstein,
   D. M. A. Smith, T. A. Soares, D. Song, M. Swart, H. L. Taylor, G. S. Thomas,
            V. Tipparaju, D. G. Truhlar, K. Tsemekhman, T. Van Voorhis,
      A. Vazquez-Mayagoitia, P. Verma, O. Villa, A. Vishnu, K. D. Vogiatzis,
        D. Wang, J. H. Weare, M. J. Williamson, T. L. Windus, K. Wolinski,
        A. T. Wong, Q. Wu, C. Yang, Q. Yu, M. Zacharias, Z. Zhang, Y. Zhao,
                                and R. J. Harrison
                        "NWChem: Past, present, and future
                         J. Chem. Phys. 152, 184102 (2020)
                               doi:10.1063/5.0004997

                                      AUTHORS
                                      -------
  E. Apra, E. J. Bylaska, N. Govind, K. Kowalski, M. Valiev, D. Mejia-Rodriguez,
       A. Kunitsa, N. P. Bauman, A. Panyala, W. A. de Jong, T. P. Straatsma,
   H. J. J. van Dam, D. Wang, T. L. Windus, J. Hammond, J. Autschbach, A. Woods,
    K. Bhaskaran-Nair, J. Brabec, K. Lopata, S. A. Fischer, S. Krishnamoorthy,
     M. Jacquelin, W. Ma, M. Klemm, O. Villa, Y. Chen, V. Anisimov, F. Aquino,
     S. Hirata, M. T. Hackler, E. Hermes, L. Jensen, J. E. Moore, J. C. Becca,
      V. Konjkov, T. Risthaus, M. Malagoli, A. Marenich, A. Otero-de-la-Roza,
        J. Mullin, P. Nichols, R. Peverati, J. Pittner, Y. Zhao, P.-D. Fan,
        A. Fonari, M. J. Williamson, R. J. Harrison, J. R. Rehr, M. Dupuis,
     D. Silverstein, D. M. A. Smith, J. Nieplocha, V. Tipparaju, M. Krishnan,
     B. E. Van Kuiken, A. Vazquez-Mayagoitia, M. Swart, Q. Wu, T. Van Voorhis,
     A. A. Auer, M. Nooijen, L. D. Crosby, E. Brown, G. Cisneros, G. I. Fann,
   H. Fruchtl, J. Garza, K. Hirao, R. A. Kendall, J. A. Nichols, K. Tsemekhman,
    K. Wolinski, J. Anchell, D. E. Bernholdt, P. Borowski, T. Clark, D. Clerc,
   H. Dachsel, M. J. O. Deegan, K. Dyall, D. Elwood, E. Glendening, M. Gutowski,
   A. C. Hess, J. Jaffe, B. G. Johnson, J. Ju, R. Kobayashi, R. Kutteh, Z. Lin,
   R. Littlefield, X. Long, B. Meng, T. Nakajima, S. Niu, L. Pollack, M. Rosing,
   K. Glaesemann, G. Sandrone, M. Stave, H. Taylor, G. Thomas, J. H. van Lenthe,
                               A. T. Wong, Z. Zhang.

 Total times  cpu:      486.0s     wall:      518.9s
