 argument  1 = H2-3.0.nw



============================== echo of input deck ==============================
title "swnc: e theory=pspw4 xc=hf formula=H2 charge=0 mult=1"
#machinejob:expert

echo

start pspw_hf_H2

memory heap 1200 mb stack 1200 mb global 10 mb

charge 0

geometry
H    0.00000    0.00000   -1.50000
H    0.00000    0.00000    1.50000
end

nwpw
  ### pseudopotential block begin ###
  ### pseudopotential block end   ###
  simulation_cell
     SC 20.0000
     boundary_conditions aperiodic
  end

  cutoff 50.0
  mult 1
  xc hf
  lmbfgs
  tolerances 1.0e-9 1.0e-9

  virtual 18
end
set nwpw:cif_filename H2

#set nwpw:CI_maxit_orb 15
#set nwpw:CI_maxit_linesearch 15
set pspw:HFX_screening_radius 14.0


set nwpw:2qintegrals .true.
set nwpw:3x3_virtual .true.

task pspw energy
================================================================================


                                         
                                         


             Northwest Computational Chemistry Package (NWChem) 7.2.3
             --------------------------------------------------------


                    Environmental Molecular Sciences Laboratory
                       Pacific Northwest National Laboratory
                                Richland, WA 99352

                              Copyright (c) 1994-2022
                       Pacific Northwest National Laboratory
                            Battelle Memorial Institute

             NWChem is an open-source computational chemistry package
                        distributed under the terms of the
                      Educational Community License (ECL) 2.0
             A copy of the license is included with this distribution
                              in the LICENSE.TXT file

                                  ACKNOWLEDGMENT
                                  --------------

            This software and its documentation were developed at the
            EMSL at Pacific Northwest National Laboratory, a multiprogram
            national laboratory, operated for the U.S. Department of Energy
            by Battelle under Contract Number DE-AC05-76RL01830. Support
            for this work was provided by the Department of Energy Office
            of Biological and Environmental Research, Office of Basic
            Energy Sciences, and the Office of Advanced Scientific Computing.


           Job information
           ---------------

    hostname        = mqs-al
    program         = nwchem
    date            = Tue Apr 22 13:49:48 2025

    compiled        = Thu_Oct_31_08:55:15_2024
    source          = /home/conda/feedstock_root/build_artifacts/nwchem_1730356057992/work
    nwchem branch   = 7.2.3
    nwchem revision = c400b04
    ga revision     = 5.8.0
    use scalapack   = T
    input           = H2-3.0.nw
    prefix          = pspw_hf_H2.
    data base       = ./pspw_hf_H2.db
    status          = startup
    nproc           =       24
    time left       =     -1s



           Memory information
           ------------------

    heap     =  157286394 doubles =   1200.0 Mbytes
    stack    =  157286399 doubles =   1200.0 Mbytes
    global   =    1310720 doubles =     10.0 Mbytes (distinct from heap & stack)
    total    =  315883513 doubles =   2410.0 Mbytes
    verify   = yes
    hardfail = no 


           Directory information
           ---------------------

  0 permanent = .
  0 scratch   = .




                                NWChem Input Module
                                -------------------


               swnc: e theory=pspw4 xc=hf formula=H2 charge=0 mult=1
               -----------------------------------------------------

 Scaling coordinates for geometry "geometry" by  1.889725989
 (inverse scale =  0.529177249)

  zeroes
  zeroes
  zeroes
  zeroes
  zeroes
  zeroes
  zeroes
  zeroes
  zeroes
  zeroes
  zeroes
  zeroes
  zeroes
  zeroes
  zeroes
  zeroes
  zeroes
  zeroes
  zeroes
  zeroes
  zeroes
  zeroes
  zeroes
  zeroes
  zeroes
  zeroes
  zeroes
  zeroes
  zeroes
  zeroes
  zeroes
  zeroes
  zeroes
  zeroes
  zeroes
  zeroes
  zeroes
  zeroes
  zeroes
  zeroes
  zeroes
  zeroes
  zeroes
  zeroes
  zeroes
  zeroes
  zeroes
  zeroes
 ORDER OF PRIMARY AXIS IS BEING SET TO 4
 D4H symmetry detected

          ------
          auto-z
          ------
     1 autoz failed with cvr_scaling = 1.2 changing to 1.3
     2 autoz failed with cvr_scaling = 1.3 changing to 1.4
     3 autoz failed with cvr_scaling = 1.4 changing to 1.5
     4 autoz failed with cvr_scaling = 1.5 changing to 1.6
     5 autoz failed with cvr_scaling = 1.6 changing to 1.7

 AUTOZ failed to generate good internal coordinates.
 Cartesian coordinates will be used in optimizations.



                             Geometry "geometry" -> ""
                             -------------------------

 Output coordinates in angstroms (scale by  1.889725989 to convert to a.u.)

  No.       Tag          Charge          X              Y              Z
 ---- ---------------- ---------- -------------- -------------- --------------
    1 H                    1.0000     0.00000000     0.00000000    -1.50000000
    2 H                    1.0000     0.00000000     0.00000000     1.50000000

      Atomic Mass 
      ----------- 

      H                  1.007825


 Effective nuclear repulsion energy (a.u.)       0.1763924163

            Nuclear Dipole moment (a.u.) 
            ----------------------------
        X                 Y               Z
 ---------------- ---------------- ----------------
     0.0000000000     0.0000000000     0.0000000000

      Symmetry information
      --------------------

 Group name             D4h       
 Group number             28
 Group order              16
 No. of unique centers     1

      Symmetry unique atoms

     1


            XYZ format geometry
            -------------------
     2
 geometry
 H                     0.00000000     0.00000000    -1.50000000
 H                     0.00000000     0.00000000     1.50000000

          ****************************************************
          *                                                  *
          *               NWPW PSPW Calculation              *
          *                                                  *
          * [ (Grassmann/Stiefel manifold implementation)  ] *
          *                                                  *
          *      [ NorthWest Chemistry implementation ]      *
          *                                                  *
          *            version #5.10   06/12/02              *
          *                                                  *
          *    This code was developed by Eric J. Bylaska,   *
          *    and was based upon algorithms and code        *
          *    developed by the group of Prof. John H. Weare *
          *                                                  *
          ****************************************************
     >>>  JOB STARTED       AT Tue Apr 22 13:49:49 2025  <<<
          ================ input data ========================

 input psi filename:./pspw_hf_H2.movecs

 number of processors used:        24
 processor grid           :  24 x   1
 parallel mapping         :2d-hilbert
 parallel mapping         :  balanced
 number of threads        :         1
 parallel io              :       off

 options:
      boundary conditions  = aperiodic   (version4)
      electron spin        = restricted
      exchange-correlation = Hartree-Fock
      - HFX relaxed
      - HFX restricted orbitals :    1
      - HFX free-space coulomb solver


 elements involved in the cluster:
      1: H   valence charge:  1.0000  lmax=  1
             comment    : Parameterized (Chem.Phys.Lett., vol 322, page 447) Hamman psp
             pseudpotential type            :   0
             highest angular component      :   1
             local potential used           :   1
             number of non-local projections:   1
             aperiodic cutoff radius        :  1.000
             cutoff =   0.800   0.800


 total charge:   0.000

 atomic composition:
     H   :    2

 number of electrons: spin up=     1 (   1 per task)  down=     1 (   1 per task) (Fourier space)
 number of orbitals : spin up=     1 (   1 per task)  down=     1 (   1 per task) (Fourier space)

 supercell:
      cell_name:  cell_default                                      
      lattice:    a1=<  20.000   0.000   0.000 >
                  a2=<   0.000  20.000   0.000 >
                  a3=<   0.000   0.000  20.000 >
      reciprocal: b1=<   0.314   0.000   0.000 >
                  b2=<   0.000   0.314   0.000 >
                  b3=<   0.000   0.000   0.314 >
      lattice:    a=      20.000 b=     20.000 c=      20.000
                  alpha=  90.000 beta=  90.000 gamma=  90.000
                  omega=      8000.0

      density cutoff=100.000  fft= 96x 96x 96(   191162 waves     7965 per task)
      wavefnc cutoff= 50.000  fft= 96x 96x 96(    67522 waves     2813 per task)

 technical parameters:
      time step=      5.80     fictitious mass=  400000.0
      tolerance=0.100E-08 (energy)   0.100E-08 (density)
      maximum iterations =      1000 (   10 inner    100 outer )





== Energy Calculation ==


          ============ Grassmann lmbfgs iteration ============
     >>>  ITERATION STARTED AT Tue Apr 22 13:49:55 2025  <<<
    iter.           Energy         DeltaE       DeltaRho 
    ------------------------------------------------------
      10   -0.8291330177E+00   -0.15602E-02    0.74157E-02
     -  10 steepest descent iterations performed
      20   -0.8338357419E+00   -0.10273E-03    0.68656E-04
      30   -0.8340200772E+00   -0.43153E-05    0.41341E-05
      40   -0.8340337683E+00   -0.22121E-06    0.65441E-07
      50   -0.8340344698E+00   -0.12533E-07    0.14192E-08
      60   -0.8340345065E+00   -0.86381E-09    0.16497E-09
  *** tolerance ok. iteration terminated
     >>>  ITERATION ENDED   AT Tue Apr 22 13:50:16 2025  <<<


==  Summary Of Results  ==

 number of electrons: spin up=    1.00000  down=    1.00000 (real space)

 total     energy    :  -0.8340345065E+00 (   -0.41702E+00/ion)
 total orbital energy:  -0.6644000613E+00 (   -0.66440E+00/electron)
 hartree   energy    :   0.6920537232E+00 (    0.69205E+00/electron)
 exc-corr  energy    :   0.0000000000E+00 (    0.00000E+00/electron)
 HF exchange energy  :  -0.3460268616E+00 (   -0.34603E+00/electron)
 ion-ion   energy    :   0.1763924163E+00 (    0.88196E-01/ion)

 kinetic (planewave) :   0.6216718518E+00 (    0.62167E+00/electron)
 V_local (planewave) :  -0.1830684652E+01 (   -0.18307E+01/electron)
 V_nl    (planewave) :  -0.1474409839E+00 (   -0.14744E+00/electron)
 V_Coul  (planewave) :   0.1384107446E+01 (    0.13841E+01/electron)
 V_xc.   (planewave) :   0.0000000000E+00 (    0.00000E+00/electron)
 K.S. HFX energy     :  -0.6920537232E+00 (   -0.69205E+00/electron)
 Virial Coefficient  :  -0.9555172688E+00

 orbital energies:
    -0.3322000E+00 (  -9.040eV)


== Virtual Orbital Calculation ==


 input epsi filename:./pspw_hf_H2.emovecs

 COVOs Mimimization
 ------------------
CI gradient algorithm =         3
maxit_sweeps          =         3
maxit_orb             =       120
maxit_linesearch      =        15
maxerror              = 0.100E-08

     orb,it,eci,eold,eci-eold=                    1                    1 -0.92888391447700491      -0.92788350210767634       -1.0004123693285738E-003 F
     orb,it,eci,eold,eci-eold=                    1                    2 -0.92913100407689497      -0.92888391447700491       -2.4708959989006019E-004 F
     orb,it,eci,eold,eci-eold=                    1                    3 -0.94259108972258909      -0.92913100407689497       -1.3460085645694120E-002 F
     orb,it,eci,eold,eci-eold=                    1                    4 -0.94333659066744613      -0.94259108972258909       -7.4550094485703600E-004 F
     orb,it,eci,eold,eci-eold=                    1                    5 -0.94469421630696249      -0.94333659066744613       -1.3576256395163577E-003 F
     orb,it,eci,eold,eci-eold=                    1                    6 -0.94885127660093427      -0.94469421630696249       -4.1570602939717816E-003 F
     orb,it,eci,eold,eci-eold=                    1                    7 -0.95303281237625714      -0.94885127660093427       -4.1815357753228755E-003 F
     orb,it,eci,eold,eci-eold=                    1                    8 -0.95431680746576697      -0.95303281237625714       -1.2839950895098262E-003 F
     orb,it,eci,eold,eci-eold=                    1                    9 -0.95467516302253674      -0.95431680746576697       -3.5835555676977382E-004 F
     orb,it,eci,eold,eci-eold=                    1                   10 -0.95986358773044644      -0.95467516302253674       -5.1884247079097001E-003 F
     orb,it,eci,eold,eci-eold=                    1                   11 -0.96135689672109848      -0.95986358773044644       -1.4933089906520314E-003 F
     orb,it,eci,eold,eci-eold=                    1                   12 -0.96165209955017306      -0.96135689672109848       -2.9520282907458117E-004 F
     orb,it,eci,eold,eci-eold=                    1                   13 -0.96451071761420248      -0.96165209955017306       -2.8586180640294279E-003 F
     orb,it,eci,eold,eci-eold=                    1                   14 -0.96610133543415677      -0.96451071761420248       -1.5906178199542875E-003 F
     orb,it,eci,eold,eci-eold=                    1                   15 -0.96868191014157445      -0.96610133543415677       -2.5805747074176821E-003 F
     orb,it,eci,eold,eci-eold=                    1                   16 -0.97019946241800015      -0.96868191014157445       -1.5175522764256932E-003 F
     orb,it,eci,eold,eci-eold=                    1                   17 -0.97156435446696987      -0.97019946241800015       -1.3648920489697236E-003 F
     orb,it,eci,eold,eci-eold=                    1                   18 -0.97210558640053968      -0.97156435446696987       -5.4123193356980792E-004 F
     orb,it,eci,eold,eci-eold=                    1                   19 -0.97325816333866810      -0.97210558640053968       -1.1525769381284245E-003 F
     orb,it,eci,eold,eci-eold=                    1                   20 -0.97351981901380646      -0.97325816333866810       -2.6165567513836141E-004 F
     orb,it,eci,eold,eci-eold=                    1                   21 -0.97384590223854639      -0.97351981901380646       -3.2608322473992590E-004 F
     orb,it,eci,eold,eci-eold=                    1                   22 -0.97499490042031911      -0.97384590223854639       -1.1489981817727202E-003 F
     orb,it,eci,eold,eci-eold=                    1                   23 -0.97506428069159112      -0.97499490042031911       -6.9380271272012628E-005 F
     orb,it,eci,eold,eci-eold=                    1                   24 -0.97515635209814355      -0.97506428069159112       -9.2071406552429735E-005 F
     orb,it,eci,eold,eci-eold=                    1                   25 -0.97637997051837444      -0.97515635209814355       -1.2236184202308875E-003 F
     orb,it,eci,eold,eci-eold=                    1                   26 -0.97638556888939010      -0.97637997051837444       -5.5983710156581878E-006 F
     orb,it,eci,eold,eci-eold=                    1                   27 -0.97639491857551697      -0.97638556888939010       -9.3496861268693721E-006 F
     orb,it,eci,eold,eci-eold=                    1                   28 -0.97723544283129049      -0.97639491857551697       -8.4052425577352263E-004 F
     orb,it,eci,eold,eci-eold=                    1                   29 -0.97728862237753755      -0.97723544283129049       -5.3179546247061893E-005 F
     orb,it,eci,eold,eci-eold=                    1                   30 -0.97729793480680693      -0.97728862237753755       -9.3124292693813615E-006 F
     orb,it,eci,eold,eci-eold=                    1                   31 -0.97807324474812907      -0.97729793480680693       -7.7530994132213316E-004 F
     orb,it,eci,eold,eci-eold=                    1                   32 -0.97815638381065573      -0.97807324474812907       -8.3139062526660368E-005 F
     orb,it,eci,eold,eci-eold=                    1                   33 -0.97815906515279494      -0.97815638381065573       -2.6813421392102299E-006 F
     orb,it,eci,eold,eci-eold=                    1                   34 -0.97867939821269156      -0.97815906515279494       -5.2033305989662715E-004 F
     orb,it,eci,eold,eci-eold=                    1                   35 -0.97878117687499344      -0.97867939821269156       -1.0177866230187682E-004 F
     orb,it,eci,eold,eci-eold=                    1                   36 -0.97879628575089994      -0.97878117687499344       -1.5108875906499897E-005 F
     orb,it,eci,eold,eci-eold=                    1                   37 -0.97923141594017793      -0.97879628575089994       -4.3513018927798797E-004 F
     orb,it,eci,eold,eci-eold=                    1                   38 -0.97934552585706569      -0.97923141594017793       -1.1410991688776129E-004 F
     orb,it,eci,eold,eci-eold=                    1                   39 -0.97937621082390758      -0.97934552585706569       -3.0684966841887373E-005 F
     orb,it,eci,eold,eci-eold=                    1                   40 -0.97972595309834087      -0.97937621082390758       -3.4974227443329564E-004 F
     orb,it,eci,eold,eci-eold=                    1                   41 -0.97991516274013690      -0.97972595309834087       -1.8920964179602873E-004 F
     orb,it,eci,eold,eci-eold=                    1                   42 -0.98006815137345282      -0.97991516274013690       -1.5298863331592027E-004 F
     orb,it,eci,eold,eci-eold=                    1                   43 -0.98015003045235005      -0.98006815137345282       -8.1879078897229007E-005 F
     orb,it,eci,eold,eci-eold=                    1                   44 -0.98034487209109344      -0.98015003045235005       -1.9484163874339266E-004 F
     orb,it,eci,eold,eci-eold=                    1                   45 -0.98036078808042038      -0.98034487209109344       -1.5915989326931168E-005 F
     orb,it,eci,eold,eci-eold=                    1                   46 -0.98036220011874819      -0.98036078808042038       -1.4120383278193316E-006 F
     orb,it,eci,eold,eci-eold=                    1                   47 -0.98048176284176736      -0.98036220011874819       -1.1956272301916204E-004 F
     orb,it,eci,eold,eci-eold=                    1                   48 -0.98053234944793677      -0.98048176284176736       -5.0586606169411574E-005 F
     orb,it,eci,eold,eci-eold=                    1                   49 -0.98054526483719939      -0.98053234944793677       -1.2915389262624366E-005 F
     orb,it,eci,eold,eci-eold=                    1                   50 -0.98065585232216723      -0.98054526483719939       -1.1058748496783899E-004 F
     orb,it,eci,eold,eci-eold=                    1                   51 -0.98070971417556907      -0.98065585232216723       -5.3861853401837578E-005 F
     orb,it,eci,eold,eci-eold=                    1                   52 -0.98072093189009113      -0.98070971417556907       -1.1217714522060440E-005 F
     orb,it,eci,eold,eci-eold=                    1                   53 -0.98079521149151072      -0.98072093189009113       -7.4279601419591224E-005 F
     orb,it,eci,eold,eci-eold=                    1                   54 -0.98082614908752008      -0.98079521149151072       -3.0937596009361634E-005 F
     orb,it,eci,eold,eci-eold=                    1                   55 -0.98083986528243727      -0.98082614908752008       -1.3716194917190450E-005 F
     orb,it,eci,eold,eci-eold=                    1                   56 -0.98090849933966728      -0.98083986528243727       -6.8634057230010370E-005 F
     orb,it,eci,eold,eci-eold=                    1                   57 -0.98093454295345106      -0.98090849933966728       -2.6043613783777175E-005 F
     orb,it,eci,eold,eci-eold=                    1                   58 -0.98094249254030230      -0.98093454295345106       -7.9495868512413637E-006 F
     orb,it,eci,eold,eci-eold=                    1                   59 -0.98099101525999588      -0.98094249254030230       -4.8522719693577798E-005 F
     orb,it,eci,eold,eci-eold=                    1                   60 -0.98100990408628930      -0.98099101525999588       -1.8888826293417260E-005 F
     orb,it,eci,eold,eci-eold=                    1                   61 -0.98101869332318770      -0.98100990408628930       -8.7892368983988334E-006 F
     orb,it,eci,eold,eci-eold=                    1                   62 -0.98106527796411847      -0.98101869332318770       -4.6584640930769083E-005 F
     orb,it,eci,eold,eci-eold=                    1                   63 -0.98108231975896654      -0.98106527796411847       -1.7041794848071667E-005 F
     orb,it,eci,eold,eci-eold=                    1                   64 -0.98108587159923721      -0.98108231975896654       -3.5518402706768981E-006 F
     orb,it,eci,eold,eci-eold=                    1                   65 -0.98111672643516645      -0.98108587159923721       -3.0854835929239322E-005 F
     orb,it,eci,eold,eci-eold=                    1                   66 -0.98113132680209603      -0.98111672643516645       -1.4600366929573561E-005 F
     orb,it,eci,eold,eci-eold=                    1                   67 -0.98113771749994694      -0.98113132680209603       -6.3906978509109535E-006 F
     orb,it,eci,eold,eci-eold=                    1                   68 -0.98116564663244543      -0.98113771749994694       -2.7929132498494269E-005 F
     orb,it,eci,eold,eci-eold=                    1                   69 -0.98117486224732886      -0.98116564663244543       -9.2156148834288132E-006 F
     orb,it,eci,eold,eci-eold=                    1                   70 -0.98117822360131934      -0.98117486224732886       -3.3613539904830958E-006 F
     orb,it,eci,eold,eci-eold=                    1                   71 -0.98120032850711181      -0.98117822360131934       -2.2104905792463825E-005 F
     orb,it,eci,eold,eci-eold=                    1                   72 -0.98120869203461536      -0.98120032850711181       -8.3635275035520706E-006 F
     orb,it,eci,eold,eci-eold=                    1                   73 -0.98121156645767016      -0.98120869203461536       -2.8744230547994576E-006 F
     orb,it,eci,eold,eci-eold=                    1                   74 -0.98123162580000611      -0.98121156645767016       -2.0059342335954078E-005 F
     orb,it,eci,eold,eci-eold=                    1                   75 -0.98123952837847617      -0.98123162580000611       -7.9025784700537116E-006 F
     orb,it,eci,eold,eci-eold=                    1                   76 -0.98124093070514995      -0.98123952837847617       -1.4023266737828166E-006 F
     orb,it,eci,eold,eci-eold=                    1                   77 -0.98125557316020195      -0.98124093070514995       -1.4642455052005232E-005 F
     orb,it,eci,eold,eci-eold=                    1                   78 -0.98126210760464838      -0.98125557316020195       -6.5344444464265905E-006 F
     orb,it,eci,eold,eci-eold=                    1                   79 -0.98126407482092670      -0.98126210760464838       -1.9672162783201941E-006 F
     orb,it,eci,eold,eci-eold=                    1                   80 -0.98127731776195837      -0.98126407482092670       -1.3242941031665900E-005 F
     orb,it,eci,eold,eci-eold=                    1                   81 -0.98128313537082623      -0.98127731776195837       -5.8176088678640880E-006 F
     orb,it,eci,eold,eci-eold=                    1                   82 -0.98128462234518599      -0.98128313537082623       -1.4869743597545337E-006 F
     orb,it,eci,eold,eci-eold=                    1                   83 -0.98129477049074976      -0.98128462234518599       -1.0148145563770861E-005 F
     orb,it,eci,eold,eci-eold=                    1                   84 -0.98129848422167010      -0.98129477049074976       -3.7137309203405522E-006 F
     orb,it,eci,eold,eci-eold=                    1                   85 -0.98129948802870870      -0.98129848422167010       -1.0038070386020337E-006 F
     orb,it,eci,eold,eci-eold=                    1                   86 -0.98130802980250120      -0.98129948802870870       -8.5417737925030934E-006 F
     orb,it,eci,eold,eci-eold=                    1                   87 -0.98131180820902708      -0.98130802980250120       -3.7784065258783528E-006 F
     orb,it,eci,eold,eci-eold=                    1                   88 -0.98131270943692017      -0.98131180820902708       -9.0122789309088347E-007 F
     orb,it,eci,eold,eci-eold=                    1                   89 -0.98131911073790301      -0.98131270943692017       -6.4013009828389755E-006 F
     orb,it,eci,eold,eci-eold=                    1                   90 -0.98132180491815690      -0.98131911073790301       -2.6941802538926751E-006 F
     orb,it,eci,eold,eci-eold=                    1                   91 -0.98132278636927150      -0.98132180491815690       -9.8145111460112844E-007 F
     orb,it,eci,eold,eci-eold=                    1                   92 -0.98132858334742845      -0.98132278636927150       -5.7969781569466861E-006 F
     orb,it,eci,eold,eci-eold=                    1                   93 -0.98133128150983384      -0.98132858334742845       -2.6981624053901143E-006 F
     orb,it,eci,eold,eci-eold=                    1                   94 -0.98133217033922804      -0.98133128150983384       -8.8882939419665519E-007 F
     orb,it,eci,eold,eci-eold=                    1                   95 -0.98133647927228829      -0.98133217033922804       -4.3089330602485987E-006 F
     orb,it,eci,eold,eci-eold=                    1                   96 -0.98133751511355483      -0.98133647927228829       -1.0358412665389949E-006 F
     orb,it,eci,eold,eci-eold=                    1                   97 -0.98133777489817331      -0.98133751511355483       -2.5978461848374934E-007 F
     orb,it,eci,eold,eci-eold=                    1                   98 -0.98134115376564002      -0.98133777489817331       -3.3788674667079022E-006 F
     orb,it,eci,eold,eci-eold=                    1                   99 -0.98134280745563574      -0.98134115376564002       -1.6536899957175777E-006 F
     orb,it,eci,eold,eci-eold=                    1                  100 -0.98134332446288319      -0.98134280745563574       -5.1700724745806781E-007 F
     orb,it,eci,eold,eci-eold=                    1                  101 -0.98134611282797390      -0.98134332446288319       -2.7883650907112312E-006 F
     orb,it,eci,eold,eci-eold=                    1                  102 -0.98134714737611439      -0.98134611282797390       -1.0345481404883117E-006 F
     orb,it,eci,eold,eci-eold=                    1                  103 -0.98134750205999854      -0.98134714737611439       -3.5468388415171859E-007 F
     orb,it,eci,eold,eci-eold=                    1                  104 -0.98134988897878683      -0.98134750205999854       -2.3869187882885612E-006 F
     orb,it,eci,eold,eci-eold=                    1                  105 -0.98135098509743113      -0.98134988897878683       -1.0961186442948190E-006 F
     orb,it,eci,eold,eci-eold=                    1                  106 -0.98135135283276664      -0.98135098509743113       -3.6773533551581750E-007 F
     orb,it,eci,eold,eci-eold=                    1                  107 -0.98135334664795115      -0.98135135283276664       -1.9938151845089180E-006 F
     orb,it,eci,eold,eci-eold=                    1                  108 -0.98135403448379854      -0.98135334664795115       -6.8783584739051662E-007 F
     orb,it,eci,eold,eci-eold=                    1                  109 -0.98135422565286223      -0.98135403448379854       -1.9116906369021081E-007 F
     orb,it,eci,eold,eci-eold=                    1                  110 -0.98135587328459339      -0.98135422565286223       -1.6476317311608923E-006 F
     orb,it,eci,eold,eci-eold=                    1                  111 -0.98135657780303975      -0.98135587328459339       -7.0451844635943672E-007 F
     orb,it,eci,eold,eci-eold=                    1                  112 -0.98135674383734328      -0.98135657780303975       -1.6603430352812865E-007 F
     orb,it,eci,eold,eci-eold=                    1                  113 -0.98135804919384118      -0.98135674383734328       -1.3053564978937615E-006 F
     orb,it,eci,eold,eci-eold=                    1                  114 -0.98135857984161423      -0.98135804919384118       -5.3064777305600330E-007 F
     orb,it,eci,eold,eci-eold=                    1                  115 -0.98135871000727160      -0.98135857984161423       -1.3016565736378993E-007 F
     orb,it,eci,eold,eci-eold=                    1                  116 -0.98135973806770260      -0.98135871000727160       -1.0280604310075603E-006 F
     orb,it,eci,eold,eci-eold=                    1                  117 -0.98136017371312545      -0.98135973806770260       -4.3564542284713070E-007 F
     orb,it,eci,eold,eci-eold=                    1                  118 -0.98136029734324115      -0.98136017371312545       -1.2363011570037941E-007 F
     orb,it,eci,eold,eci-eold=                    1                  119 -0.98136109266231730      -0.98136029734324115       -7.9531907615226771E-007 F
     orb,it,eci,eold,eci-eold=                    1                  120 -0.98136136510656102      -0.98136109266231730       -2.7244424372074860E-007 F
     orb,it,eci,eold,eci-eold=                    1                  121 -0.98136144834468553      -0.98136136510656102       -8.3238124504170230E-008 F
     orbital   1 current e= -0.113188E+00 error=0.512E-01 (eci= -0.981361448E+00 error=0.832E-07) iterations 121(   0 preconditioned, Ep,Sp= 20.0  200.0)
     orb,it,eci,eold,eci-eold=                    1                    1 -0.98136366745771575      -0.98136144834468553       -2.2191130302218198E-006 F
     orb,it,eci,eold,eci-eold=                    1                    2 -0.98136441015208087      -0.98136366745771575       -7.4269436511897879E-007 F
     orb,it,eci,eold,eci-eold=                    1                    3 -0.98136484053990292      -0.98136441015208087       -4.3038782204796178E-007 F
     orb,it,eci,eold,eci-eold=                    1                    4 -0.98136552775780306      -0.98136484053990292       -6.8721790014159012E-007 F
     orb,it,eci,eold,eci-eold=                    1                    5 -0.98136583462339011      -0.98136552775780306       -3.0686558705195210E-007 F
     orb,it,eci,eold,eci-eold=                    1                    6 -0.98136598054225033      -0.98136583462339011       -1.4591886021708689E-007 F
     orb,it,eci,eold,eci-eold=                    1                    7 -0.98136608112051182      -0.98136598054225033       -1.0057826149711957E-007 F
     orb,it,eci,eold,eci-eold=                    1                    8 -0.98136614774450248      -0.98136608112051182       -6.6623990657710408E-008 F
     orb,it,eci,eold,eci-eold=                    1                    9 -0.98136645939339162      -0.98136614774450248       -3.1164888913970401E-007 F
     orb,it,eci,eold,eci-eold=                    1                   10 -0.98136648594259335      -0.98136645939339162       -2.6549201725956095E-008 F
     orb,it,eci,eold,eci-eold=                    1                   11 -0.98136648908006530      -0.98136648594259335       -3.1374719489107861E-009 F
     orb,it,eci,eold,eci-eold=                    1                   12 -0.98136660019167876      -0.98136648908006530       -1.1111161346555321E-007 F
     orb,it,eci,eold,eci-eold=                    1                   13 -0.98136667539227984      -0.98136660019167876       -7.5200601079572493E-008 F
     orb,it,eci,eold,eci-eold=                    1                   14 -0.98136676521653743      -0.98136667539227984       -8.9824257587522993E-008 F
     orb,it,eci,eold,eci-eold=                    1                   15 -0.98136677211834777      -0.98136676521653743       -6.9018103454610014E-009 F
     orb,it,eci,eold,eci-eold=                    1                   16 -0.98136678598818139      -0.98136677211834777       -1.3869833614954530E-008 F
     orb,it,eci,eold,eci-eold=                    1                   17 -0.98136683070049324      -0.98136678598818139       -4.4712311852990183E-008 F
     orb,it,eci,eold,eci-eold=                    1                   18 -0.98136686050205768      -0.98136683070049324       -2.9801564438436401E-008 F
     orb,it,eci,eold,eci-eold=                    1                   19 -0.98136691144104504      -0.98136686050205768       -5.0938987361526245E-008 F
     orb,it,eci,eold,eci-eold=                    1                   20 -0.98136692181134766      -0.98136691144104504       -1.0370302616635740E-008 F
     orb,it,eci,eold,eci-eold=                    1                   21 -0.98136692181134766      -0.98136692181134766        0.0000000000000000      F
     orbital   1 current e= -0.113194E+00 error=0.610E-05 (eci= -0.981366922E+00 error=0.000E+00) iterations  21(   0 preconditioned, Ep,Sp= 20.0  200.0)
     orb,it,eci,eold,eci-eold=                    1                    1 -0.98136700281565870      -0.98136692174803752       -8.1067621171548865E-008 F
     orb,it,eci,eold,eci-eold=                    1                    2 -0.98136702749375171      -0.98136700281565870       -2.4678093013541513E-008 F
     orb,it,eci,eold,eci-eold=                    1                    3 -0.98136702749375171      -0.98136702749375171        0.0000000000000000      F
     orbital   1 current e= -0.113193E+00 error=0.665E-06 (eci= -0.981367027E+00 error=0.000E+00) iterations   3(   0 preconditioned, Ep,Sp= 20.0  200.0)
     orb,it,eci,eold,eci-eold=                    2                    1 -0.83764415413764914      -0.83718290444550481       -4.6124969214433875E-004 F
     orb,it,eci,eold,eci-eold=                    2                    2 -0.83789818253636805      -0.83764415413764914       -2.5402839871890848E-004 F
     orb,it,eci,eold,eci-eold=                    2                    3 -0.83801747699190410      -0.83789818253636805       -1.1929445553604534E-004 F
     orb,it,eci,eold,eci-eold=                    2                    4 -0.83810349644449367      -0.83801747699190410       -8.6019452589569667E-005 F
     orb,it,eci,eold,eci-eold=                    2                    5 -0.83813468037414984      -0.83810349644449367       -3.1183929656175557E-005 F
     orb,it,eci,eold,eci-eold=                    2                    6 -0.83814361584811692      -0.83813468037414984       -8.9354739670755023E-006 F
     orb,it,eci,eold,eci-eold=                    2                    7 -0.83815546414376696      -0.83814361584811692       -1.1848295650040974E-005 F
     orb,it,eci,eold,eci-eold=                    2                    8 -0.83816881437026969      -0.83815546414376696       -1.3350226502728546E-005 F
     orb,it,eci,eold,eci-eold=                    2                    9 -0.83817535353868600      -0.83816881437026969       -6.5391684163085273E-006 F
     orb,it,eci,eold,eci-eold=                    2                   10 -0.83819307577798219      -0.83817535353868600       -1.7722239296191766E-005 F
     orb,it,eci,eold,eci-eold=                    2                   11 -0.83819772444628660      -0.83819307577798219       -4.6486683044077992E-006 F
     orb,it,eci,eold,eci-eold=                    2                   12 -0.83820419510377642      -0.83819772444628660       -6.4706574898210079E-006 F
     orb,it,eci,eold,eci-eold=                    2                   13 -0.83821630417228676      -0.83820419510377642       -1.2109068510346432E-005 F
     orb,it,eci,eold,eci-eold=                    2                   14 -0.83822253490895360      -0.83821630417228676       -6.2307366668346020E-006 F
     orb,it,eci,eold,eci-eold=                    2                   15 -0.83822516649776091      -0.83822253490895360       -2.6315888073114024E-006 F
     orb,it,eci,eold,eci-eold=                    2                   16 -0.83823109828518572      -0.83822516649776091       -5.9317874248066005E-006 F
     orb,it,eci,eold,eci-eold=                    2                   17 -0.83824159863585856      -0.83823109828518572       -1.0500350672848491E-005 F
     orb,it,eci,eold,eci-eold=                    2                   18 -0.83824801379944558      -0.83824159863585856       -6.4151635870146606E-006 F
     orb,it,eci,eold,eci-eold=                    2                   19 -0.83825489358727023      -0.83824801379944558       -6.8797878246540378E-006 F
     orb,it,eci,eold,eci-eold=                    2                   20 -0.83825822384820436      -0.83825489358727023       -3.3302609341312461E-006 F
     orb,it,eci,eold,eci-eold=                    2                   21 -0.83826333130098862      -0.83825822384820436       -5.1074527842587258E-006 F
     orb,it,eci,eold,eci-eold=                    2                   22 -0.83826365866986119      -0.83826333130098862       -3.2736887256579195E-007 F
     orb,it,eci,eold,eci-eold=                    2                   23 -0.83826539050288473      -0.83826365866986119       -1.7318330235438495E-006 F
     orb,it,eci,eold,eci-eold=                    2                   24 -0.83826960124859295      -0.83826539050288473       -4.2107457082218858E-006 F
     orb,it,eci,eold,eci-eold=                    2                   25 -0.83827188214721093      -0.83826960124859295       -2.2808986179789770E-006 F
     orb,it,eci,eold,eci-eold=                    2                   26 -0.83827452659667201      -0.83827188214721093       -2.6444494610755598E-006 F
     orb,it,eci,eold,eci-eold=                    2                   27 -0.83827477171248321      -0.83827452659667201       -2.4511581120378878E-007 F
     orb,it,eci,eold,eci-eold=                    2                   28 -0.83827552187018517      -0.83827477171248321       -7.5015770195641096E-007 F
     orb,it,eci,eold,eci-eold=                    2                   29 -0.83827735673401227      -0.83827552187018517       -1.8348638270992979E-006 F
     orb,it,eci,eold,eci-eold=                    2                   30 -0.83827774456707882      -0.83827735673401227       -3.8783306655076899E-007 F
     orb,it,eci,eold,eci-eold=                    2                   31 -0.83827829314612767      -0.83827774456707882       -5.4857904885352582E-007 F
     orb,it,eci,eold,eci-eold=                    2                   32 -0.83827990492214410      -0.83827829314612767       -1.6117760164302553E-006 F
     orb,it,eci,eold,eci-eold=                    2                   33 -0.83828004079425011      -0.83827990492214410       -1.3587210601073707E-007 F
     orb,it,eci,eold,eci-eold=                    2                   34 -0.83828014437090648      -0.83828004079425011       -1.0357665636284707E-007 F
     orb,it,eci,eold,eci-eold=                    2                   35 -0.83828130211569096      -0.83828014437090648       -1.1577447844857147E-006 F
     orb,it,eci,eold,eci-eold=                    2                   36 -0.83828183942526535      -0.83828130211569096       -5.3730957438880012E-007 F
     orb,it,eci,eold,eci-eold=                    2                   37 -0.83828204575432341      -0.83828183942526535       -2.0632905806117208E-007 F
     orb,it,eci,eold,eci-eold=                    2                   38 -0.83828293834389722      -0.83828204575432341       -8.9258957380877746E-007 F
     orb,it,eci,eold,eci-eold=                    2                   39 -0.83828316095037914      -0.83828293834389722       -2.2260648191441135E-007 F
     orb,it,eci,eold,eci-eold=                    2                   40 -0.83828325836200990      -0.83828316095037914       -9.7411630761712331E-008 F
     orb,it,eci,eold,eci-eold=                    2                   41 -0.83828403544075292      -0.83828325836200990       -7.7707874301946589E-007 F
     orb,it,eci,eold,eci-eold=                    2                   42 -0.83828440263403858      -0.83828403544075292       -3.6719328566636733E-007 F
     orb,it,eci,eold,eci-eold=                    2                   43 -0.83828452237324314      -0.83828440263403858       -1.1973920455154996E-007 F
     orb,it,eci,eold,eci-eold=                    2                   44 -0.83828510884186680      -0.83828452237324314       -5.8646862366451558E-007 F
     orb,it,eci,eold,eci-eold=                    2                   45 -0.83828519248067734      -0.83828510884186680       -8.3638810544073294E-008 F
     orb,it,eci,eold,eci-eold=                    2                   46 -0.83828520297681197      -0.83828519248067734       -1.0496134628112941E-008 F
     orb,it,eci,eold,eci-eold=                    2                   47 -0.83828565370662500      -0.83828520297681197       -4.5072981302851645E-007 F
     orb,it,eci,eold,eci-eold=                    2                   48 -0.83828593737733703      -0.83828565370662500       -2.8367071203128091E-007 F
     orb,it,eci,eold,eci-eold=                    2                   49 -0.83828620309832369      -0.83828593737733703       -2.6572098665855748E-007 F
     orb,it,eci,eold,eci-eold=                    2                   50 -0.83828637410529483      -0.83828620309832369       -1.7100697113914265E-007 F
     orb,it,eci,eold,eci-eold=                    2                   51 -0.83828679688879948      -0.83828637410529483       -4.2278350464997061E-007 F
     orb,it,eci,eold,eci-eold=                    2                   52 -0.83828704802873477      -0.83828679688879948       -2.5113993529224388E-007 F
     orb,it,eci,eold,eci-eold=                    2                   53 -0.83828728780029249      -0.83828704802873477       -2.3977155771959247E-007 F
     orb,it,eci,eold,eci-eold=                    2                   54 -0.83828741209400637      -0.83828728780029249       -1.2429371387678856E-007 F
     orb,it,eci,eold,eci-eold=                    2                   55 -0.83828766197853510      -0.83828741209400637       -2.4988452873575540E-007 F
     orb,it,eci,eold,eci-eold=                    2                   56 -0.83828768301492285      -0.83828766197853510       -2.1036387742867646E-008 F
     orb,it,eci,eold,eci-eold=                    2                   57 -0.83828770188160218      -0.83828768301492285       -1.8866679329931912E-008 F
     orb,it,eci,eold,eci-eold=                    2                   58 -0.83828789042058616      -0.83828770188160218       -1.8853898398063507E-007 F
     orb,it,eci,eold,eci-eold=                    2                   59 -0.83828793925627620      -0.83828789042058616       -4.8835690047432934E-008 F
     orb,it,eci,eold,eci-eold=                    2                   60 -0.83828795514680476      -0.83828793925627620       -1.5890528559658890E-008 F
     orb,it,eci,eold,eci-eold=                    2                   61 -0.83828814958985032      -0.83828795514680476       -1.9444304555360503E-007 F
     orb,it,eci,eold,eci-eold=                    2                   62 -0.83828825856890066      -0.83828814958985032       -1.0897905033946387E-007 F
     orb,it,eci,eold,eci-eold=                    2                   63 -0.83828832430884459      -0.83828825856890066       -6.5739943932996425E-008 F
     orb,it,eci,eold,eci-eold=                    2                   64 -0.83828835090010345      -0.83828832430884459       -2.6591258861508038E-008 F
     orb,it,eci,eold,eci-eold=                    2                   65 -0.83828845023437526      -0.83828835090010345       -9.9334271808082519E-008 F
     orb,it,eci,eold,eci-eold=                    2                   66 -0.83828846816455482      -0.83828845023437526       -1.7930179563308002E-008 F
     orb,it,eci,eold,eci-eold=                    2                   67 -0.83828847554487873      -0.83828846816455482       -7.3803239075687088E-009 F
     orb,it,eci,eold,eci-eold=                    2                   68 -0.83828857825427483      -0.83828847554487873       -1.0270939609924312E-007 F
     orb,it,eci,eold,eci-eold=                    2                   69 -0.83828858875787027      -0.83828857825427483       -1.0503595437860724E-008 F
     orb,it,eci,eold,eci-eold=                    2                   70 -0.83828859103532738      -0.83828858875787027       -2.2774571117878395E-009 F
     orb,it,eci,eold,eci-eold=                    2                   71 -0.83828866237936916      -0.83828859103532738       -7.1344041785437184E-008 F
     orb,it,eci,eold,eci-eold=                    2                   72 -0.83828868528807432      -0.83828866237936916       -2.2908705155089137E-008 F
     orb,it,eci,eold,eci-eold=                    2                   73 -0.83828868803245449      -0.83828868528807432       -2.7443801675630652E-009 F
     orb,it,eci,eold,eci-eold=                    2                   74 -0.83828873090498035      -0.83828868803245449       -4.2872525862769351E-008 F
     orb,it,eci,eold,eci-eold=                    2                   75 -0.83828875105798506      -0.83828873090498035       -2.0153004709477784E-008 F
     orb,it,eci,eold,eci-eold=                    2                   76 -0.83828875678253190      -0.83828875105798506       -5.7245468365607621E-009 F
     orb,it,eci,eold,eci-eold=                    2                   77 -0.83828879178259041      -0.83828875678253190       -3.5000058518086519E-008 F
     orb,it,eci,eold,eci-eold=                    2                   78 -0.83828880897804436      -0.83828879178259041       -1.7195453949625517E-008 F
     orb,it,eci,eold,eci-eold=                    2                   79 -0.83828881608216499      -0.83828880897804436       -7.1041206251010180E-009 F
     orb,it,eci,eold,eci-eold=                    2                   80 -0.83828884639380064      -0.83828881608216499       -3.0311635645929869E-008 F
     orb,it,eci,eold,eci-eold=                    2                   81 -0.83828885690212607      -0.83828884639380064       -1.0508325432034837E-008 F
     orb,it,eci,eold,eci-eold=                    2                   82 -0.83828886103680400      -0.83828885690212607       -4.1346779333650829E-009 F
     orb,it,eci,eold,eci-eold=                    2                   83 -0.83828888798586476      -0.83828886103680400       -2.6949060760728116E-008 F
     orb,it,eci,eold,eci-eold=                    2                   84 -0.83828889992896249      -0.83828888798586476       -1.1943097733002617E-008 F
     orb,it,eci,eold,eci-eold=                    2                   85 -0.83828890254823274      -0.83828889992896249       -2.6192702451410810E-009 F
     orb,it,eci,eold,eci-eold=                    2                   86 -0.83828892119536880      -0.83828890254823274       -1.8647136057481362E-008 F
     orb,it,eci,eold,eci-eold=                    2                   87 -0.83828893034360497      -0.83828892119536880       -9.1482361685990554E-009 F
     orb,it,eci,eold,eci-eold=                    2                   88 -0.83828893380659741      -0.83828893034360497       -3.4629924483553509E-009 F
     orb,it,eci,eold,eci-eold=                    2                   89 -0.83828894820388311      -0.83828893380659741       -1.4397285696965412E-008 F
     orb,it,eci,eold,eci-eold=                    2                   90 -0.83828895314720442      -0.83828894820388311       -4.9433213078486915E-009 F
     orb,it,eci,eold,eci-eold=                    2                   91 -0.83828895570629880      -0.83828895314720442       -2.5590943808495581E-009 F
     orb,it,eci,eold,eci-eold=                    2                   92 -0.83828896836785627      -0.83828895570629880       -1.2661557469151319E-008 F
     orb,it,eci,eold,eci-eold=                    2                   93 -0.83828897306618666      -0.83828896836785627       -4.6983303914061025E-009 F
     orb,it,eci,eold,eci-eold=                    2                   94 -0.83828897515044898      -0.83828897306618666       -2.0842623182915077E-009 F
     orb,it,eci,eold,eci-eold=                    2                   95 -0.83828898821009123      -0.83828897515044898       -1.3059642256507686E-008 F
     orb,it,eci,eold,eci-eold=                    2                   96 -0.83828899432119974      -0.83828898821009123       -6.1111085081222427E-009 F
     orb,it,eci,eold,eci-eold=                    2                   97 -0.83828899540184509      -0.83828899432119974       -1.0806453509815128E-009 F
     orb,it,eci,eold,eci-eold=                    2                   98 -0.83828900394267891      -0.83828899540184509       -8.5408338179604470E-009 F
     orb,it,eci,eold,eci-eold=                    2                   99 -0.83828900760884495      -0.83828900394267891       -3.6661660374193161E-009 F
     orb,it,eci,eold,eci-eold=                    2                  100 -0.83828900878172274      -0.83828900760884495       -1.1728777948860625E-009 F
     orb,it,eci,eold,eci-eold=                    2                  101 -0.83828901572707526      -0.83828900878172274       -6.9453525153306828E-009 F
     orb,it,eci,eold,eci-eold=                    2                  102 -0.83828901817173562      -0.83828901572707526       -2.4446603630323693E-009 F
     orb,it,eci,eold,eci-eold=                    2                  103 -0.83828901889248819      -0.83828901817173562       -7.2075256873915805E-010 F
     orbital   2 current e=  0.401770E+00 error=0.885E-01 (eci= -0.838289019E+00 error=0.721E-09) iterations 103(   0 preconditioned, Ep,Sp= 20.0  200.0)
     orb,it,eci,eold,eci-eold=                    2                    1 -0.83828904026482554      -0.83828901889248819       -2.1372337344338632E-008 F
     orb,it,eci,eold,eci-eold=                    2                    2 -0.83828904719723829      -0.83828904026482554       -6.9324127549563741E-009 F
     orb,it,eci,eold,eci-eold=                    2                    3 -0.83828904885802591      -0.83828904719723829       -1.6607876185403825E-009 F
     orb,it,eci,eold,eci-eold=                    2                    4 -0.83828904885802591      -0.83828904885802591        0.0000000000000000      F
     orbital   2 current e=  0.401772E+00 error=0.183E-05 (eci= -0.838289049E+00 error=0.000E+00) iterations   4(   0 preconditioned, Ep,Sp= 20.0  200.0)
     orb,it,eci,eold,eci-eold=                    2                    1 -0.83828905515766838      -0.83828904806947557       -7.0881928104782332E-009 F
     orb,it,eci,eold,eci-eold=                    2                    2 -0.83828905918063512      -0.83828905515766838       -4.0229667375157874E-009 F
     orb,it,eci,eold,eci-eold=                    2                    3 -0.83828906356044497      -0.83828905918063512       -4.3798098481317993E-009 F
     orb,it,eci,eold,eci-eold=                    2                    4 -0.83828906374129675      -0.83828906356044497       -1.8085177799775920E-010 F
     orbital   2 current e=  0.401770E+00 error=0.199E-05 (eci= -0.838289064E+00 error=0.181E-09) iterations   4(   0 preconditioned, Ep,Sp= 20.0  200.0)
     orb,it,eci,eold,eci-eold=                    3                    1 -0.83593313180461326      -0.83589376268498516       -3.9369119628096527E-005 F
     orb,it,eci,eold,eci-eold=                    3                    2 -0.83598058618250115      -0.83593313180461326       -4.7454377887889976E-005 F
     orb,it,eci,eold,eci-eold=                    3                    3 -0.83603640882552122      -0.83598058618250115       -5.5822643020064788E-005 F
     orb,it,eci,eold,eci-eold=                    3                    4 -0.83606804107781763      -0.83603640882552122       -3.1632252296409646E-005 F
     orb,it,eci,eold,eci-eold=                    3                    5 -0.83617777390046655      -0.83606804107781763       -1.0973282264892248E-004 F
     orb,it,eci,eold,eci-eold=                    3                    6 -0.83623301373158510      -0.83617777390046655       -5.5239831118547578E-005 F
     orb,it,eci,eold,eci-eold=                    3                    7 -0.83624658834571630      -0.83623301373158510       -1.3574614131206530E-005 F
     orb,it,eci,eold,eci-eold=                    3                    8 -0.83625199415498730      -0.83624658834571630       -5.4058092709974304E-006 F
     orb,it,eci,eold,eci-eold=                    3                    9 -0.83629812266679338      -0.83625199415498730       -4.6128511806076133E-005 F
     orb,it,eci,eold,eci-eold=                    3                   10 -0.83632501101173162      -0.83629812266679338       -2.6888344938247322E-005 F
     orb,it,eci,eold,eci-eold=                    3                   11 -0.83634233648997847      -0.83632501101173162       -1.7325478246843495E-005 F
     orb,it,eci,eold,eci-eold=                    3                   12 -0.83635251688765111      -0.83634233648997847       -1.0180397672643338E-005 F
     orb,it,eci,eold,eci-eold=                    3                   13 -0.83638040832470761      -0.83635251688765111       -2.7891437056504209E-005 F
     orb,it,eci,eold,eci-eold=                    3                   14 -0.83639660879495303      -0.83638040832470761       -1.6200470245419929E-005 F
     orb,it,eci,eold,eci-eold=                    3                   15 -0.83640613322950297      -0.83639660879495303       -9.5244345499345684E-006 F
     orb,it,eci,eold,eci-eold=                    3                   16 -0.83640923961073954      -0.83640613322950297       -3.1063812365728083E-006 F
     orb,it,eci,eold,eci-eold=                    3                   17 -0.83642284349147367      -0.83640923961073954       -1.3603880734125440E-005 F
     orb,it,eci,eold,eci-eold=                    3                   18 -0.83642720270661863      -0.83642284349147367       -4.3592151449667327E-006 F
     orb,it,eci,eold,eci-eold=                    3                   19 -0.83642812100780917      -0.83642720270661863       -9.1830119053337711E-007 F
     orb,it,eci,eold,eci-eold=                    3                   20 -0.83643490854329028      -0.83642812100780917       -6.7875354811119948E-006 F
     orb,it,eci,eold,eci-eold=                    3                   21 -0.83643618426859478      -0.83643490854329028       -1.2757253045059258E-006 F
     orb,it,eci,eold,eci-eold=                    3                   22 -0.83643770290837416      -0.83643618426859478       -1.5186397793742756E-006 F
     orb,it,eci,eold,eci-eold=                    3                   23 -0.83644650275993382      -0.83643770290837416       -8.7998515596598992E-006 F
     orb,it,eci,eold,eci-eold=                    3                   24 -0.83644814083244157      -0.83644650275993382       -1.6380725077480562E-006 F
     orb,it,eci,eold,eci-eold=                    3                   25 -0.83644859793536896      -0.83644814083244157       -4.5710292739808978E-007 F
     orb,it,eci,eold,eci-eold=                    3                   26 -0.83645601720499996      -0.83644859793536896       -7.4192696309927086E-006 F
     orb,it,eci,eold,eci-eold=                    3                   27 -0.83646023656664059      -0.83645601720499996       -4.2193616406338563E-006 F
     orb,it,eci,eold,eci-eold=                    3                   28 -0.83646298814577191      -0.83646023656664059       -2.7515791313215132E-006 F
     orb,it,eci,eold,eci-eold=                    3                   29 -0.83646418520601773      -0.83646298814577191       -1.1970602458166724E-006 F
     orb,it,eci,eold,eci-eold=                    3                   30 -0.83646747156163392      -0.83646418520601773       -3.2863556161943919E-006 F
     orb,it,eci,eold,eci-eold=                    3                   31 -0.83646798638167741      -0.83646747156163392       -5.1482004348457622E-007 F
     orb,it,eci,eold,eci-eold=                    3                   32 -0.83646825411399450      -0.83646798638167741       -2.6773231709409373E-007 F
     orb,it,eci,eold,eci-eold=                    3                   33 -0.83647070531378132      -0.83646825411399450       -2.4511997868126301E-006 F
     orb,it,eci,eold,eci-eold=                    3                   34 -0.83647142862084645      -0.83647070531378132       -7.2330706513135112E-007 F
     orb,it,eci,eold,eci-eold=                    3                   35 -0.83647157885643109      -0.83647142862084645       -1.5023558463944653E-007 F
     orb,it,eci,eold,eci-eold=                    3                   36 -0.83647362153700833      -0.83647157885643109       -2.0426805772411072E-006 F
     orb,it,eci,eold,eci-eold=                    3                   37 -0.83647468470301334      -0.83647362153700833       -1.0631660050108849E-006 F
     orb,it,eci,eold,eci-eold=                    3                   38 -0.83647502931686080      -0.83647468470301334       -3.4461384745831936E-007 F
     orb,it,eci,eold,eci-eold=                    3                   39 -0.83647684476612039      -0.83647502931686080       -1.8154492595900962E-006 F
     orb,it,eci,eold,eci-eold=                    3                   40 -0.83647734046197741      -0.83647684476612039       -4.9569585702791130E-007 F
     orb,it,eci,eold,eci-eold=                    3                   41 -0.83647739442742108      -0.83647734046197741       -5.3965443669312663E-008 F
     orb,it,eci,eold,eci-eold=                    3                   42 -0.83647870464435536      -0.83647739442742108       -1.3102169342804615E-006 F
     orb,it,eci,eold,eci-eold=                    3                   43 -0.83647941456807584      -0.83647870464435536       -7.0992372047662400E-007 F
     orb,it,eci,eold,eci-eold=                    3                   44 -0.83647966663990081      -0.83647941456807584       -2.5207182496878033E-007 F
     orb,it,eci,eold,eci-eold=                    3                   45 -0.83648082151557068      -0.83647966663990081       -1.1548756698731566E-006 F
     orb,it,eci,eold,eci-eold=                    3                   46 -0.83648117992261795      -0.83648082151557068       -3.5840704726286532E-007 F
     orb,it,eci,eold,eci-eold=                    3                   47 -0.83648129695828399      -0.83648117992261795       -1.1703566604737148E-007 F
     orb,it,eci,eold,eci-eold=                    3                   48 -0.83648217310854833      -0.83648129695828399       -8.7615026433951471E-007 F
     orb,it,eci,eold,eci-eold=                    3                   49 -0.83648244277637840      -0.83648217310854833       -2.6966783006621142E-007 F
     orb,it,eci,eold,eci-eold=                    3                   50 -0.83648251433493648      -0.83648244277637840       -7.1558558079054535E-008 F
     orb,it,eci,eold,eci-eold=                    3                   51 -0.83648323179159267      -0.83648251433493648       -7.1745665619626919E-007 F
     orb,it,eci,eold,eci-eold=                    3                   52 -0.83648351335460358      -0.83648323179159267       -2.8156301090653812E-007 F
     orb,it,eci,eold,eci-eold=                    3                   53 -0.83648357562112574      -0.83648351335460358       -6.2266522160570048E-008 F
     orb,it,eci,eold,eci-eold=                    3                   54 -0.83648411233424369      -0.83648357562112574       -5.3671311794900589E-007 F
     orb,it,eci,eold,eci-eold=                    3                   55 -0.83648428368580952      -0.83648411233424369       -1.7135156582526179E-007 F
     orb,it,eci,eold,eci-eold=                    3                   56 -0.83648431662717193      -0.83648428368580952       -3.2941362415606079E-008 F
     orb,it,eci,eold,eci-eold=                    3                   57 -0.83648473001842338      -0.83648431662717193       -4.1339125145256617E-007 F
     orb,it,eci,eold,eci-eold=                    3                   58 -0.83648492684555065      -0.83648473001842338       -1.9682712726343254E-007 F
     orb,it,eci,eold,eci-eold=                    3                   59 -0.83648498908396918      -0.83648492684555065       -6.2238418530036199E-008 F
     orb,it,eci,eold,eci-eold=                    3                   60 -0.83648531492238298      -0.83648498908396918       -3.2583841380606771E-007 F
     orb,it,eci,eold,eci-eold=                    3                   61 -0.83648542609051035      -0.83648531492238298       -1.1116812737022030E-007 F
     orb,it,eci,eold,eci-eold=                    3                   62 -0.83648547160054043      -0.83648542609051035       -4.5510030077799968E-008 F
     orb,it,eci,eold,eci-eold=                    3                   63 -0.83648575756430499      -0.83648547160054043       -2.8596376455691797E-007 F
     orb,it,eci,eold,eci-eold=                    3                   64 -0.83648587864677160      -0.83648575756430499       -1.2108246660869071E-007 F
     orb,it,eci,eold,eci-eold=                    3                   65 -0.83648592205515426      -0.83648587864677160       -4.3408382666143552E-008 F
     orb,it,eci,eold,eci-eold=                    3                   66 -0.83648616087358874      -0.83648592205515426       -2.3881843447259854E-007 F
     orb,it,eci,eold,eci-eold=                    3                   67 -0.83648621658934852      -0.83648616087358874       -5.5715759783581120E-008 F
     orb,it,eci,eold,eci-eold=                    3                   68 -0.83648622078944745      -0.83648621658934852       -4.2000989353141449E-009 F
     orb,it,eci,eold,eci-eold=                    3                   69 -0.83648639953783888      -0.83648622078944745       -1.7874839142173471E-007 F
     orb,it,eci,eold,eci-eold=                    3                   70 -0.83648647796104481      -0.83648639953783888       -7.8423205929212259E-008 F
     orb,it,eci,eold,eci-eold=                    3                   71 -0.83648648990081231      -0.83648647796104481       -1.1939767508017951E-008 F
     orb,it,eci,eold,eci-eold=                    3                   72 -0.83648663124405342      -0.83648648990081231       -1.4134324111125807E-007 F
     orb,it,eci,eold,eci-eold=                    3                   73 -0.83648669637087014      -0.83648663124405342       -6.5126816717331337E-008 F
     orb,it,eci,eold,eci-eold=                    3                   74 -0.83648671366555793      -0.83648669637087014       -1.7294687792990260E-008 F
     orb,it,eci,eold,eci-eold=                    3                   75 -0.83648683110989874      -0.83648671366555793       -1.1744434080807054E-007 F
     orb,it,eci,eold,eci-eold=                    3                   76 -0.83648687473911432      -0.83648683110989874       -4.3629215573659508E-008 F
     orb,it,eci,eold,eci-eold=                    3                   77 -0.83648688609898070      -0.83648687473911432       -1.1359866380900030E-008 F
     orb,it,eci,eold,eci-eold=                    3                   78 -0.83648698181330428      -0.83648688609898070       -9.5714323578022231E-008 F
     orb,it,eci,eold,eci-eold=                    3                   79 -0.83648702170758815      -0.83648698181330428       -3.9894283876407144E-008 F
     orb,it,eci,eold,eci-eold=                    3                   80 -0.83648703335712060      -0.83648702170758815       -1.1649532449808930E-008 F
     orb,it,eci,eold,eci-eold=                    3                   81 -0.83648711646132035      -0.83648703335712060       -8.3104199743999629E-008 F
     orb,it,eci,eold,eci-eold=                    3                   82 -0.83648714774219268      -0.83648711646132035       -3.1280872336836296E-008 F
     orb,it,eci,eold,eci-eold=                    3                   83 -0.83648715439948373      -0.83648714774219268       -6.6572910517592732E-009 F
     orb,it,eci,eold,eci-eold=                    3                   84 -0.83648722022876976      -0.83648715439948373       -6.5829286022278666E-008 F
     orb,it,eci,eold,eci-eold=                    3                   85 -0.83648724686907305      -0.83648722022876976       -2.6640303296687762E-008 F
     orb,it,eci,eold,eci-eold=                    3                   86 -0.83648725239805199      -0.83648724686907305       -5.5289789413492940E-009 F
     orb,it,eci,eold,eci-eold=                    3                   87 -0.83648730308234243      -0.83648725239805199       -5.0684290431313173E-008 F
     orb,it,eci,eold,eci-eold=                    3                   88 -0.83648732344548149      -0.83648730308234243       -2.0363139063839242E-008 F
     orb,it,eci,eold,eci-eold=                    3                   89 -0.83648732888217725      -0.83648732344548149       -5.4366957602525190E-009 F
     orb,it,eci,eold,eci-eold=                    3                   90 -0.83648736873386764      -0.83648732888217725       -3.9851690392112005E-008 F
     orb,it,eci,eold,eci-eold=                    3                   91 -0.83648738227288222      -0.83648736873386764       -1.3539014576124941E-008 F
     orb,it,eci,eold,eci-eold=                    3                   92 -0.83648738545603529      -0.83648738227288222       -3.1831530744597103E-009 F
     orb,it,eci,eold,eci-eold=                    3                   93 -0.83648741456383413      -0.83648738545603529       -2.9107798837912924E-008 F
     orb,it,eci,eold,eci-eold=                    3                   94 -0.83648742428144029      -0.83648741456383413       -9.7176061641945921E-009 F
     orb,it,eci,eold,eci-eold=                    3                   95 -0.83648742699175549      -0.83648742428144029       -2.7103151944984916E-009 F
     orb,it,eci,eold,eci-eold=                    3                   96 -0.83648745121759682      -0.83648742699175549       -2.4225841332992104E-008 F
     orb,it,eci,eold,eci-eold=                    3                   97 -0.83648746193498302      -0.83648745121759682       -1.0717386200731482E-008 F
     orb,it,eci,eold,eci-eold=                    3                   98 -0.83648746570946919      -0.83648746193498302       -3.7744861680621966E-009 F
     orb,it,eci,eold,eci-eold=                    3                   99 -0.83648748855944421      -0.83648746570946919       -2.2849975023220281E-008 F
     orb,it,eci,eold,eci-eold=                    3                  100 -0.83648749754039542      -0.83648748855944421       -8.9809512049399132E-009 F
     orb,it,eci,eold,eci-eold=                    3                  101 -0.83648749960375479      -0.83648749754039542       -2.0633593722507726E-009 F
     orb,it,eci,eold,eci-eold=                    3                  102 -0.83648751709062208      -0.83648749960375479       -1.7486867287530572E-008 F
     orb,it,eci,eold,eci-eold=                    3                  103 -0.83648752316167263      -0.83648751709062208       -6.0710505511707424E-009 F
     orb,it,eci,eold,eci-eold=                    3                  104 -0.83648752410384830      -0.83648752316167263       -9.4217567081500420E-010 F
     orbital   3 current e=  0.447323E+00 error=0.829E-01 (eci= -0.836487524E+00 error=0.942E-09) iterations 104(   0 preconditioned, Ep,Sp= 20.0  200.0)
     orb,it,eci,eold,eci-eold=                    3                    1 -0.83648756616690478      -0.83648752410384830       -4.2063056482355421E-008 F
     orb,it,eci,eold,eci-eold=                    3                    2 -0.83648758167546111      -0.83648756616690478       -1.5508556328036605E-008 F
     orb,it,eci,eold,eci-eold=                    3                    3 -0.83648759051400901      -0.83648758167546111       -8.8385478935748552E-009 F
     orb,it,eci,eold,eci-eold=                    3                    4 -0.83648760256115606      -0.83648759051400901       -1.2047147057714369E-008 F
     orb,it,eci,eold,eci-eold=                    3                    5 -0.83648760643772735      -0.83648760256115606       -3.8765712861987822E-009 F
     orb,it,eci,eold,eci-eold=                    3                    6 -0.83648760819730605      -0.83648760643772735       -1.7595787049629052E-009 F
     orb,it,eci,eold,eci-eold=                    3                    7 -0.83648761157063356      -0.83648760819730605       -3.3733275062175494E-009 F
     orb,it,eci,eold,eci-eold=                    3                    8 -0.83648761157063356      -0.83648761157063356        0.0000000000000000      F
     orbital   3 current e=  0.447165E+00 error=0.158E-03 (eci= -0.836487612E+00 error=0.000E+00) iterations   8(   0 preconditioned, Ep,Sp= 20.0  200.0)
     orb,it,eci,eold,eci-eold=                    3                    1 -0.83648761916899961      -0.83648761128769000       -7.8813096049401565E-009 F
     orb,it,eci,eold,eci-eold=                    3                    2 -0.83648762057157444      -0.83648761916899961       -1.4025748340529276E-009 F
     orb,it,eci,eold,eci-eold=                    3                    3 -0.83648762229800244      -0.83648762057157444       -1.7264280005591104E-009 F
     orb,it,eci,eold,eci-eold=                    3                    4 -0.83648762229800244      -0.83648762229800244        0.0000000000000000      F
     orbital   3 current e=  0.447151E+00 error=0.140E-04 (eci= -0.836487622E+00 error=0.000E+00) iterations   4(   0 preconditioned, Ep,Sp= 20.0  200.0)
     orb,it,eci,eold,eci-eold=                    4                    1 -0.83591681837071929      -0.83581015870292186       -1.0665966779743741E-004 F
     orb,it,eci,eold,eci-eold=                    4                    2 -0.83592452262902661      -0.83591681837071929       -7.7042583073172466E-006 F
     orb,it,eci,eold,eci-eold=                    4                    3 -0.83597161770446959      -0.83592452262902661       -4.7095075442982193E-005 F
     orb,it,eci,eold,eci-eold=                    4                    4 -0.83601095178150486      -0.83597161770446959       -3.9334077035269033E-005 F
     orb,it,eci,eold,eci-eold=                    4                    5 -0.83601729660758950      -0.83601095178150486       -6.3448260846366011E-006 F
     orb,it,eci,eold,eci-eold=                    4                    6 -0.83601870830456715      -0.83601729660758950       -1.4116969776489796E-006 F
     orb,it,eci,eold,eci-eold=                    4                    7 -0.83605258229875057      -0.83601870830456715       -3.3873994183419853E-005 F
     orb,it,eci,eold,eci-eold=                    4                    8 -0.83606617966161767      -0.83605258229875057       -1.3597362867101559E-005 F
     orb,it,eci,eold,eci-eold=                    4                    9 -0.83607614219198967      -0.83606617966161767       -9.9625303719985681E-006 F
     orb,it,eci,eold,eci-eold=                    4                   10 -0.83608125067792227      -0.83607614219198967       -5.1084859326033794E-006 F
     orb,it,eci,eold,eci-eold=                    4                   11 -0.83608809123613370      -0.83608125067792227       -6.8405582114294816E-006 F
     orb,it,eci,eold,eci-eold=                    4                   12 -0.83609393409309996      -0.83608809123613370       -5.8428569662538621E-006 F
     orb,it,eci,eold,eci-eold=                    4                   13 -0.83609731333767146      -0.83609393409309996       -3.3792445714997399E-006 F
     orb,it,eci,eold,eci-eold=                    4                   14 -0.83611071375142954      -0.83609731333767146       -1.3400413758080099E-005 F
     orb,it,eci,eold,eci-eold=                    4                   15 -0.83611462336830067      -0.83611071375142954       -3.9096168711338919E-006 F
     orb,it,eci,eold,eci-eold=                    4                   16 -0.83611575246986236      -0.83611462336830067       -1.1291015616921030E-006 F
     orb,it,eci,eold,eci-eold=                    4                   17 -0.83612358500342898      -0.83611575246986236       -7.8325335666207252E-006 F
     orb,it,eci,eold,eci-eold=                    4                   18 -0.83612777555092344      -0.83612358500342898       -4.1905474944536891E-006 F
     orb,it,eci,eold,eci-eold=                    4                   19 -0.83613462152305040      -0.83612777555092344       -6.8459721269675811E-006 F
     orb,it,eci,eold,eci-eold=                    4                   20 -0.83613528722834451      -0.83613462152305040       -6.6570529411169588E-007 F
     orb,it,eci,eold,eci-eold=                    4                   21 -0.83613629601277184      -0.83613528722834451       -1.0087844273254376E-006 F
     orb,it,eci,eold,eci-eold=                    4                   22 -0.83614081283482933      -0.83613629601277184       -4.5168220574876017E-006 F
     orb,it,eci,eold,eci-eold=                    4                   23 -0.83614160043128105      -0.83614081283482933       -7.8759645172343795E-007 F
     orb,it,eci,eold,eci-eold=                    4                   24 -0.83614209163668840      -0.83614160043128105       -4.9120540734914897E-007 F
     orb,it,eci,eold,eci-eold=                    4                   25 -0.83614577764379716      -0.83614209163668840       -3.6860071087607693E-006 F
     orb,it,eci,eold,eci-eold=                    4                   26 -0.83614741005655557      -0.83614577764379716       -1.6324127584121939E-006 F
     orb,it,eci,eold,eci-eold=                    4                   27 -0.83614797012189834      -0.83614741005655557       -5.6006534276953346E-007 F
     orb,it,eci,eold,eci-eold=                    4                   28 -0.83615018551800491      -0.83614797012189834       -2.2153961065640715E-006 F
     orb,it,eci,eold,eci-eold=                    4                   29 -0.83615074179256688      -0.83615018551800491       -5.5627456196916114E-007 F
     orb,it,eci,eold,eci-eold=                    4                   30 -0.83615125592294703      -0.83615074179256688       -5.1413038015812873E-007 F
     orb,it,eci,eold,eci-eold=                    4                   31 -0.83615344221375620      -0.83615125592294703       -2.1862908091696553E-006 F
     orb,it,eci,eold,eci-eold=                    4                   32 -0.83615429634921479      -0.83615344221375620       -8.5413545858337159E-007 F
     orb,it,eci,eold,eci-eold=                    4                   33 -0.83615474066445949      -0.83615429634921479       -4.4431524470756045E-007 F
     orb,it,eci,eold,eci-eold=                    4                   34 -0.83615636633176760      -0.83615474066445949       -1.6256673081027628E-006 F
     orb,it,eci,eold,eci-eold=                    4                   35 -0.83615657546908029      -0.83615636633176760       -2.0913731269001090E-007 F
     orb,it,eci,eold,eci-eold=                    4                   36 -0.83615670810031684      -0.83615657546908029       -1.3263123654905229E-007 F
     orb,it,eci,eold,eci-eold=                    4                   37 -0.83615822104195325      -0.83615670810031684       -1.5129416364167980E-006 F
     orb,it,eci,eold,eci-eold=                    4                   38 -0.83615901710361196      -0.83615822104195325       -7.9606165870327317E-007 F
     orb,it,eci,eold,eci-eold=                    4                   39 -0.83615926255693640      -0.83615901710361196       -2.4545332444336765E-007 F
     orb,it,eci,eold,eci-eold=                    4                   40 -0.83616048307803059      -0.83615926255693640       -1.2205210941917954E-006 F
     orb,it,eci,eold,eci-eold=                    4                   41 -0.83616072084783455      -0.83616048307803059       -2.3776980395684433E-007 F
     orb,it,eci,eold,eci-eold=                    4                   42 -0.83616074708484445      -0.83616072084783455       -2.6237009898011365E-008 F
     orb,it,eci,eold,eci-eold=                    4                   43 -0.83616178724973333      -0.83616074708484445       -1.0401648888880288E-006 F
     orb,it,eci,eold,eci-eold=                    4                   44 -0.83616239900703537      -0.83616178724973333       -6.1175730203810730E-007 F
     orb,it,eci,eold,eci-eold=                    4                   45 -0.83616256761508179      -0.83616239900703537       -1.6860804641360971E-007 F
     orb,it,eci,eold,eci-eold=                    4                   46 -0.83616347902605104      -0.83616256761508179       -9.1141096925095866E-007 F
     orb,it,eci,eold,eci-eold=                    4                   47 -0.83616366188567859      -0.83616347902605104       -1.8285962755104634E-007 F
     orb,it,eci,eold,eci-eold=                    4                   48 -0.83616373855527615      -0.83616366188567859       -7.6669597559586578E-008 F
     orb,it,eci,eold,eci-eold=                    4                   49 -0.83616475582046990      -0.83616373855527615       -1.0172651937478960E-006 F
     orb,it,eci,eold,eci-eold=                    4                   50 -0.83616534614567539      -0.83616475582046990       -5.9032520549617828E-007 F
     orb,it,eci,eold,eci-eold=                    4                   51 -0.83616577439453799      -0.83616534614567539       -4.2824886259396067E-007 F
     orb,it,eci,eold,eci-eold=                    4                   52 -0.83616597266859993      -0.83616577439453799       -1.9827406194661279E-007 F
     orb,it,eci,eold,eci-eold=                    4                   53 -0.83616645616888674      -0.83616597266859993       -4.8350028680754775E-007 F
     orb,it,eci,eold,eci-eold=                    4                   54 -0.83616674418672632      -0.83616645616888674       -2.8801783957810301E-007 F
     orb,it,eci,eold,eci-eold=                    4                   55 -0.83616705951158365      -0.83616674418672632       -3.1532485733620774E-007 F
     orb,it,eci,eold,eci-eold=                    4                   56 -0.83616722820124612      -0.83616705951158365       -1.6868966246086359E-007 F
     orb,it,eci,eold,eci-eold=                    4                   57 -0.83616748315902767      -0.83616722820124612       -2.5495778155359972E-007 F
     orb,it,eci,eold,eci-eold=                    4                   58 -0.83616748707064759      -0.83616748315902767       -3.9116199168631738E-009 F
     orb,it,eci,eold,eci-eold=                    4                   59 -0.83616753526348364      -0.83616748707064759       -4.8192836055171995E-008 F
     orb,it,eci,eold,eci-eold=                    4                   60 -0.83616775017129341      -0.83616753526348364       -2.1490780977018176E-007 F
     orb,it,eci,eold,eci-eold=                    4                   61 -0.83616789220454757      -0.83616775017129341       -1.4203325415795831E-007 F
     orb,it,eci,eold,eci-eold=                    4                   62 -0.83616803997640088      -0.83616789220454757       -1.4777185330938636E-007 F
     orb,it,eci,eold,eci-eold=                    4                   63 -0.83616804255963473      -0.83616803997640088       -2.5832338490516804E-009 F
     orb,it,eci,eold,eci-eold=                    4                   64 -0.83616807717924224      -0.83616804255963473       -3.4619607514052575E-008 F
     orb,it,eci,eold,eci-eold=                    4                   65 -0.83616821151024245      -0.83616807717924224       -1.3433100021220667E-007 F
     orb,it,eci,eold,eci-eold=                    4                   66 -0.83616824965717784      -0.83616821151024245       -3.8146935388283509E-008 F
     orb,it,eci,eold,eci-eold=                    4                   67 -0.83616826133228606      -0.83616824965717784       -1.1675108213538010E-008 F
[...]
   16   13   16   16       -0.0000000603
   16   13   17   16       -0.0000000343
   16   13   18   16        0.0000051246
   16   13   19   16        0.0000008852
   16   13   17   17       -0.0000000341
   16   13   18   17        0.0000000097
   16   13   19   17        0.0000000321
   16   13   18   18       -0.0000001722
   16   13   19   18        0.0000033587
   16   13   19   19       -0.0000041019
   17   13   17   13        0.0106449854
   17   13   18   13       -0.0002915366
   17   13   19   13       -0.0000656980
   17   13   14   14       -0.0000000960
   17   13   15   14        0.0000002888
   17   13   16   14        0.0000104686
   17   13   17   14       -0.0006545083
   17   13   18   14       -0.0001195592
   17   13   19   14       -0.0001304421
   17   13   15   15        0.0000022299
   17   13   16   15       -0.0000209789
   17   13   17   15        0.0034842436
   17   13   18   15       -0.0009654171
   17   13   19   15        0.0007523852
   17   13   16   16       -0.0000001154
   17   13   17   16       -0.0000000100
   17   13   18   16        0.0000000099
   17   13   19   16       -0.0000001433
   17   13   17   17       -0.0000002015
   17   13   18   17        0.0000050896
   17   13   19   17        0.0000012292
   17   13   18   18       -0.0000008796
   17   13   19   18       -0.0000051910
   17   13   19   19        0.0000074793
   18   13   18   13        0.1070684448
   18   13   19   13        0.0221421172
   18   13   14   14        0.0000123548
   18   13   15   14       -0.0000702209
   18   13   16   14       -0.0000140396
   18   13   17   14       -0.0001133448
   18   13   18   14        0.0389123779
   18   13   19   14        0.0501350633
   18   13   15   15       -0.0001085199
   18   13   16   15        0.0053037727
   18   13   17   15       -0.0115915553
   18   13   18   15        0.0678595128
   18   13   19   15       -0.0847064164
   18   13   16   16        0.0000128378
   18   13   17   16        0.0000000331
   18   13   18   16       -0.0000004803
   18   13   19   16        0.0000480936
   18   13   17   17        0.0000128850
   18   13   18   17       -0.0000016870
   18   13   19   17       -0.0000823449
   18   13   18   18        0.0002315565
   18   13   19   18       -0.0001420274
   18   13   19   19       -0.0000316403
   19   13   19   13        0.0245358231
   19   13   14   14        0.0000030360
   19   13   15   14       -0.0000092881
   19   13   16   14       -0.0000106030
   19   13   17   14       -0.0000482958
   19   13   18   14        0.0030748380
   19   13   19   14        0.0114071438
   19   13   15   15        0.0000080743
   19   13   16   15        0.0008808409
   19   13   17   15       -0.0018899332
   19   13   18   15        0.0049618920
   19   13   19   15       -0.0207917354
   19   13   16   16        0.0000028532
   19   13   17   16       -0.0000000081
   19   13   18   16        0.0000040477
   19   13   19   16        0.0000091908
   19   13   17   17        0.0000030068
   19   13   18   17       -0.0000072722
   19   13   19   17       -0.0000155630
   19   13   18   18        0.0000144684
   19   13   19   18       -0.0000342549
   19   13   19   19       -0.0000065999
   14   14   14   14        0.3574990799
   14   14   15   14        0.0082349137
   14   14   16   14       -0.0000000259
   14   14   17   14       -0.0000000900
   14   14   18   14        0.0000100168
   14   14   19   14        0.0000043551
   14   14   15   15        0.3144845082
   14   14   16   15        0.0000000858
   14   14   17   15        0.0000001713
   14   14   18   15       -0.0000506352
   14   14   19   15       -0.0000211286
   14   14   16   16        0.3469174791
   14   14   17   16       -0.0000842614
   14   14   18   16       -0.0000017089
   14   14   19   16        0.0000107980
   14   14   17   17        0.3472799047
   14   14   18   17       -0.0000132613
   14   14   19   17        0.0000285191
   14   14   18   18        0.3565617076
   14   14   19   18        0.0100406524
   14   14   19   19        0.3280705437
   15   14   15   14        0.0149483905
   15   14   16   14        0.0000000063
   15   14   17   14        0.0000000450
   15   14   18   14       -0.0000290782
   15   14   19   14       -0.0000404334
   15   14   15   15       -0.0022094337
   15   14   16   15       -0.0000048482
   15   14   17   15        0.0000103195
   15   14   18   15       -0.0000738050
   15   14   19   15        0.0000805630
   15   14   16   16        0.0135192039
   15   14   17   16       -0.0000007241
   15   14   18   16       -0.0001137096
   15   14   19   16        0.0003432523
   15   14   17   17        0.0135639390
   15   14   18   17        0.0002828520
   15   14   19   17       -0.0007134202
   15   14   18   18        0.0092208215
   15   14   19   18       -0.0035767664
   15   14   19   19       -0.0126949459
   16   14   16   14        0.0140228917
   16   14   17   14       -0.0000035169
   16   14   18   14       -0.0000055806
   16   14   19   14       -0.0000065223
   16   14   15   15       -0.0000006090
   16   14   16   15       -0.0000854404
   16   14   17   15       -0.0000214468
   16   14   18   15        0.0003737159
   16   14   19   15        0.0002788450
   16   14   16   16       -0.0000000406
   16   14   17   16        0.0000000104
   16   14   18   16       -0.0000010271
   16   14   19   16       -0.0000001797
   16   14   17   17       -0.0000000411
   16   14   18   17       -0.0000000105
   16   14   19   17        0.0000000048
   16   14   18   18       -0.0000000992
   16   14   19   18        0.0000036648
   16   14   19   19        0.0000048277
   17   14   17   14        0.0140608172
   17   14   18   14       -0.0000453038
   17   14   19   14       -0.0000567907
   17   14   15   15        0.0000030325
   17   14   16   15       -0.0000277545
   17   14   17   15       -0.0000695276
   17   14   18   15       -0.0009309200
   17   14   19   15       -0.0004836505
   17   14   16   16       -0.0000001401
   17   14   17   16        0.0000000031
   17   14   18   16        0.0000000018
   17   14   19   16       -0.0000000628
   17   14   17   17       -0.0000001392
   17   14   18   17       -0.0000009688
   17   14   19   17        0.0000000905
   17   14   18   18       -0.0000004899
   17   14   19   18       -0.0000063348
   17   14   19   19       -0.0000080302
   18   14   18   14        0.0308508832
   18   14   19   14        0.0211442063
   18   14   15   15       -0.0000708076
   18   14   16   15        0.0025123074
   18   14   17   15       -0.0055068044
   18   14   18   15        0.0328839119
   18   14   19   15       -0.0338331021
   18   14   16   16        0.0000162212
   18   14   17   16       -0.0000000243
   18   14   18   16       -0.0000002185
   18   14   19   16        0.0000229716
   18   14   17   17        0.0000164896
   18   14   18   17       -0.0000007640
   18   14   19   17       -0.0000395504
   18   14   18   18        0.0001127677
   18   14   19   18       -0.0000556102
   18   14   19   19       -0.0000370037
   19   14   19   14        0.0376046186
   19   14   15   15       -0.0000424582
   19   14   16   15        0.0027134984
   19   14   17   15       -0.0058861745
   19   14   18   15        0.0309584251
   19   14   19   15       -0.0533206337
   19   14   16   16        0.0000029294
   19   14   17   16       -0.0000000207
   19   14   18   16       -0.0000011391
   19   14   19   16        0.0000276475
   19   14   17   17        0.0000031369
   19   14   18   17        0.0000010345
   19   14   19   17       -0.0000470483
   19   14   18   18        0.0000959455
   19   14   19   18       -0.0000826946
   19   14   19   19       -0.0000206566
   15   15   15   15        0.3193644431
   15   15   16   15       -0.0000100172
   15   15   17   15        0.0000196250
   15   15   18   15       -0.0001305806
   15   15   19   15        0.0000838531
   15   15   16   16        0.3180017595
   15   15   17   16       -0.0001736315
   15   15   18   16        0.0008043378
   15   15   19   16       -0.0002741819
   15   15   17   17        0.3184465872
   15   15   18   17       -0.0017684188
   15   15   19   17        0.0005777381
   15   15   18   18        0.3344776802
   15   15   19   18        0.0007065856
   15   15   19   19        0.3301528220
   16   15   16   15        0.0064377629
   16   15   17   15       -0.0008122347
   16   15   18   15        0.0044375373
   16   15   19   15       -0.0054573604
   16   15   16   16       -0.0000001453
   16   15   17   16        0.0000000894
   16   15   18   16       -0.0000083630
   16   15   19   16        0.0000094530
   16   15   17   17       -0.0000001049
   16   15   18   17       -0.0000082276
   16   15   19   17       -0.0000201929
   16   15   18   18        0.0000129442
   16   15   19   18       -0.0000060192
   16   15   19   19       -0.0000076814
   17   15   17   15        0.0078672633
   17   15   18   15       -0.0097048888
   17   15   19   15        0.0118906275
   17   15   16   16        0.0000007495
   17   15   17   16        0.0000000318
   17   15   18   16       -0.0000080597
   17   15   19   16       -0.0000216212
   17   15   17   17        0.0000009691
   17   15   18   17       -0.0000164490
   17   15   19   17        0.0000046047
   17   15   18   18       -0.0000284718
   17   15   19   18        0.0000141373
   17   15   19   19        0.0000138450
   18   15   18   15        0.0612150109
   18   15   19   15       -0.0617436310
   18   15   16   16       -0.0000515477
   18   15   17   16        0.0000036391
   18   15   18   16        0.0000004591
   18   15   19   16        0.0000385221
   18   15   17   17       -0.0000479030
   18   15   18   17       -0.0000032314
   18   15   19   17       -0.0000662051
   18   15   18   18        0.0001177909
   18   15   19   18       -0.0000979400
   18   15   19   19       -0.0000323990
   19   15   19   15        0.1023806525
   19   15   16   16        0.0000055422
   19   15   17   16       -0.0000201415
   19   15   18   16        0.0000035734
   19   15   19   16       -0.0000478804
   19   15   17   17       -0.0000110294
   19   15   18   17       -0.0000037010
   19   15   19   17        0.0000814156
   19   15   18   18       -0.0001983291
   19   15   19   18        0.0001343947
   19   15   19   19        0.0000143855
   16   16   16   16        0.3809781278
   16   16   17   16       -0.0000408689
   16   16   18   16       -0.0000001167
   16   16   19   16        0.0000093937
   16   16   17   17        0.3518017839
   16   16   18   17       -0.0000072529
   16   16   19   17        0.0000274582
   16   16   18   18        0.3585794213
   16   16   19   18        0.0032860184
   16   16   19   19        0.3246682721
   17   16   17   16        0.0150132424
   17   16   18   16        0.0000027981
   17   16   19   16       -0.0000018254
   17   16   17   17       -0.0000926912
   17   16   18   17        0.0000002402
   17   16   19   17        0.0000000019
   17   16   18   18       -0.0000358191
   17   16   19   18       -0.0000399743
   17   16   19   19       -0.0000272895
   18   16   18   16        0.0142382790
   18   16   19   16        0.0003617676
   18   16   17   17       -0.0000010644
   18   16   18   17       -0.0000064170
   18   16   19   17       -0.0000061300
   18   16   18   18        0.0000001326
   18   16   19   18        0.0000012020
   18   16   19   19        0.0000079525
   19   16   19   16        0.0074957541
   19   16   17   17        0.0000086216
   19   16   18   17       -0.0000090956
   19   16   19   17        0.0000030878
   19   16   18   18        0.0000046865
   19   16   19   18        0.0000002764
   19   16   19   19       -0.0000008848
   17   17   17   17        0.3815064575
   17   17   18   17       -0.0000006915
   17   17   19   17        0.0000310156
   17   17   18   18        0.3586911055
   17   17   19   18        0.0035098273
   17   17   19   19        0.3246921911
   18   17   18   17        0.0142886635
   18   17   19   17        0.0004034605
   18   17   18   18        0.0000013476
   18   17   19   18        0.0000042429
   18   17   19   19        0.0000105657
   19   17   19   17        0.0074304119
   19   17   18   18        0.0000114818
   19   17   19   18       -0.0000041402
   19   17   19   19       -0.0000164186
   18   18   18   18        0.3916329096
   18   18   19   18        0.0045031289
   18   18   19   19        0.3438503750
   19   18   19   18        0.0123090495
   19   18   19   19        0.0097849247
   19   19   19   19        0.3577702576
 end_two_electron_integrals


 output epsi filename:./pspw_hf_H2.emovecs

 Total PSPW energy     :  -0.8340345065E+00


=== Spin Contamination ===

 <Sexact^2> =    0.0000000000000000     
 <S^2>      =    0.0000000000000000     



== Center of Charge ==

spin up     (    0.0000,    0.0000,    0.0000 )
spin down   (    0.0000,    0.0000,    0.0000 )
     total  (    0.0000,    0.0000,    0.0000 )
ionic       (    0.0000,    0.0000,    0.0000 )


== Molecular Dipole wrt Center of Mass ==

mu   =  (   -0.0000,   -0.0000,   -0.0000 ) au
|mu| =     0.0000 au,       0.0000 Debye

 output psi filename:./pspw_hf_H2.movecs

 Writing Crystallographic Information File:./H2.cif
   - cell not shifted (nwpw:cif_shift_cell .false.)


== Timing ==

cputime in seconds
  prologue    :   0.684201E+01
  main loop   :   0.157135E+04
  epilogue    :   0.315938E-01
  total       :   0.157822E+04
  cputime/step:   0.109885E+02       (     143 evalulations,      60 linesearches)


Time spent doing                        total          step       percent
  total time                 :   0.157823E+04  0.110366E+02       100.0 %
  i/o time                   :   0.830825E+00  0.580996E-02         0.1 %
  FFTs                       :   0.120424E+04  0.842128E+01        76.3 %
  dot products               :   0.161783E+02  0.113135E+00         1.0 %
  geodesic                   :   0.678521E-01  0.474490E-03         0.0 %
  ffm_dgemm                  :   0.108159E-01  0.756353E-04         0.0 %
  fmf_dgemm                  :   0.178807E-01  0.125040E-03         0.0 %
  mmm_dgemm                  :   0.274303E-02  0.191820E-04         0.0 %
  m_diagonalize              :   0.122050E-02  0.853499E-05         0.0 %
  local pseudopotentials     :   0.197540E+02  0.138140E+00         1.3 %
  non-local pseudopotentials :   0.143816E+02  0.100570E+00         0.9 %
  structure factors          :   0.297102E+01  0.207764E-01         0.2 %
  phase factors              :   0.145820E-04  0.101972E-06         0.0 %
  masking and packing        :   0.281490E+02  0.196846E+00         1.8 %
  queue fft                  :   0.190264E+02  0.133052E+00         1.2 %
  queue fft (serial)         :   0.658083E+01  0.460198E-01         0.4 %
  queue fft (message passing):   0.123362E+02  0.862674E-01         0.8 %
  HFX potential              :   0.146290E+02  0.102301E+00         0.9 %
  non-local psp FFM          :   0.134984E+02  0.943946E-01         0.9 %
  non-local psp FMF          :   0.238076E+00  0.166487E-02         0.0 %
  non-local psp FFM A        :   0.210305E+00  0.147066E-02         0.0 %
  non-local psp FFM B        :   0.368357E+00  0.257592E-02         0.0 %

== HFX Counters ==
  HFX Evalulations         =   143
  Lin ACE HFX Evalulations =     0


     >>>  JOB COMPLETED     AT Tue Apr 22 14:16:07 2025  <<<

 Task  times  cpu:     1467.3s     wall:     1578.3s


                                NWChem Input Module
                                -------------------


 Summary of allocated global arrays
-----------------------------------
  No active global arrays


MA_summarize_allocated_blocks: starting scan ...
MA_summarize_allocated_blocks: scan completed: 0 heap blocks, 0 stack blocks
MA usage statistics:

	allocation statistics:
					      heap	     stack
					      ----	     -----
	current number of blocks	         0	         0
	maximum number of blocks	       313	        36
	current total bytes		         0	         0
	maximum total bytes		  41703360	  13584792
	maximum total K-bytes		     41704	     13585
	maximum total M-bytes		        42	        14


                                     CITATION
                                     --------
                Please cite the following reference when publishing
                           results obtained with NWChem:

          E. Apra, E. J. Bylaska, W. A. de Jong, N. Govind, K. Kowalski,
       T. P. Straatsma, M. Valiev, H. J. J. van Dam, Y. Alexeev, J. Anchell,
       V. Anisimov, F. W. Aquino, R. Atta-Fynn, J. Autschbach, N. P. Bauman,
     J. C. Becca, D. E. Bernholdt, K. Bhaskaran-Nair, S. Bogatko, P. Borowski,
         J. Boschen, J. Brabec, A. Bruner, E. Cauet, Y. Chen, G. N. Chuev,
      C. J. Cramer, J. Daily, M. J. O. Deegan, T. H. Dunning Jr., M. Dupuis,
   K. G. Dyall, G. I. Fann, S. A. Fischer, A. Fonari, H. Fruchtl, L. Gagliardi,
      J. Garza, N. Gawande, S. Ghosh, K. Glaesemann, A. W. Gotz, J. Hammond,
       V. Helms, E. D. Hermes, K. Hirao, S. Hirata, M. Jacquelin, L. Jensen,
   B. G. Johnson, H. Jonsson, R. A. Kendall, M. Klemm, R. Kobayashi, V. Konkov,
      S. Krishnamoorthy, M. Krishnan, Z. Lin, R. D. Lins, R. J. Littlefield,
      A. J. Logsdail, K. Lopata, W. Ma, A. V. Marenich, J. Martin del Campo,
   D. Mejia-Rodriguez, J. E. Moore, J. M. Mullin, T. Nakajima, D. R. Nascimento,
    J. A. Nichols, P. J. Nichols, J. Nieplocha, A. Otero-de-la-Roza, B. Palmer,
    A. Panyala, T. Pirojsirikul, B. Peng, R. Peverati, J. Pittner, L. Pollack,
   R. M. Richard, P. Sadayappan, G. C. Schatz, W. A. Shelton, D. W. Silverstein,
   D. M. A. Smith, T. A. Soares, D. Song, M. Swart, H. L. Taylor, G. S. Thomas,
            V. Tipparaju, D. G. Truhlar, K. Tsemekhman, T. Van Voorhis,
      A. Vazquez-Mayagoitia, P. Verma, O. Villa, A. Vishnu, K. D. Vogiatzis,
        D. Wang, J. H. Weare, M. J. Williamson, T. L. Windus, K. Wolinski,
        A. T. Wong, Q. Wu, C. Yang, Q. Yu, M. Zacharias, Z. Zhang, Y. Zhao,
                                and R. J. Harrison
                        "NWChem: Past, present, and future
                         J. Chem. Phys. 152, 184102 (2020)
                               doi:10.1063/5.0004997

                                      AUTHORS
                                      -------
  E. Apra, E. J. Bylaska, N. Govind, K. Kowalski, M. Valiev, D. Mejia-Rodriguez,
       A. Kunitsa, N. P. Bauman, A. Panyala, W. A. de Jong, T. P. Straatsma,
   H. J. J. van Dam, D. Wang, T. L. Windus, J. Hammond, J. Autschbach, A. Woods,
    K. Bhaskaran-Nair, J. Brabec, K. Lopata, S. A. Fischer, S. Krishnamoorthy,
     M. Jacquelin, W. Ma, M. Klemm, O. Villa, Y. Chen, V. Anisimov, F. Aquino,
     S. Hirata, M. T. Hackler, E. Hermes, L. Jensen, J. E. Moore, J. C. Becca,
      V. Konjkov, T. Risthaus, M. Malagoli, A. Marenich, A. Otero-de-la-Roza,
        J. Mullin, P. Nichols, R. Peverati, J. Pittner, Y. Zhao, P.-D. Fan,
        A. Fonari, M. J. Williamson, R. J. Harrison, J. R. Rehr, M. Dupuis,
     D. Silverstein, D. M. A. Smith, J. Nieplocha, V. Tipparaju, M. Krishnan,
     B. E. Van Kuiken, A. Vazquez-Mayagoitia, M. Swart, Q. Wu, T. Van Voorhis,
     A. A. Auer, M. Nooijen, L. D. Crosby, E. Brown, G. Cisneros, G. I. Fann,
   H. Fruchtl, J. Garza, K. Hirao, R. A. Kendall, J. A. Nichols, K. Tsemekhman,
    K. Wolinski, J. Anchell, D. E. Bernholdt, P. Borowski, T. Clark, D. Clerc,
   H. Dachsel, M. J. O. Deegan, K. Dyall, D. Elwood, E. Glendening, M. Gutowski,
   A. C. Hess, J. Jaffe, B. G. Johnson, J. Ju, R. Kobayashi, R. Kutteh, Z. Lin,
   R. Littlefield, X. Long, B. Meng, T. Nakajima, S. Niu, L. Pollack, M. Rosing,
   K. Glaesemann, G. Sandrone, M. Stave, H. Taylor, G. Thomas, J. H. van Lenthe,
                               A. T. Wong, Z. Zhang.

 Total times  cpu:     1467.3s     wall:     1578.3s
