 argument  1 = H2-4.5.nw



============================== echo of input deck ==============================
title "swnc: e theory=pspw4 xc=hf formula=H2 charge=0 mult=1"
#machinejob:expert

echo

start pspw_hf_H2

memory heap 1200 mb stack 1200 mb global 10 mb

charge 0

geometry
H    0.00000    0.00000   -2.25000
H    0.00000    0.00000    2.25000
end

nwpw
  ### pseudopotential block begin ###
  ### pseudopotential block end   ###
  simulation_cell
     SC 15.0000
     boundary_conditions aperiodic
  end

  cutoff 50.0
  mult 1
  xc hf
  lmbfgs
  tolerances 1.0e-9 1.0e-9

  virtual 18
end
set nwpw:cif_filename H2

#set nwpw:CI_maxit_orb 15
#set nwpw:CI_maxit_linesearch 15
set pspw:HFX_screening_radius 14.0


set nwpw:2qintegrals .true.
set nwpw:3x3_virtual .true.

task pspw energy
================================================================================


                                         
                                         


             Northwest Computational Chemistry Package (NWChem) 7.2.3
             --------------------------------------------------------


                    Environmental Molecular Sciences Laboratory
                       Pacific Northwest National Laboratory
                                Richland, WA 99352

                              Copyright (c) 1994-2022
                       Pacific Northwest National Laboratory
                            Battelle Memorial Institute

             NWChem is an open-source computational chemistry package
                        distributed under the terms of the
                      Educational Community License (ECL) 2.0
             A copy of the license is included with this distribution
                              in the LICENSE.TXT file

                                  ACKNOWLEDGMENT
                                  --------------

            This software and its documentation were developed at the
            EMSL at Pacific Northwest National Laboratory, a multiprogram
            national laboratory, operated for the U.S. Department of Energy
            by Battelle under Contract Number DE-AC05-76RL01830. Support
            for this work was provided by the Department of Energy Office
            of Biological and Environmental Research, Office of Basic
            Energy Sciences, and the Office of Advanced Scientific Computing.


           Job information
           ---------------

    hostname        = mqs-al
    program         = nwchem
    date            = Sun Apr  6 15:46:02 2025

    compiled        = Thu_Oct_31_08:55:15_2024
    source          = /home/conda/feedstock_root/build_artifacts/nwchem_1730356057992/work
    nwchem branch   = 7.2.3
    nwchem revision = c400b04
    ga revision     = 5.8.0
    use scalapack   = T
    input           = H2-4.5.nw
    prefix          = pspw_hf_H2.
    data base       = ./pspw_hf_H2.db
    status          = startup
    nproc           =       24
    time left       =     -1s



           Memory information
           ------------------

    heap     =  157286400 doubles =   1200.0 Mbytes
    stack    =  157286397 doubles =   1200.0 Mbytes
    global   =    1310720 doubles =     10.0 Mbytes (distinct from heap & stack)
    total    =  315883517 doubles =   2410.0 Mbytes
    verify   = yes
    hardfail = no 


           Directory information
           ---------------------

  0 permanent = .
  0 scratch   = .




                                NWChem Input Module
                                -------------------


               swnc: e theory=pspw4 xc=hf formula=H2 charge=0 mult=1
               -----------------------------------------------------

 Scaling coordinates for geometry "geometry" by  1.889725989
 (inverse scale =  0.529177249)

  zeroes
  zeroes
  zeroes
  zeroes
  zeroes
  zeroes
  zeroes
  zeroes
  zeroes
  zeroes
  zeroes
  zeroes
  zeroes
  zeroes
  zeroes
  zeroes
  zeroes
  zeroes
  zeroes
  zeroes
  zeroes
  zeroes
  zeroes
  zeroes
  zeroes
  zeroes
  zeroes
  zeroes
  zeroes
  zeroes
  zeroes
  zeroes
  zeroes
  zeroes
  zeroes
  zeroes
  zeroes
  zeroes
  zeroes
  zeroes
  zeroes
  zeroes
  zeroes
  zeroes
  zeroes
  zeroes
  zeroes
  zeroes
 ORDER OF PRIMARY AXIS IS BEING SET TO 4
 D4H symmetry detected

          ------
          auto-z
          ------
     1 autoz failed with cvr_scaling = 1.2 changing to 1.3
     2 autoz failed with cvr_scaling = 1.3 changing to 1.4
     3 autoz failed with cvr_scaling = 1.4 changing to 1.5
     4 autoz failed with cvr_scaling = 1.5 changing to 1.6
     5 autoz failed with cvr_scaling = 1.6 changing to 1.7

 AUTOZ failed to generate good internal coordinates.
 Cartesian coordinates will be used in optimizations.



                             Geometry "geometry" -> ""
                             -------------------------

 Output coordinates in angstroms (scale by  1.889725989 to convert to a.u.)

  No.       Tag          Charge          X              Y              Z
 ---- ---------------- ---------- -------------- -------------- --------------
    1 H                    1.0000     0.00000000     0.00000000    -2.25000000
    2 H                    1.0000     0.00000000     0.00000000     2.25000000

      Atomic Mass 
      ----------- 

      H                  1.007825


 Effective nuclear repulsion energy (a.u.)       0.1175949442

            Nuclear Dipole moment (a.u.) 
            ----------------------------
        X                 Y               Z
 ---------------- ---------------- ----------------
     0.0000000000     0.0000000000     0.0000000000

      Symmetry information
      --------------------

 Group name             D4h       
 Group number             28
 Group order              16
 No. of unique centers     1

      Symmetry unique atoms

     1


            XYZ format geometry
            -------------------
     2
 geometry
 H                     0.00000000     0.00000000    -2.25000000
 H                     0.00000000     0.00000000     2.25000000

          ****************************************************
          *                                                  *
          *               NWPW PSPW Calculation              *
          *                                                  *
          * [ (Grassmann/Stiefel manifold implementation)  ] *
          *                                                  *
          *      [ NorthWest Chemistry implementation ]      *
          *                                                  *
          *            version #5.10   06/12/02              *
          *                                                  *
          *    This code was developed by Eric J. Bylaska,   *
          *    and was based upon algorithms and code        *
          *    developed by the group of Prof. John H. Weare *
          *                                                  *
          ****************************************************
     >>>  JOB STARTED       AT Sun Apr  6 15:46:02 2025  <<<
          ================ input data ========================

 input psi filename:./pspw_hf_H2.movecs

 number of processors used:        24
 processor grid           :  24 x   1
 parallel mapping         :2d-hilbert
 parallel mapping         :  balanced
 number of threads        :         1
 parallel io              :       off

 options:
      boundary conditions  = aperiodic   (version4)
      electron spin        = restricted
      exchange-correlation = Hartree-Fock
      - HFX relaxed
      - HFX restricted orbitals :    1
      - HFX free-space coulomb solver


 elements involved in the cluster:
      1: H   valence charge:  1.0000  lmax=  1
             comment    : Parameterized (Chem.Phys.Lett., vol 322, page 447) Hamman psp
             pseudpotential type            :   0
             highest angular component      :   1
             local potential used           :   1
             number of non-local projections:   1
             aperiodic cutoff radius        :  1.000
             cutoff =   0.800   0.800


 total charge:   0.000

 atomic composition:
     H   :    2

 number of electrons: spin up=     1 (   1 per task)  down=     1 (   1 per task) (Fourier space)
 number of orbitals : spin up=     1 (   1 per task)  down=     1 (   1 per task) (Fourier space)

 supercell:
      cell_name:  cell_default                                      
      lattice:    a1=<  15.000   0.000   0.000 >
                  a2=<   0.000  15.000   0.000 >
                  a3=<   0.000   0.000  15.000 >
      reciprocal: b1=<   0.419   0.000   0.000 >
                  b2=<   0.000   0.419   0.000 >
                  b3=<   0.000   0.000   0.419 >
      lattice:    a=      15.000 b=     15.000 c=      15.000
                  alpha=  90.000 beta=  90.000 gamma=  90.000
                  omega=      3375.0

      density cutoff=100.000  fft= 70x 70x 70(    80618 waves     3359 per task)
      wavefnc cutoff= 50.000  fft= 70x 70x 70(    28526 waves     1188 per task)

 technical parameters:
      time step=      5.80     fictitious mass=  400000.0
      tolerance=0.100E-08 (energy)   0.100E-08 (density)
      maximum iterations =      1000 (   10 inner    100 outer )





== Energy Calculation ==


          ============ Grassmann lmbfgs iteration ============
     >>>  ITERATION STARTED AT Sun Apr  6 15:46:08 2025  <<<
    iter.           Energy         DeltaE       DeltaRho 
    ------------------------------------------------------
      10   -0.7895722324E+00   -0.15088E-02    0.69697E-02
     -  10 steepest descent iterations performed
      20   -0.7947382752E+00   -0.13611E-03    0.63957E-04
      30   -0.7949920416E+00   -0.57509E-05    0.58591E-05
      40   -0.7950102372E+00   -0.34027E-06    0.14747E-06
      50   -0.7950112976E+00   -0.18818E-07    0.23247E-08
      60   -0.7950113692E+00   -0.21310E-08    0.26907E-09
      70   -0.7950113755E+00   -0.86211E-09    0.13774E-10
  *** tolerance ok. iteration terminated
     >>>  ITERATION ENDED   AT Sun Apr  6 15:46:15 2025  <<<


==  Summary Of Results  ==

 number of electrons: spin up=    1.00000  down=    1.00000 (real space)

 total     energy    :  -0.7950113755E+00 (   -0.39751E+00/ion)
 total orbital energy:  -0.6083167896E+00 (   -0.60832E+00/electron)
 hartree   energy    :   0.6085790602E+00 (    0.60858E+00/electron)
 exc-corr  energy    :   0.0000000000E+00 (    0.00000E+00/electron)
 HF exchange energy  :  -0.3042895301E+00 (   -0.30429E+00/electron)
 ion-ion   energy    :   0.1175949442E+00 (    0.58797E-01/ion)

 kinetic (planewave) :   0.6155996477E+00 (    0.61560E+00/electron)
 V_local (planewave) :  -0.1685725012E+01 (   -0.16857E+01/electron)
 V_nl    (planewave) :  -0.1467704859E+00 (   -0.14677E+00/electron)
 V_Coul  (planewave) :   0.1217158120E+01 (    0.12172E+01/electron)
 V_xc.   (planewave) :   0.0000000000E+00 (    0.00000E+00/electron)
 K.S. HFX energy     :  -0.6085790602E+00 (   -0.60858E+00/electron)
 Virial Coefficient  :  -0.9995739592E+00

 orbital energies:
    -0.3041584E+00 (  -8.277eV)


== Virtual Orbital Calculation ==


 input epsi filename:./pspw_hf_H2.emovecs

 COVOs Mimimization
 ------------------
CI gradient algorithm =         3
maxit_sweeps          =         3
maxit_orb             =       120
maxit_linesearch      =        15
maxerror              = 0.100E-08

     orb,it,eci,eold,eci-eold=                    1                    1 -0.91603382496860164      -0.91507730009550814       -9.5652487309350054E-004 F
     orb,it,eci,eold,eci-eold=                    1                    2 -0.91628273659546100      -0.91603382496860164       -2.4891162685936052E-004 F
     orb,it,eci,eold,eci-eold=                    1                    3 -0.93269021420684584      -0.91628273659546100       -1.6407477611384835E-002 F
     orb,it,eci,eold,eci-eold=                    1                    4 -0.93429464990889510      -0.93269021420684584       -1.6044357020492672E-003 F
     orb,it,eci,eold,eci-eold=                    1                    5 -0.93568759307280946      -0.93429464990889510       -1.3929431639143619E-003 F
     orb,it,eci,eold,eci-eold=                    1                    6 -0.94031507765934175      -0.93568759307280946       -4.6274845865322822E-003 F
     orb,it,eci,eold,eci-eold=                    1                    7 -0.94538138445279485      -0.94031507765934175       -5.0663067934531014E-003 F
     orb,it,eci,eold,eci-eold=                    1                    8 -0.94703274678822713      -0.94538138445279485       -1.6513623354322826E-003 F
     orb,it,eci,eold,eci-eold=                    1                    9 -0.94736182958955895      -0.94703274678822713       -3.2908280133181478E-004 F
     orb,it,eci,eold,eci-eold=                    1                   10 -0.95319791166426582      -0.94736182958955895       -5.8360820747068720E-003 F
     orb,it,eci,eold,eci-eold=                    1                   11 -0.95516304724701540      -0.95319791166426582       -1.9651355827495776E-003 F
     orb,it,eci,eold,eci-eold=                    1                   12 -0.95560664585694977      -0.95516304724701540       -4.4359860993437028E-004 F
     orb,it,eci,eold,eci-eold=                    1                   13 -0.95866240273514935      -0.95560664585694977       -3.0557568781995892E-003 F
     orb,it,eci,eold,eci-eold=                    1                   14 -0.96023143518410725      -0.95866240273514935       -1.5690324489578966E-003 F
     orb,it,eci,eold,eci-eold=                    1                   15 -0.96317665493210680      -0.96023143518410725       -2.9452197479995501E-003 F
     orb,it,eci,eold,eci-eold=                    1                   16 -0.96318483800077948      -0.96317665493210680       -8.1830686726735991E-006 F
     orb,it,eci,eold,eci-eold=                    1                   17 -0.96322160340146057      -0.96318483800077948       -3.6765400681093574E-005 F
     orb,it,eci,eold,eci-eold=                    1                   18 -0.96492219845014837      -0.96322160340146057       -1.7005950486878030E-003 F
     orb,it,eci,eold,eci-eold=                    1                   19 -0.96552587380602561      -0.96492219845014837       -6.0367535587724230E-004 F
     orb,it,eci,eold,eci-eold=                    1                   20 -0.96582184245530756      -0.96552587380602561       -2.9596864928194133E-004 F
     orb,it,eci,eold,eci-eold=                    1                   21 -0.96745379311132274      -0.96582184245530756       -1.6319506560151797E-003 F
     orb,it,eci,eold,eci-eold=                    1                   22 -0.96781649048044494      -0.96745379311132274       -3.6269736912220019E-004 F
     orb,it,eci,eold,eci-eold=                    1                   23 -0.96782962583089271      -0.96781649048044494       -1.3135350447779359E-005 F
     orb,it,eci,eold,eci-eold=                    1                   24 -0.96884292167575181      -0.96782962583089271       -1.0132958448590967E-003 F
     orb,it,eci,eold,eci-eold=                    1                   25 -0.96940616530310009      -0.96884292167575181       -5.6324362734827549E-004 F
     orb,it,eci,eold,eci-eold=                    1                   26 -0.96970255989902954      -0.96940616530310009       -2.9639459592945006E-004 F
     orb,it,eci,eold,eci-eold=                    1                   27 -0.97087930348604845      -0.96970255989902954       -1.1767435870189136E-003 F
     orb,it,eci,eold,eci-eold=                    1                   28 -0.97099391923967748      -0.97087930348604845       -1.1461575362903265E-004 F
     orb,it,eci,eold,eci-eold=                    1                   29 -0.97104127279070584      -0.97099391923967748       -4.7353551028361807E-005 F
     orb,it,eci,eold,eci-eold=                    1                   30 -0.97209927720540490      -0.97104127279070584       -1.0580044146990542E-003 F
     orb,it,eci,eold,eci-eold=                    1                   31 -0.97220860884967686      -0.97209927720540490       -1.0933164427195941E-004 F
     orb,it,eci,eold,eci-eold=                    1                   32 -0.97222926910274432      -0.97220860884967686       -2.0660253067461554E-005 F
     orb,it,eci,eold,eci-eold=                    1                   33 -0.97309913822410432      -0.97222926910274432       -8.6986912136000072E-004 F
     orb,it,eci,eold,eci-eold=                    1                   34 -0.97318804286898897      -0.97309913822410432       -8.8904644884646444E-005 F
     orb,it,eci,eold,eci-eold=                    1                   35 -0.97319640580524780      -0.97318804286898897       -8.3629362588322209E-006 F
     orb,it,eci,eold,eci-eold=                    1                   36 -0.97383597667720845      -0.97319640580524780       -6.3957087196064855E-004 F
     orb,it,eci,eold,eci-eold=                    1                   37 -0.97420450127651970      -0.97383597667720845       -3.6852459931124848E-004 F
     orb,it,eci,eold,eci-eold=                    1                   38 -0.97447939643146297      -0.97420450127651970       -2.7489515494327765E-004 F
     orb,it,eci,eold,eci-eold=                    1                   39 -0.97460380954923542      -0.97447939643146297       -1.2441311777244835E-004 F
     orb,it,eci,eold,eci-eold=                    1                   40 -0.97486597789009033      -0.97460380954923542       -2.6216834085490692E-004 F
     orb,it,eci,eold,eci-eold=                    1                   41 -0.97502757218481029      -0.97486597789009033       -1.6159429471995779E-004 F
     orb,it,eci,eold,eci-eold=                    1                   42 -0.97522187082116152      -0.97502757218481029       -1.9429863635123112E-004 F
     orb,it,eci,eold,eci-eold=                    1                   43 -0.97532244623770814      -0.97522187082116152       -1.0057541654662217E-004 F
     orb,it,eci,eold,eci-eold=                    1                   44 -0.97546743522640389      -0.97532244623770814       -1.4498898869574894E-004 F
     orb,it,eci,eold,eci-eold=                    1                   45 -0.97546768703872533      -0.97546743522640389       -2.5181232143900445E-007 F
     orb,it,eci,eold,eci-eold=                    1                   46 -0.97549273155942151      -0.97546768703872533       -2.5044520696182460E-005 F
     orb,it,eci,eold,eci-eold=                    1                   47 -0.97561889164020821      -0.97549273155942151       -1.2616008078669694E-004 F
     orb,it,eci,eold,eci-eold=                    1                   48 -0.97563071224907483      -0.97561889164020821       -1.1820608866619509E-005 F
     orb,it,eci,eold,eci-eold=                    1                   49 -0.97563832545925633      -0.97563071224907483       -7.6132101815007402E-006 F
     orb,it,eci,eold,eci-eold=                    1                   50 -0.97577172967867309      -0.97563832545925633       -1.3340421941676617E-004 F
     orb,it,eci,eold,eci-eold=                    1                   51 -0.97579713673190871      -0.97577172967867309       -2.5407053235615429E-005 F
     orb,it,eci,eold,eci-eold=                    1                   52 -0.97580309347244287      -0.97579713673190871       -5.9567405341631741E-006 F
     orb,it,eci,eold,eci-eold=                    1                   53 -0.97590277743622367      -0.97580309347244287       -9.9683963780794471E-005 F
     orb,it,eci,eold,eci-eold=                    1                   54 -0.97590413942795873      -0.97590277743622367       -1.3619917350604638E-006 F
     orb,it,eci,eold,eci-eold=                    1                   55 -0.97590463391162308      -0.97590413942795873       -4.9448366434834412E-007 F
     orb,it,eci,eold,eci-eold=                    1                   56 -0.97598135194939062      -0.97590463391162308       -7.6718037767542491E-005 F
     orb,it,eci,eold,eci-eold=                    1                   57 -0.97601747495791547      -0.97598135194939062       -3.6123008524846512E-005 F
     orb,it,eci,eold,eci-eold=                    1                   58 -0.97602216200267011      -0.97601747495791547       -4.6870447546476512E-006 F
     orb,it,eci,eold,eci-eold=                    1                   59 -0.97606674937898830      -0.97602216200267011       -4.4587376318183658E-005 F
     orb,it,eci,eold,eci-eold=                    1                   60 -0.97608417038744277      -0.97606674937898830       -1.7421008454476805E-005 F
     orb,it,eci,eold,eci-eold=                    1                   61 -0.97608880392738462      -0.97608417038744277       -4.6335399418451217E-006 F
     orb,it,eci,eold,eci-eold=                    1                   62 -0.97612563165106092      -0.97608880392738462       -3.6827723676302604E-005 F
     orb,it,eci,eold,eci-eold=                    1                   63 -0.97614602815609786      -0.97612563165106092       -2.0396505036934798E-005 F
     orb,it,eci,eold,eci-eold=                    1                   64 -0.97615442683183806      -0.97614602815609786       -8.3986757402065848E-006 F
     orb,it,eci,eold,eci-eold=                    1                   65 -0.97618668625713378      -0.97615442683183806       -3.2259425295722011E-005 F
     orb,it,eci,eold,eci-eold=                    1                   66 -0.97619490452493063      -0.97618668625713378       -8.2182677968445361E-006 F
     orb,it,eci,eold,eci-eold=                    1                   67 -0.97619706004349971      -0.97619490452493063       -2.1555185690802503E-006 F
     orb,it,eci,eold,eci-eold=                    1                   68 -0.97622266397457125      -0.97619706004349971       -2.5603931071538355E-005 F
     orb,it,eci,eold,eci-eold=                    1                   69 -0.97623891435705112      -0.97622266397457125       -1.6250382479876535E-005 F
     orb,it,eci,eold,eci-eold=                    1                   70 -0.97624477891144434      -0.97623891435705112       -5.8645543932200894E-006 F
     orb,it,eci,eold,eci-eold=                    1                   71 -0.97626412733194279      -0.97624477891144434       -1.9348420498443986E-005 F
     orb,it,eci,eold,eci-eold=                    1                   72 -0.97626680117963993      -0.97626412733194279       -2.6738476971432945E-006 F
     orb,it,eci,eold,eci-eold=                    1                   73 -0.97626757498609074      -0.97626680117963993       -7.7380645080449284E-007 F
     orb,it,eci,eold,eci-eold=                    1                   74 -0.97628263010494676      -0.97626757498609074       -1.5055118856022176E-005 F
     orb,it,eci,eold,eci-eold=                    1                   75 -0.97629147404800853      -0.97628263010494676       -8.8439430617759385E-006 F
     orb,it,eci,eold,eci-eold=                    1                   76 -0.97629467260791336      -0.97629147404800853       -3.1985599048267588E-006 F
     orb,it,eci,eold,eci-eold=                    1                   77 -0.97630715534594070      -0.97629467260791336       -1.2482738027341789E-005 F
     orb,it,eci,eold,eci-eold=                    1                   78 -0.97631001227673608      -0.97630715534594070       -2.8569307953807410E-006 F
     orb,it,eci,eold,eci-eold=                    1                   79 -0.97631066820998635      -0.97631001227673608       -6.5593325027091254E-007 F
     orb,it,eci,eold,eci-eold=                    1                   80 -0.97632019643580858      -0.97631066820998635       -9.5282258222306737E-006 F
     orb,it,eci,eold,eci-eold=                    1                   81 -0.97632563698952557      -0.97632019643580858       -5.4405537169843754E-006 F
     orb,it,eci,eold,eci-eold=                    1                   82 -0.97632747325996305      -0.97632563698952557       -1.8362704374830230E-006 F
     orb,it,eci,eold,eci-eold=                    1                   83 -0.97633507063446645      -0.97632747325996305       -7.5973745033985907E-006 F
     orb,it,eci,eold,eci-eold=                    1                   84 -0.97633747684461036      -0.97633507063446645       -2.4062101439126238E-006 F
     orb,it,eci,eold,eci-eold=                    1                   85 -0.97633838712020538      -0.97633747684461036       -9.1027559501188904E-007 F
     orb,it,eci,eold,eci-eold=                    1                   86 -0.97634465747254795      -0.97633838712020538       -6.2703523425744478E-006 F
     orb,it,eci,eold,eci-eold=                    1                   87 -0.97634772730698549      -0.97634465747254795       -3.0698344375412745E-006 F
     orb,it,eci,eold,eci-eold=                    1                   88 -0.97634889636621014      -0.97634772730698549       -1.1690592246482723E-006 F
     orb,it,eci,eold,eci-eold=                    1                   89 -0.97635429688434172      -0.97634889636621014       -5.4005181315819328E-006 F
     orb,it,eci,eold,eci-eold=                    1                   90 -0.97635631278202561      -0.97635429688434172       -2.0158976838935416E-006 F
     orb,it,eci,eold,eci-eold=                    1                   91 -0.97635696104084690      -0.97635631278202561       -6.4825882128971557E-007 F
     orb,it,eci,eold,eci-eold=                    1                   92 -0.97636112258287566      -0.97635696104084690       -4.1615420287577365E-006 F
     orb,it,eci,eold,eci-eold=                    1                   93 -0.97636275303769260      -0.97636112258287566       -1.6304548169365773E-006 F
     orb,it,eci,eold,eci-eold=                    1                   94 -0.97636323120583901      -0.97636275303769260       -4.7816814641166161E-007 F
     orb,it,eci,eold,eci-eold=                    1                   95 -0.97636649174754708      -0.97636323120583901       -3.2605417080722177E-006 F
     orb,it,eci,eold,eci-eold=                    1                   96 -0.97636798575634809      -0.97636649174754708       -1.4940088010062524E-006 F
     orb,it,eci,eold,eci-eold=                    1                   97 -0.97636851467139385      -0.97636798575634809       -5.2891504576102477E-007 F
     orb,it,eci,eold,eci-eold=                    1                   98 -0.97637110691873319      -0.97636851467139385       -2.5922473393391599E-006 F
     orb,it,eci,eold,eci-eold=                    1                   99 -0.97637200093938037      -0.97637110691873319       -8.9402064717969409E-007 F
     orb,it,eci,eold,eci-eold=                    1                  100 -0.97637233357215636      -0.97637200093938037       -3.3263277599004937E-007 F
     orb,it,eci,eold,eci-eold=                    1                  101 -0.97637446692861851      -0.97637233357215636       -2.1333564621528467E-006 F
     orb,it,eci,eold,eci-eold=                    1                  102 -0.97637516212194320      -0.97637446692861851       -6.9519332468459538E-007 F
     orb,it,eci,eold,eci-eold=                    1                  103 -0.97637526270359076      -0.97637516212194320       -1.0058164756632237E-007 F
     orb,it,eci,eold,eci-eold=                    1                  104 -0.97637668446948345      -0.97637526270359076       -1.4217658926840571E-006 F
     orb,it,eci,eold,eci-eold=                    1                  105 -0.97637741083180296      -0.97637668446948345       -7.2636231951417329E-007 F
     orb,it,eci,eold,eci-eold=                    1                  106 -0.97637770979564042      -0.97637741083180296       -2.9896383746397248E-007 F
     orb,it,eci,eold,eci-eold=                    1                  107 -0.97637904485182370      -0.97637770979564042       -1.3350561832714547E-006 F
     orb,it,eci,eold,eci-eold=                    1                  108 -0.97637950822144015      -0.97637904485182370       -4.6336961645465635E-007 F
     orb,it,eci,eold,eci-eold=                    1                  109 -0.97637965028575602      -0.97637950822144015       -1.4206431586671897E-007 F
     orb,it,eci,eold,eci-eold=                    1                  110 -0.97638071642601232      -0.97637965028575602       -1.0661402563005851E-006 F
     orb,it,eci,eold,eci-eold=                    1                  111 -0.97638121990023796      -0.97638071642601232       -5.0347422564378519E-007 F
     orb,it,eci,eold,eci-eold=                    1                  112 -0.97638137696217375      -0.97638121990023796       -1.5706193579045902E-007 F
     orb,it,eci,eold,eci-eold=                    1                  113 -0.97638225634253994      -0.97638137696217375       -8.7938036619217286E-007 F
     orb,it,eci,eold,eci-eold=                    1                  114 -0.97638264859972423      -0.97638225634253994       -3.9225718428959055E-007 F
     orb,it,eci,eold,eci-eold=                    1                  115 -0.97638278902969389      -0.97638264859972423       -1.4042996965279997E-007 F
     orb,it,eci,eold,eci-eold=                    1                  116 -0.97638353102765629      -0.97638278902969389       -7.4199796240570493E-007 F
     orb,it,eci,eold,eci-eold=                    1                  117 -0.97638379262723929      -0.97638353102765629       -2.6159958299576402E-007 F
     orb,it,eci,eold,eci-eold=                    1                  118 -0.97638385861417976      -0.97638379262723929       -6.5986940467333000E-008 F
     orb,it,eci,eold,eci-eold=                    1                  119 -0.97638443933432539      -0.97638385861417976       -5.8072014563759211E-007 F
     orb,it,eci,eold,eci-eold=                    1                  120 -0.97638473290638483      -0.97638443933432539       -2.9357205943991715E-007 F
     orb,it,eci,eold,eci-eold=                    1                  121 -0.97638482587543907      -0.97638473290638483       -9.2969054232838744E-008 F
     orbital   1 current e= -0.156152E+00 error=0.705E-01 (eci= -0.976384826E+00 error=0.930E-07) iterations 121(   0 preconditioned, Ep,Sp= 20.0  200.0)
     orb,it,eci,eold,eci-eold=                    1                    1 -0.97638618814052858      -0.97638482587543907       -1.3622650895106503E-006 F
     orb,it,eci,eold,eci-eold=                    1                    2 -0.97638655746047931      -0.97638618814052858       -3.6931995073263835E-007 F
     orb,it,eci,eold,eci-eold=                    1                    3 -0.97638670699893448      -0.97638655746047931       -1.4953845517418074E-007 F
     orb,it,eci,eold,eci-eold=                    1                    4 -0.97638721171551057      -0.97638670699893448       -5.0471657608852638E-007 F
     orb,it,eci,eold,eci-eold=                    1                    5 -0.97638740010399216      -0.97638721171551057       -1.8838848159230537E-007 F
     orb,it,eci,eold,eci-eold=                    1                    6 -0.97638747309065177      -0.97638740010399216       -7.2986659604978854E-008 F
     orb,it,eci,eold,eci-eold=                    1                    7 -0.97638768826848754      -0.97638747309065177       -2.1517783577174043E-007 F
     orb,it,eci,eold,eci-eold=                    1                    8 -0.97638782016591252      -0.97638768826848754       -1.3189742498198598E-007 F
     orb,it,eci,eold,eci-eold=                    1                    9 -0.97638792659246287      -0.97638782016591252       -1.0642655035031368E-007 F
     orb,it,eci,eold,eci-eold=                    1                   10 -0.97638793295131365      -0.97638792659246287       -6.3588507792644577E-009 F
     orb,it,eci,eold,eci-eold=                    1                   11 -0.97638800420795269      -0.97638793295131365       -7.1256639033734359E-008 F
     orb,it,eci,eold,eci-eold=                    1                   12 -0.97638804547345504      -0.97638800420795269       -4.1265502348508676E-008 F
     orb,it,eci,eold,eci-eold=                    1                   13 -0.97638805924998451      -0.97638804547345504       -1.3776529472764310E-008 F
     orb,it,eci,eold,eci-eold=                    1                   14 -0.97638812943195619      -0.97638805924998451       -7.0181971678628940E-008 F
     orb,it,eci,eold,eci-eold=                    1                   15 -0.97638814837751264      -0.97638812943195619       -1.8945556456984036E-008 F
     orb,it,eci,eold,eci-eold=                    1                   16 -0.97638815621136676      -0.97638814837751264       -7.8338541209532764E-009 F
     orb,it,eci,eold,eci-eold=                    1                   17 -0.97638819108783947      -0.97638815621136676       -3.4876472709832740E-008 F
     orb,it,eci,eold,eci-eold=                    1                   18 -0.97638821060043246      -0.97638819108783947       -1.9512592985826416E-008 F
     orb,it,eci,eold,eci-eold=                    1                   19 -0.97638823342619507      -0.97638821060043246       -2.2825762613365441E-008 F
     orb,it,eci,eold,eci-eold=                    1                   20 -0.97638823518244411      -0.97638823342619507       -1.7562490350897519E-009 F
     orb,it,eci,eold,eci-eold=                    1                   21 -0.97638823837110356      -0.97638823518244411       -3.1886594475949437E-009 F
     orb,it,eci,eold,eci-eold=                    1                   22 -0.97638825355244485      -0.97638823837110356       -1.5181341295189554E-008 F
     orb,it,eci,eold,eci-eold=                    1                   23 -0.97638825355244485      -0.97638825355244485        0.0000000000000000      F
     orbital   1 current e= -0.156148E+00 error=0.344E-05 (eci= -0.976388254E+00 error=0.000E+00) iterations  23(   0 preconditioned, Ep,Sp= 20.0  200.0)
     orb,it,eci,eold,eci-eold=                    1                    1 -0.97638828724540272      -0.97638825280398667       -3.4441416052466423E-008 F
     orb,it,eci,eold,eci-eold=                    1                    2 -0.97638829009426131      -0.97638828724540272       -2.8488585934738353E-009 F
     orb,it,eci,eold,eci-eold=                    1                    3 -0.97638829009426131      -0.97638829009426131        0.0000000000000000      F
     orbital   1 current e= -0.156148E+00 error=0.103E-06 (eci= -0.976388290E+00 error=0.000E+00) iterations   3(   0 preconditioned, Ep,Sp= 20.0  200.0)
     orb,it,eci,eold,eci-eold=                    2                    1 -0.79841462080087977      -0.79791230227351262       -5.0231852736715155E-004 F
     orb,it,eci,eold,eci-eold=                    2                    2 -0.79845324193734390      -0.79841462080087977       -3.8621136464134231E-005 F
     orb,it,eci,eold,eci-eold=                    2                    3 -0.79848984346851748      -0.79845324193734390       -3.6601531173574564E-005 F
     orb,it,eci,eold,eci-eold=                    2                    4 -0.79859878167763354      -0.79848984346851748       -1.0893820911606067E-004 F
     orb,it,eci,eold,eci-eold=                    2                    5 -0.79866982697835143      -0.79859878167763354       -7.1045300717886839E-005 F
     orb,it,eci,eold,eci-eold=                    2                    6 -0.79876180639208239      -0.79866982697835143       -9.1979413730958193E-005 F
     orb,it,eci,eold,eci-eold=                    2                    7 -0.79882349119331009      -0.79876180639208239       -6.1684801227701591E-005 F
     orb,it,eci,eold,eci-eold=                    2                    8 -0.79887242144067105      -0.79882349119331009       -4.8930247360967627E-005 F
     orb,it,eci,eold,eci-eold=                    2                    9 -0.79889464642765029      -0.79887242144067105       -2.2224986979235695E-005 F
     orb,it,eci,eold,eci-eold=                    2                   10 -0.79891789849694617      -0.79889464642765029       -2.3252069295875977E-005 F
     orb,it,eci,eold,eci-eold=                    2                   11 -0.79892517624811910      -0.79891789849694617       -7.2777511729293920E-006 F
     orb,it,eci,eold,eci-eold=                    2                   12 -0.79892842341235171      -0.79892517624811910       -3.2471642326115102E-006 F
     orb,it,eci,eold,eci-eold=                    2                   13 -0.79896322807645981      -0.79892842341235171       -3.4804664108101235E-005 F
     orb,it,eci,eold,eci-eold=                    2                   14 -0.79898409754051347      -0.79896322807645981       -2.0869464053663300E-005 F
     orb,it,eci,eold,eci-eold=                    2                   15 -0.79899927986082875      -0.79898409754051347       -1.5182320315276776E-005 F
     orb,it,eci,eold,eci-eold=                    2                   16 -0.79900748370671448      -0.79899927986082875       -8.2038458857347507E-006 F
     orb,it,eci,eold,eci-eold=                    2                   17 -0.79903743863794374      -0.79900748370671448       -2.9954931229259074E-005 F
     orb,it,eci,eold,eci-eold=                    2                   18 -0.79904737267498116      -0.79903743863794374       -9.9340370374179088E-006 F
     orb,it,eci,eold,eci-eold=                    2                   19 -0.79905013928851165      -0.79904737267498116       -2.7666135304915684E-006 F
     orb,it,eci,eold,eci-eold=                    2                   20 -0.79906838161145388      -0.79905013928851165       -1.8242322942230160E-005 F
     orb,it,eci,eold,eci-eold=                    2                   21 -0.79907374470488313      -0.79906838161145388       -5.3630934292447918E-006 F
     orb,it,eci,eold,eci-eold=                    2                   22 -0.79907654937050143      -0.79907374470488313       -2.8046656183056129E-006 F
     orb,it,eci,eold,eci-eold=                    2                   23 -0.79909357094423106      -0.79907654937050143       -1.7021573729625317E-005 F
     orb,it,eci,eold,eci-eold=                    2                   24 -0.79909843979601936      -0.79909357094423106       -4.8688517882977678E-006 F
     orb,it,eci,eold,eci-eold=                    2                   25 -0.79909896183735341      -0.79909843979601936       -5.2204133405009401E-007 F
     orb,it,eci,eold,eci-eold=                    2                   26 -0.79910827123117967      -0.79909896183735341       -9.3093938262622800E-006 F
     orb,it,eci,eold,eci-eold=                    2                   27 -0.79911097652312790      -0.79910827123117967       -2.7052919482351001E-006 F
     orb,it,eci,eold,eci-eold=                    2                   28 -0.79911241388403442      -0.79911097652312790       -1.4373609065199133E-006 F
     orb,it,eci,eold,eci-eold=                    2                   29 -0.79912182764331408      -0.79911241388403442       -9.4137592796528224E-006 F
     orb,it,eci,eold,eci-eold=                    2                   30 -0.79912414000456811      -0.79912182764331408       -2.3123612540310035E-006 F
     orb,it,eci,eold,eci-eold=                    2                   31 -0.79912501859344398      -0.79912414000456811       -8.7858887587444201E-007 F
     orb,it,eci,eold,eci-eold=                    2                   32 -0.79913332582394070      -0.79912501859344398       -8.3072304967179988E-006 F
     orb,it,eci,eold,eci-eold=                    2                   33 -0.79913357650313643      -0.79913332582394070       -2.5067919573462660E-007 F
     orb,it,eci,eold,eci-eold=                    2                   34 -0.79913384673464172      -0.79913357650313643       -2.7023150528382445E-007 F
     orb,it,eci,eold,eci-eold=                    2                   35 -0.79913987271712317      -0.79913384673464172       -6.0259824814501428E-006 F
     orb,it,eci,eold,eci-eold=                    2                   36 -0.79914147480777920      -0.79913987271712317       -1.6020906560276771E-006 F
     orb,it,eci,eold,eci-eold=                    2                   37 -0.79914184628548313      -0.79914147480777920       -3.7147770393097801E-007 F
     orb,it,eci,eold,eci-eold=                    2                   38 -0.79914733686045736      -0.79914184628548313       -5.4905749742317767E-006 F
     orb,it,eci,eold,eci-eold=                    2                   39 -0.79914878587453231      -0.79914733686045736       -1.4490140749501279E-006 F
     orb,it,eci,eold,eci-eold=                    2                   40 -0.79914923320909392      -0.79914878587453231       -4.4733456161516472E-007 F
     orb,it,eci,eold,eci-eold=                    2                   41 -0.79915267788687561      -0.79914923320909392       -3.4446777816832252E-006 F
     orb,it,eci,eold,eci-eold=                    2                   42 -0.79915341413697316      -0.79915267788687561       -7.3625009755495796E-007 F
     orb,it,eci,eold,eci-eold=                    2                   43 -0.79915353352612994      -0.79915341413697316       -1.1938915678300077E-007 F
     orb,it,eci,eold,eci-eold=                    2                   44 -0.79915655949093800      -0.79915353352612994       -3.0259648080566137E-006 F
     orb,it,eci,eold,eci-eold=                    2                   45 -0.79915825336912871      -0.79915655949093800       -1.6938781907116507E-006 F
     orb,it,eci,eold,eci-eold=                    2                   46 -0.79915868327638240      -0.79915825336912871       -4.2990725368508009E-007 F
     orb,it,eci,eold,eci-eold=                    2                   47 -0.79916098011952963      -0.79915868327638240       -2.2968431472314421E-006 F
     orb,it,eci,eold,eci-eold=                    2                   48 -0.79916144276465184      -0.79916098011952963       -4.6264512221227960E-007 F
     orb,it,eci,eold,eci-eold=                    2                   49 -0.79916153281499769      -0.79916144276465184       -9.0050345846748314E-008 F
     orb,it,eci,eold,eci-eold=                    2                   50 -0.79916358929424702      -0.79916153281499769       -2.0564792493349415E-006 F
     orb,it,eci,eold,eci-eold=                    2                   51 -0.79916455212170256      -0.79916358929424702       -9.6282745554177041E-007 F
     orb,it,eci,eold,eci-eold=                    2                   52 -0.79916470308778298      -0.79916455212170256       -1.5096608041442749E-007 F
     orb,it,eci,eold,eci-eold=                    2                   53 -0.79916624933649771      -0.79916470308778298       -1.5462487147344106E-006 F
     orb,it,eci,eold,eci-eold=                    2                   54 -0.79916684832423956      -0.79916624933649771       -5.9898774185107584E-007 F
     orb,it,eci,eold,eci-eold=                    2                   55 -0.79916697540723858      -0.79916684832423956       -1.2708299901298403E-007 F
     orb,it,eci,eold,eci-eold=                    2                   56 -0.79916813500197459      -0.79916697540723858       -1.1595947360110159E-006 F
     orb,it,eci,eold,eci-eold=                    2                   57 -0.79916863230881452      -0.79916813500197459       -4.9730683993054470E-007 F
     orb,it,eci,eold,eci-eold=                    2                   58 -0.79916883730409338      -0.79916863230881452       -2.0499527886297386E-007 F
     orb,it,eci,eold,eci-eold=                    2                   59 -0.79916987641752169      -0.79916883730409338       -1.0391134283027625E-006 F
     orb,it,eci,eold,eci-eold=                    2                   60 -0.79917005816665965      -0.79916987641752169       -1.8174913796187298E-007 F
     orb,it,eci,eold,eci-eold=                    2                   61 -0.79917014707931755      -0.79917005816665965       -8.8912657902895376E-008 F
     orb,it,eci,eold,eci-eold=                    2                   62 -0.79917121778807487      -0.79917014707931755       -1.0707087573225138E-006 F
     orb,it,eci,eold,eci-eold=                    2                   63 -0.79917130786782642      -0.79917121778807487       -9.0079751546845443E-008 F
     orb,it,eci,eold,eci-eold=                    2                   64 -0.79917136614605810      -0.79917130786782642       -5.8278231684916193E-008 F
     orb,it,eci,eold,eci-eold=                    2                   65 -0.79917228946019347      -0.79917136614605810       -9.2331413537038998E-007 F
     orb,it,eci,eold,eci-eold=                    2                   66 -0.79917282142758528      -0.79917228946019347       -5.3196739180361163E-007 F
     orb,it,eci,eold,eci-eold=                    2                   67 -0.79917319268714304      -0.79917282142758528       -3.7125955776318165E-007 F
     orb,it,eci,eold,eci-eold=                    2                   68 -0.79917335799350975      -0.79917319268714304       -1.6530636670619714E-007 F
     orb,it,eci,eold,eci-eold=                    2                   69 -0.79917377340395035      -0.79917335799350975       -4.1541044060178223E-007 F
     orb,it,eci,eold,eci-eold=                    2                   70 -0.79917380222877710      -0.79917377340395035       -2.8824826747708698E-008 F
     orb,it,eci,eold,eci-eold=                    2                   71 -0.79917380346656008      -0.79917380222877710       -1.2377829872178836E-009 F
     orb,it,eci,eold,eci-eold=                    2                   72 -0.79917404239757195      -0.79917380346656008       -2.3893101186445165E-007 F
     orb,it,eci,eold,eci-eold=                    2                   73 -0.79917413327505571      -0.79917404239757195       -9.0877483760465338E-008 F
     orb,it,eci,eold,eci-eold=                    2                   74 -0.79917416740980052      -0.79917413327505571       -3.4134744808511641E-008 F
     orb,it,eci,eold,eci-eold=                    2                   75 -0.79917441787548926      -0.79917416740980052       -2.5046568874476094E-007 F
     orb,it,eci,eold,eci-eold=                    2                   76 -0.79917451413760920      -0.79917441787548926       -9.6262119941847857E-008 F
     orb,it,eci,eold,eci-eold=                    2                   77 -0.79917452436684444      -0.79917451413760920       -1.0229235236636214E-008 F
     orb,it,eci,eold,eci-eold=                    2                   78 -0.79917471681067020      -0.79917452436684444       -1.9244382576388830E-007 F
     orb,it,eci,eold,eci-eold=                    2                   79 -0.79917486161560047      -0.79917471681067020       -1.4480493026880481E-007 F
     orb,it,eci,eold,eci-eold=                    2                   80 -0.79917491643250615      -0.79917486161560047       -5.4816905681320804E-008 F
     orb,it,eci,eold,eci-eold=                    2                   81 -0.79917509354052485      -0.79917491643250615       -1.7710801869519344E-007 F
     orb,it,eci,eold,eci-eold=                    2                   82 -0.79917514618232133      -0.79917509354052485       -5.2641796477459479E-008 F
     orb,it,eci,eold,eci-eold=                    2                   83 -0.79917516170877700      -0.79917514618232133       -1.5526455676706519E-008 F
     orb,it,eci,eold,eci-eold=                    2                   84 -0.79917528552421291      -0.79917516170877700       -1.2381543590400668E-007 F
     orb,it,eci,eold,eci-eold=                    2                   85 -0.79917533809871366      -0.79917528552421291       -5.2574500752911035E-008 F
     orb,it,eci,eold,eci-eold=                    2                   86 -0.79917535514634186      -0.79917533809871366       -1.7047628197985887E-008 F
     orb,it,eci,eold,eci-eold=                    2                   87 -0.79917545193822481      -0.79917535514634186       -9.6791882953084496E-008 F
     orb,it,eci,eold,eci-eold=                    2                   88 -0.79917550256546233      -0.79917545193822481       -5.0627237513367618E-008 F
     orb,it,eci,eold,eci-eold=                    2                   89 -0.79917552864973840      -0.79917550256546233       -2.6084276072424473E-008 F
     orb,it,eci,eold,eci-eold=                    2                   90 -0.79917561862820996      -0.79917552864973840       -8.9978471562446316E-008 F
     orb,it,eci,eold,eci-eold=                    2                   91 -0.79917563737104769      -0.79917561862820996       -1.8742837726293260E-008 F
     orb,it,eci,eold,eci-eold=                    2                   92 -0.79917564231812321      -0.79917563737104769       -4.9470755270064615E-009 F
     orb,it,eci,eold,eci-eold=                    2                   93 -0.79917570902630353      -0.79917564231812321       -6.6708180312957666E-008 F
     orb,it,eci,eold,eci-eold=                    2                   94 -0.79917574361106181      -0.79917570902630353       -3.4584758279443406E-008 F
     orb,it,eci,eold,eci-eold=                    2                   95 -0.79917575435773980      -0.79917574361106181       -1.0746677991946285E-008 F
     orb,it,eci,eold,eci-eold=                    2                   96 -0.79917580795844734      -0.79917575435773980       -5.3600707539125381E-008 F
     orb,it,eci,eold,eci-eold=                    2                   97 -0.79917582706480550      -0.79917580795844734       -1.9106358162268577E-008 F
     orb,it,eci,eold,eci-eold=                    2                   98 -0.79917583409553006      -0.79917582706480550       -7.0307245580991662E-009 F
     orb,it,eci,eold,eci-eold=                    2                   99 -0.79917588155405106      -0.79917583409553006       -4.7458521001964016E-008 F
     orb,it,eci,eold,eci-eold=                    2                  100 -0.79917590118530779      -0.79917588155405106       -1.9631256731322821E-008 F
     orb,it,eci,eold,eci-eold=                    2                  101 -0.79917590465257271      -0.79917590118530779       -3.4672649196210159E-009 F
     orb,it,eci,eold,eci-eold=                    2                  102 -0.79917593469452086      -0.79917590465257271       -3.0041948151371400E-008 F
     orb,it,eci,eold,eci-eold=                    2                  103 -0.79917594859885210      -0.79917593469452086       -1.3904331241931800E-008 F
     orb,it,eci,eold,eci-eold=                    2                  104 -0.79917595524203000      -0.79917594859885210       -6.6431778966702382E-009 F
     orb,it,eci,eold,eci-eold=                    2                  105 -0.79917598517514599      -0.79917595524203000       -2.9933115985869563E-008 F
     orb,it,eci,eold,eci-eold=                    2                  106 -0.79917599697169317      -0.79917598517514599       -1.1796547183529071E-008 F
     orb,it,eci,eold,eci-eold=                    2                  107 -0.79917600148537615      -0.79917599697169317       -4.5136829829317549E-009 F
     orb,it,eci,eold,eci-eold=                    2                  108 -0.79917602799504905      -0.79917600148537615       -2.6509672901298131E-008 F
     orb,it,eci,eold,eci-eold=                    2                  109 -0.79917603930949832      -0.79917602799504905       -1.1314449266386362E-008 F
     orb,it,eci,eold,eci-eold=                    2                  110 -0.79917604238473450      -0.79917603930949832       -3.0752361768193737E-009 F
     orb,it,eci,eold,eci-eold=                    2                  111 -0.79917606398841290      -0.79917604238473450       -2.1603678401760362E-008 F
     orb,it,eci,eold,eci-eold=                    2                  112 -0.79917607348174913      -0.79917606398841290       -9.4933362282390021E-009 F
     orb,it,eci,eold,eci-eold=                    2                  113 -0.79917607540449409      -0.79917607348174913       -1.9227449632452931E-009 F
     orb,it,eci,eold,eci-eold=                    2                  114 -0.79917608959467712      -0.79917607540449409       -1.4190183028617298E-008 F
     orb,it,eci,eold,eci-eold=                    2                  115 -0.79917609475177676      -0.79917608959467712       -5.1570996362215737E-009 F
     orb,it,eci,eold,eci-eold=                    2                  116 -0.79917609657901223      -0.79917609475177676       -1.8272354740389574E-009 F
     orb,it,eci,eold,eci-eold=                    2                  117 -0.79917610849662135      -0.79917609657901223       -1.1917609121780970E-008 F
     orb,it,eci,eold,eci-eold=                    2                  118 -0.79917611382930076      -0.79917610849662135       -5.3326794091645979E-009 F
     orb,it,eci,eold,eci-eold=                    2                  119 -0.79917611585224380      -0.79917611382930076       -2.0229430353069233E-009 F
     orb,it,eci,eold,eci-eold=                    2                  120 -0.79917612577461461      -0.79917611585224380       -9.9223708138751476E-009 F
     orb,it,eci,eold,eci-eold=                    2                  121 -0.79917612971484187      -0.79917612577461461       -3.9402272555832951E-009 F
     orbital   2 current e=  0.345410E+00 error=0.593E-01 (eci= -0.799176130E+00 error=0.394E-08) iterations 121(   0 preconditioned, Ep,Sp= 20.0  200.0)
     orb,it,eci,eold,eci-eold=                    2                    1 -0.79917615749765214      -0.79917612971484187       -2.7782810274601388E-008 F
     orb,it,eci,eold,eci-eold=                    2                    2 -0.79917617043615929      -0.79917615749765214       -1.2938507154558465E-008 F
     orb,it,eci,eold,eci-eold=                    2                    3 -0.79917617435165400      -0.79917617043615929       -3.9154947062414180E-009 F
     orb,it,eci,eold,eci-eold=                    2                    4 -0.79917618073551999      -0.79917617435165400       -6.3838659913884044E-009 F
     orb,it,eci,eold,eci-eold=                    2                    5 -0.79917618531269685      -0.79917618073551999       -4.5771768597546725E-009 F
     orb,it,eci,eold,eci-eold=                    2                    6 -0.79917618628493803      -0.79917618531269685       -9.7224117645566821E-010 F
     orbital   2 current e=  0.345259E+00 error=0.151E-03 (eci= -0.799176186E+00 error=0.972E-09) iterations   6(   0 preconditioned, Ep,Sp= 20.0  200.0)
     orb,it,eci,eold,eci-eold=                    2                    1 -0.79917619200181422      -0.79917618628493803       -5.7168761946613245E-009 F
     orb,it,eci,eold,eci-eold=                    2                    2 -0.79917619373831728      -0.79917619200181422       -1.7365030524629788E-009 F
     orb,it,eci,eold,eci-eold=                    2                    3 -0.79917619509309179      -0.79917619373831728       -1.3547745147945989E-009 F
     orb,it,eci,eold,eci-eold=                    2                    4 -0.79917619509309179      -0.79917619509309179        0.0000000000000000      F
     orbital   2 current e=  0.345223E+00 error=0.351E-04 (eci= -0.799176195E+00 error=0.000E+00) iterations   4(   0 preconditioned, Ep,Sp= 20.0  200.0)
     orb,it,eci,eold,eci-eold=                    3                    1 -0.79681548853216244      -0.79671080707114061       -1.0468146102182718E-004 F
     orb,it,eci,eold,eci-eold=                    3                    2 -0.79683566021063434      -0.79681548853216244       -2.0171678471903043E-005 F
     orb,it,eci,eold,eci-eold=                    3                    3 -0.79686854307857591      -0.79683566021063434       -3.2882867941563809E-005 F
     orb,it,eci,eold,eci-eold=                    3                    4 -0.79689492558822750      -0.79686854307857591       -2.6382509651590169E-005 F
     orb,it,eci,eold,eci-eold=                    3                    5 -0.79693813474829445      -0.79689492558822750       -4.3209160066948193E-005 F
     orb,it,eci,eold,eci-eold=                    3                    6 -0.79695829107671234      -0.79693813474829445       -2.0156328417897384E-005 F
     orb,it,eci,eold,eci-eold=                    3                    7 -0.79698651366787354      -0.79695829107671234       -2.8222591161197741E-005 F
     orb,it,eci,eold,eci-eold=                    3                    8 -0.79698768590774771      -0.79698651366787354       -1.1722398741698115E-006 F
     orb,it,eci,eold,eci-eold=                    3                    9 -0.79699838221048580      -0.79698768590774771       -1.0696302738089081E-005 F
     orb,it,eci,eold,eci-eold=                    3                   10 -0.79701693375843152      -0.79699838221048580       -1.8551547945722113E-005 F
     orb,it,eci,eold,eci-eold=                    3                   11 -0.79701946747279351      -0.79701693375843152       -2.5337143619852398E-006 F
     orb,it,eci,eold,eci-eold=                    3                   12 -0.79702859622369848      -0.79701946747279351       -9.1287509049742255E-006 F
     orb,it,eci,eold,eci-eold=                    3                   13 -0.79704549151663562      -0.79702859622369848       -1.6895292937135764E-005 F
     orb,it,eci,eold,eci-eold=                    3                   14 -0.79704680578775411      -0.79704549151663562       -1.3142711184910283E-006 F
     orb,it,eci,eold,eci-eold=                    3                   15 -0.79705228427505215      -0.79704680578775411       -5.4784872980384591E-006 F
     orb,it,eci,eold,eci-eold=                    3                   16 -0.79706739618045974      -0.79705228427505215       -1.5111905407594328E-005 F
     orb,it,eci,eold,eci-eold=                    3                   17 -0.79706859056915824      -0.79706739618045974       -1.1943886984999708E-006 F
     orb,it,eci,eold,eci-eold=                    3                   18 -0.79707081590548912      -0.79706859056915824       -2.2253363308744056E-006 F
     orb,it,eci,eold,eci-eold=                    3                   19 -0.79708435627284069      -0.79707081590548912       -1.3540367351572158E-005 F
     orb,it,eci,eold,eci-eold=                    3                   20 -0.79708691551617517      -0.79708435627284069       -2.5592433344767684E-006 F
     orb,it,eci,eold,eci-eold=                    3                   21 -0.79708715674508568      -0.79708691551617517       -2.4122891051359119E-007 F
     orb,it,eci,eold,eci-eold=                    3                   22 -0.79709829325587256      -0.79708715674508568       -1.1136510786879938E-005 F
     orb,it,eci,eold,eci-eold=                    3                   23 -0.79710404524206036      -0.79709829325587256       -5.7519861877963763E-006 F
     orb,it,eci,eold,eci-eold=                    3                   24 -0.79710534064036076      -0.79710404524206036       -1.2953983004049263E-006 F
     orb,it,eci,eold,eci-eold=                    3                   25 -0.79711512601975432      -0.79710534064036076       -9.7853793935565037E-006 F
     orb,it,eci,eold,eci-eold=                    3                   26 -0.79711972792879615      -0.79711512601975432       -4.6019090418347730E-006 F
     orb,it,eci,eold,eci-eold=                    3                   27 -0.79712108964823325      -0.79711972792879615       -1.3617194370985075E-006 F
     orb,it,eci,eold,eci-eold=                    3                   28 -0.79712787720167899      -0.79712108964823325       -6.7875534457417785E-006 F
     orb,it,eci,eold,eci-eold=                    3                   29 -0.79712862891933578      -0.79712787720167899       -7.5171765678838653E-007 F
     orb,it,eci,eold,eci-eold=                    3                   30 -0.79712878589296987      -0.79712862891933578       -1.5697363409117315E-007 F
     orb,it,eci,eold,eci-eold=                    3                   31 -0.79713371136524236      -0.79712878589296987       -4.9254722724878519E-006 F
     orb,it,eci,eold,eci-eold=                    3                   32 -0.79713455009362710      -0.79713371136524236       -8.3872838474441380E-007 F
     orb,it,eci,eold,eci-eold=                    3                   33 -0.79713494067487556      -0.79713455009362710       -3.9058124845503528E-007 F
     orb,it,eci,eold,eci-eold=                    3                   34 -0.79714007185944291      -0.79713494067487556       -5.1311845673529533E-006 F
     orb,it,eci,eold,eci-eold=                    3                   35 -0.79714304913437184      -0.79714007185944291       -2.9772749289280753E-006 F
     orb,it,eci,eold,eci-eold=                    3                   36 -0.79714539567793152      -0.79714304913437184       -2.3465435596836670E-006 F
     orb,it,eci,eold,eci-eold=                    3                   37 -0.79714652929165275      -0.79714539567793152       -1.1336137212270003E-006 F
     orb,it,eci,eold,eci-eold=                    3                   38 -0.79714939206836544      -0.79714652929165275       -2.8627767126865322E-006 F
     orb,it,eci,eold,eci-eold=                    3                   39 -0.79714994675265205      -0.79714939206836544       -5.5468428661331615E-007 F
     orb,it,eci,eold,eci-eold=                    3                   40 -0.79715013516802480      -0.79714994675265205       -1.8841537274827402E-007 F
     orb,it,eci,eold,eci-eold=                    3                   41 -0.79715203986183436      -0.79715013516802480       -1.9046938095623744E-006 F
     orb,it,eci,eold,eci-eold=                    3                   42 -0.79715292739905508      -0.79715203986183436       -8.8753722071732710E-007 F
     orb,it,eci,eold,eci-eold=                    3                   43 -0.79715326214710003      -0.79715292739905508       -3.3474804495003951E-007 F
     orb,it,eci,eold,eci-eold=                    3                   44 -0.79715482354726963      -0.79715326214710003       -1.5614001696029334E-006 F
     orb,it,eci,eold,eci-eold=                    3                   45 -0.79715534489739914      -0.79715482354726963       -5.2135012951204374E-007 F
     orb,it,eci,eold,eci-eold=                    3                   46 -0.79715560093440729      -0.79715534489739914       -2.5603700815057806E-007 F
     orb,it,eci,eold,eci-eold=                    3                   47 -0.79715706280918075      -0.79715560093440729       -1.4618747734562731E-006 F
     orb,it,eci,eold,eci-eold=                    3                   48 -0.79715740958370551      -0.79715706280918075       -3.4677452476206128E-007 F
     orb,it,eci,eold,eci-eold=                    3                   49 -0.79715741097306292      -0.79715740958370551       -1.3893574069001602E-009 F
     orb,it,eci,eold,eci-eold=                    3                   50 -0.79715843081968663      -0.79715741097306292       -1.0198466237065773E-006 F
     orb,it,eci,eold,eci-eold=                    3                   51 -0.79715894501623819      -0.79715843081968663       -5.1419655155982014E-007 F
     orb,it,eci,eold,eci-eold=                    3                   52 -0.79715905944516663      -0.79715894501623819       -1.1442892844382158E-007 F
     orb,it,eci,eold,eci-eold=                    3                   53 -0.79715985620501506      -0.79715905944516663       -7.9675984843152747E-007 F
     orb,it,eci,eold,eci-eold=                    3                   54 -0.79716012888379884      -0.79715985620501506       -2.7267878377479349E-007 F
     orb,it,eci,eold,eci-eold=                    3                   55 -0.79716021684704907      -0.79716012888379884       -8.7963250239297963E-008 F
     orb,it,eci,eold,eci-eold=                    3                   56 -0.79716091919304155      -0.79716021684704907       -7.0234599247598339E-007 F
     orb,it,eci,eold,eci-eold=                    3                   57 -0.79716111277755319      -0.79716091919304155       -1.9358451164297463E-007 F
     orb,it,eci,eold,eci-eold=                    3                   58 -0.79716111854064042      -0.79716111277755319       -5.7630872296599023E-009 F
     orb,it,eci,eold,eci-eold=                    3                   59 -0.79716165922592686      -0.79716111854064042       -5.4068528643202995E-007 F
     orb,it,eci,eold,eci-eold=                    3                   60 -0.79716196371147374      -0.79716165922592686       -3.0448554688700114E-007 F
     orb,it,eci,eold,eci-eold=                    3                   61 -0.79716203655336348      -0.79716196371147374       -7.2841889742214505E-008 F
     orb,it,eci,eold,eci-eold=                    3                   62 -0.79716246626706311      -0.79716203655336348       -4.2971369962341299E-007 F
     orb,it,eci,eold,eci-eold=                    3                   63 -0.79716266930066260      -0.79716246626706311       -2.0303359948847799E-007 F
     orb,it,eci,eold,eci-eold=                    3                   64 -0.79716275868455244      -0.79716266930066260       -8.9383889845251474E-008 F
     orb,it,eci,eold,eci-eold=                    3                   65 -0.79716313559314744      -0.79716275868455244       -3.7690859500116858E-007 F
     orb,it,eci,eold,eci-eold=                    3                   66 -0.79716324296159846      -0.79716313559314744       -1.0736845101888548E-007 F
     orb,it,eci,eold,eci-eold=                    3                   67 -0.79716328199880948      -0.79716324296159846       -3.9037211019277152E-008 F
     orb,it,eci,eold,eci-eold=                    3                   68 -0.79716356483891548      -0.79716328199880948       -2.8284010600287957E-007 F
     orb,it,eci,eold,eci-eold=                    3                   69 -0.79716362152333287      -0.79716356483891548       -5.6684417382157903E-008 F
     orb,it,eci,eold,eci-eold=                    3                   70 -0.79716362285026054      -0.79716362152333287       -1.3269276788463458E-009 F
     orb,it,eci,eold,eci-eold=                    3                   71 -0.79716383781559674      -0.79716362285026054       -2.1496533619824731E-007 F
     orb,it,eci,eold,eci-eold=                    3                   72 -0.79716396618187446      -0.79716383781559674       -1.2836627771850573E-007 F
     orb,it,eci,eold,eci-eold=                    3                   73 -0.79716401255484026      -0.79716396618187446       -4.6372965800678401E-008 F
     orb,it,eci,eold,eci-eold=                    3                   74 -0.79716422333637327      -0.79716401255484026       -2.1078153300546631E-007 F
     orb,it,eci,eold,eci-eold=                    3                   75 -0.79716428763060354      -0.79716422333637327       -6.4294230273098663E-008 F
     orb,it,eci,eold,eci-eold=                    3                   76 -0.79716430250992820      -0.79716428763060354       -1.4879324661265514E-008 F
     orb,it,eci,eold,eci-eold=                    3                   77 -0.79716446565445986      -0.79716430250992820       -1.6314453166188514E-007 F
     orb,it,eci,eold,eci-eold=                    3                   78 -0.79716451078962758      -0.79716446565445986       -4.5135167714427382E-008 F
     orb,it,eci,eold,eci-eold=                    3                   79 -0.79716452539661742      -0.79716451078962758       -1.4606989839904827E-008 F
     orb,it,eci,eold,eci-eold=                    3                   80 -0.79716468943453844      -0.79716452539661742       -1.6403792102437365E-007 F
     orb,it,eci,eold,eci-eold=                    3                   81 -0.79716477738106994      -0.79716468943453844       -8.7946531501792435E-008 F
     orb,it,eci,eold,eci-eold=                    3                   82 -0.79716483879364497      -0.79716477738106994       -6.1412575025343585E-008 F
     orb,it,eci,eold,eci-eold=                    3                   83 -0.79716486827463107      -0.79716483879364497       -2.9480986096785955E-008 F
     orb,it,eci,eold,eci-eold=                    3                   84 -0.79716494786149883      -0.79716486827463107       -7.9586867762770908E-008 F
     orb,it,eci,eold,eci-eold=                    3                   85 -0.79716494900233403      -0.79716494786149883       -1.1408352040831460E-009 F
     orb,it,eci,eold,eci-eold=                    3                   86 -0.79716495374244878      -0.79716494900233403       -4.7401147451608949E-009 F
     orb,it,eci,eold,eci-eold=                    3                   87 -0.79716502903300102      -0.79716495374244878       -7.5290552237206043E-008 F
     orb,it,eci,eold,eci-eold=                    3                   88 -0.79716507319133034      -0.79716502903300102       -4.4158329326471346E-008 F
     orb,it,eci,eold,eci-eold=                    3                   89 -0.79716510453843470      -0.79716507319133034       -3.1347104356704847E-008 F
     orb,it,eci,eold,eci-eold=                    3                   90 -0.79716511886662400      -0.79716510453843470       -1.4328189301693328E-008 F
     orb,it,eci,eold,eci-eold=                    3                   91 -0.79716515995607640      -0.79716511886662400       -4.1089452396114723E-008 F
     orb,it,eci,eold,eci-eold=                    3                   92 -0.79716516834257045      -0.79716515995607640       -8.3864940547684341E-009 F
     orb,it,eci,eold,eci-eold=                    3                   93 -0.79716517037438517      -0.79716516834257045       -2.0318147164744005E-009 F
     orb,it,eci,eold,eci-eold=                    3                   94 -0.79716519983918133      -0.79716517037438517       -2.9464796158507056E-008 F
     orb,it,eci,eold,eci-eold=                    3                   95 -0.79716521257402140      -0.79716519983918133       -1.2734840071360054E-008 F
     orb,it,eci,eold,eci-eold=                    3                   96 -0.79716521471742841      -0.79716521257402140       -2.1434070074377587E-009 F
     orb,it,eci,eold,eci-eold=                    3                   97 -0.79716523737344702      -0.79716521471742841       -2.2656018616729057E-008 F
     orb,it,eci,eold,eci-eold=                    3                   98 -0.79716524995999838      -0.79716523737344702       -1.2586551356719156E-008 F
     orb,it,eci,eold,eci-eold=                    3                   99 -0.79716525441077746      -0.79716524995999838       -4.4507790786241230E-009 F
     orb,it,eci,eold,eci-eold=                    3                  100 -0.79716527419182071      -0.79716525441077746       -1.9781043247846242E-008 F
     orb,it,eci,eold,eci-eold=                    3                  101 -0.79716528072887083      -0.79716527419182071       -6.5370501234340850E-009 F
     orb,it,eci,eold,eci-eold=                    3                  102 -0.79716528245552909      -0.79716528072887083       -1.7266582608144176E-009 F
     orb,it,eci,eold,eci-eold=                    3                  103 -0.79716529647867995      -0.79716528245552909       -1.4023150862740863E-008 F
     orb,it,eci,eold,eci-eold=                    3                  104 -0.79716530197073099      -0.79716529647867995       -5.4920510361711194E-009 F
     orb,it,eci,eold,eci-eold=                    3                  105 -0.79716530379438377      -0.79716530197073099       -1.8236527843384920E-009 F
     orb,it,eci,eold,eci-eold=                    3                  106 -0.79716531547276182      -0.79716530379438377       -1.1678378042390136E-008 F
     orb,it,eci,eold,eci-eold=                    3                  107 -0.79716532011463948      -0.79716531547276182       -4.6418776600276601E-009 F
     orb,it,eci,eold,eci-eold=                    3                  108 -0.79716532147825603      -0.79716532011463948       -1.3636165530073185E-009 F
     orb,it,eci,eold,eci-eold=                    3                  109 -0.79716533044921745      -0.79716532147825603       -8.9709614181643360E-009 F
     orb,it,eci,eold,eci-eold=                    3                  110 -0.79716533404902779      -0.79716533044921745       -3.5998103387058222E-009 F
     orb,it,eci,eold,eci-eold=                    3                  111 -0.79716533528125366      -0.79716533404902779       -1.2322258768904248E-009 F
     orb,it,eci,eold,eci-eold=                    3                  112 -0.79716534303726849      -0.79716533528125366       -7.7560148303845722E-009 F
     orb,it,eci,eold,eci-eold=                    3                  113 -0.79716534671906381      -0.79716534303726849       -3.6817953130707792E-009 F
     orb,it,eci,eold,eci-eold=                    3                  114 -0.79716534800285088      -0.79716534671906381       -1.2837870766446713E-009 F
     orb,it,eci,eold,eci-eold=                    3                  115 -0.79716535473786221      -0.79716534800285088       -6.7350113264197375E-009 F
     orb,it,eci,eold,eci-eold=                    3                  116 -0.79716535824861423      -0.79716535473786221       -3.5107520224286759E-009 F
     orb,it,eci,eold,eci-eold=                    3                  117 -0.79716535969757940      -0.79716535824861423       -1.4489651700699824E-009 F
     orb,it,eci,eold,eci-eold=                    3                  118 -0.79716536562865170      -0.79716535969757940       -5.9310722999583732E-009 F
     orb,it,eci,eold,eci-eold=                    3                  119 -0.79716536791156489      -0.79716536562865170       -2.2829131918200574E-009 F
     orb,it,eci,eold,eci-eold=                    3                  120 -0.79716536878938427      -0.79716536791156489       -8.7781937274655775E-010 F
     orbital   3 current e=  0.377060E+00 error=0.267E-01 (eci= -0.797165369E+00 error=0.878E-09) iterations 120(   0 preconditioned, Ep,Sp= 20.0  200.0)
     orb,it,eci,eold,eci-eold=                    3                    1 -0.79716537226989792      -0.79716536878938427       -3.4805136550630777E-009 F
     orb,it,eci,eold,eci-eold=                    3                    2 -0.79716537244201024      -0.79716537226989792       -1.7211232439251489E-010 F
     orbital   3 current e=  0.377063E+00 error=0.240E-05 (eci= -0.797165372E+00 error=0.172E-09) iterations   2(   0 preconditioned, Ep,Sp= 20.0  200.0)
     orb,it,eci,eold,eci-eold=                    3                    1 -0.79716537907050400      -0.79716537244201024       -6.6284937538796385E-009 F
     orb,it,eci,eold,eci-eold=                    3                    2 -0.79716538202371390      -0.79716537907050400       -2.9532098988482858E-009 F
     orb,it,eci,eold,eci-eold=                    3                    3 -0.79716539544316356      -0.79716538202371390       -1.3419449662599447E-008 F
     orb,it,eci,eold,eci-eold=                    3                    4 -0.79716540022970972      -0.79716539544316356       -4.7865461594298608E-009 F
     orb,it,eci,eold,eci-eold=                    3                    5 -0.79716540022970972      -0.79716540022970972        0.0000000000000000      F
     orbital   3 current e=  0.377066E+00 error=0.355E-05 (eci= -0.797165400E+00 error=0.000E+00) iterations   5(   0 preconditioned, Ep,Sp= 20.0  200.0)
     orb,it,eci,eold,eci-eold=                    4                    1 -0.79653164735550952      -0.79644711894308351       -8.4528412426010391E-005 F
     orb,it,eci,eold,eci-eold=                    4                    2 -0.79654090249799248      -0.79653164735550952       -9.2551424829556694E-006 F
     orb,it,eci,eold,eci-eold=                    4                    3 -0.79657988404486324      -0.79654090249799248       -3.8981546870764383E-005 F
     orb,it,eci,eold,eci-eold=                    4                    4 -0.79661021018905143      -0.79657988404486324       -3.0326144188186355E-005 F
     orb,it,eci,eold,eci-eold=                    4                    5 -0.79661338965707484      -0.79661021018905143       -3.1794680234176198E-006 F
     orb,it,eci,eold,eci-eold=                    4                    6 -0.79661416925637307      -0.79661338965707484       -7.7959929822846163E-007 F
     orb,it,eci,eold,eci-eold=                    4                    7 -0.79664081652797114      -0.79661416925637307       -2.6647271598068123E-005 F
     orb,it,eci,eold,eci-eold=                    4                    8 -0.79665210298285705      -0.79664081652797114       -1.1286454885905961E-005 F
     orb,it,eci,eold,eci-eold=                    4                    9 -0.79665991968201755      -0.79665210298285705       -7.8166991605010949E-006 F
     orb,it,eci,eold,eci-eold=                    4                   10 -0.79666294751593769      -0.79665991968201755       -3.0278339201439408E-006 F
     orb,it,eci,eold,eci-eold=                    4                   11 -0.79666794573798305      -0.79666294751593769       -4.9982220453603787E-006 F
     orb,it,eci,eold,eci-eold=                    4                   12 -0.79667332786220779      -0.79666794573798305       -5.3821242247398260E-006 F
     orb,it,eci,eold,eci-eold=                    4                   13 -0.79667655217978139      -0.79667332786220779       -3.2243175736024199E-006 F
     orb,it,eci,eold,eci-eold=                    4                   14 -0.79668658696944006      -0.79667655217978139       -1.0034789658663890E-005 F
     orb,it,eci,eold,eci-eold=                    4                   15 -0.79668872377671818      -0.79668658696944006       -2.1368072781191572E-006 F
     orb,it,eci,eold,eci-eold=                    4                   16 -0.79668952999093379      -0.79668872377671818       -8.0621421560955753E-007 F
     orb,it,eci,eold,eci-eold=                    4                   17 -0.79669588349246934      -0.79668952999093379       -6.3535015355498103E-006 F
     orb,it,eci,eold,eci-eold=                    4                   18 -0.79669918467153611      -0.79669588349246934       -3.3011790667725194E-006 F
     orb,it,eci,eold,eci-eold=                    4                   19 -0.79670371565093923      -0.79669918467153611       -4.5309794031167527E-006 F
     orb,it,eci,eold,eci-eold=                    4                   20 -0.79670389605259306      -0.79670371565093923       -1.8040165383759188E-007 F
     orb,it,eci,eold,eci-eold=                    4                   21 -0.79670467573381498      -0.79670389605259306       -7.7968122191851563E-007 F
     orb,it,eci,eold,eci-eold=                    4                   22 -0.79670789622101024      -0.79670467573381498       -3.2204871952545844E-006 F
     orb,it,eci,eold,eci-eold=                    4                   23 -0.79670825731510553      -0.79670789622101024       -3.6109409529139214E-007 F
     orb,it,eci,eold,eci-eold=                    4                   24 -0.79670856861400718      -0.79670825731510553       -3.1129890165626506E-007 F
     orb,it,eci,eold,eci-eold=                    4                   25 -0.79671174356452101      -0.79670856861400718       -3.1749505138289891E-006 F
     orb,it,eci,eold,eci-eold=                    4                   26 -0.79671320744929064      -0.79671174356452101       -1.4638847696257784E-006 F
     orb,it,eci,eold,eci-eold=                    4                   27 -0.79671341413397334      -0.79671320744929064       -2.0668468270201856E-007 F
     orb,it,eci,eold,eci-eold=                    4                   28 -0.79671509112421601      -0.79671341413397334       -1.6769902426716499E-006 F
     orb,it,eci,eold,eci-eold=                    4                   29 -0.79671570879269815      -0.79671509112421601       -6.1766848213906655E-007 F
     orb,it,eci,eold,eci-eold=                    4                   30 -0.79671612514223666      -0.79671570879269815       -4.1634953851232837E-007 F
     orb,it,eci,eold,eci-eold=                    4                   31 -0.79671788089634854      -0.79671612514223666       -1.7557541118762288E-006 F
     orb,it,eci,eold,eci-eold=                    4                   32 -0.79671825408878350      -0.79671788089634854       -3.7319243495481658E-007 F
     orb,it,eci,eold,eci-eold=                    4                   33 -0.79671830961368062      -0.79671825408878350       -5.5524897124570316E-008 F
     orb,it,eci,eold,eci-eold=                    4                   34 -0.79671938367836304      -0.79671830961368062       -1.0740646824158873E-006 F
[...]
   16   13   16   16       -0.0002497872
   16   13   17   16        0.0000396460
   16   13   18   16        0.0000213805
   16   13   19   16       -0.0000901097
   16   13   17   17       -0.0034206715
   16   13   18   17        0.0000061415
   16   13   19   17       -0.0944407569
   16   13   18   18       -0.0034961528
   16   13   19   18       -0.0980238554
   16   13   19   19        0.0029970633
   17   13   17   13        0.0112861763
   17   13   18   13        0.0002500347
   17   13   19   13       -0.0000582557
   17   13   14   14        0.0000009296
   17   13   15   14       -0.0003876928
   17   13   16   14       -0.0000674175
   17   13   17   14        0.0005213465
   17   13   18   14       -0.0050767268
   17   13   19   14       -0.0000379023
   17   13   15   15       -0.0000526679
   17   13   16   15       -0.0000217346
   17   13   17   15        0.0002095502
   17   13   18   15        0.0000671068
   17   13   19   15        0.0070596560
   17   13   16   16        0.0000215741
   17   13   17   16       -0.0001686161
   17   13   18   16        0.0000884585
   17   13   19   16       -0.0044572367
   17   13   17   17        0.0000115199
   17   13   18   17        0.0000002015
   17   13   19   17        0.0002792208
   17   13   18   18        0.0000106569
   17   13   19   18        0.0002666968
   17   13   19   19       -0.0000191423
   18   13   18   13        0.0111457635
   18   13   19   13       -0.0000321492
   18   13   14   14        0.0000046714
   18   13   15   14       -0.0000313411
   18   13   16   14       -0.0000113135
   18   13   17   14        0.0049688080
   18   13   18   14        0.0000046338
   18   13   19   14       -0.0000077104
   18   13   15   15        0.0000527095
   18   13   16   15       -0.0000442165
   18   13   17   15       -0.0001172618
   18   13   18   15        0.0001583013
   18   13   19   15        0.0018301888
   18   13   16   16        0.0000295914
   18   13   17   16       -0.0000319642
   18   13   18   16       -0.0002234937
   18   13   19   16       -0.0082174846
   18   13   17   17        0.0000003295
   18   13   18   17        0.0000002159
   18   13   19   17        0.0000141554
   18   13   18   18        0.0000012231
   18   13   19   18        0.0000046558
   18   13   19   19       -0.0000058968
   19   13   19   13        0.0113740596
   19   13   14   14        0.0000005320
   19   13   15   14        0.0001119210
   19   13   16   14        0.0000375608
   19   13   17   14       -0.0000628113
   19   13   18   14        0.0000166917
   19   13   19   14        0.0000040198
   19   13   15   15       -0.0000156458
   19   13   16   15        0.0000598984
   19   13   17   15        0.0015191202
   19   13   18   15        0.0069656724
   19   13   19   15       -0.0001348980
   19   13   16   16       -0.0001982958
   19   13   17   16       -0.0081307239
   19   13   18   16       -0.0044105787
   19   13   19   16        0.0002306877
   19   13   17   17        0.0000078469
   19   13   18   17        0.0000244609
   19   13   19   17       -0.0000688112
   19   13   18   18        0.0000056619
   19   13   19   18       -0.0000737926
   19   13   19   19        0.0000028543
   14   14   14   14        0.3170444863
   14   14   15   14        0.0003065210
   14   14   16   14        0.0002435658
   14   14   17   14        0.0000057980
   14   14   18   14        0.0000009363
   14   14   19   14       -0.0000001803
   14   14   15   15        0.3199921322
   14   14   16   15        0.0121450307
   14   14   17   15        0.0001586325
   14   14   18   15        0.0001075554
   14   14   19   15       -0.0000430441
   14   14   16   16        0.3114939197
   14   14   17   16        0.0000231459
   14   14   18   16       -0.0001403322
   14   14   19   16        0.0000139456
   14   14   17   17        0.2793868342
   14   14   18   17       -0.0003750570
   14   14   19   17       -0.0002697451
   14   14   18   18        0.2794504622
   14   14   19   18       -0.0002936962
   14   14   19   19        0.2819942171
   15   14   15   14        0.1414617764
   15   14   16   14        0.0903649036
   15   14   17   14        0.0005374861
   15   14   18   14        0.0002219950
   15   14   19   14       -0.0001090094
   15   14   15   15        0.0003916379
   15   14   16   15       -0.0000727354
   15   14   17   15       -0.0000818984
   15   14   18   15        0.0000299763
   15   14   19   15        0.0003281744
   15   14   16   16       -0.0002274495
   15   14   17   16       -0.0000149588
   15   14   18   16        0.0000160594
   15   14   19   16        0.0003898360
   15   14   17   17       -0.0035062706
   15   14   18   17       -0.0000239329
   15   14   19   17       -0.0936274872
   15   14   18   18       -0.0035222953
   15   14   19   18       -0.0980570848
   15   14   19   19        0.0028622903
   16   14   16   14        0.0759467746
   16   14   17   14        0.0003532623
   16   14   18   14        0.0000029647
   16   14   19   14       -0.0000306585
   16   14   15   15        0.0002595283
   16   14   16   15       -0.0000587771
   16   14   17   15       -0.0000997666
   16   14   18   15       -0.0000080936
   16   14   19   15        0.0004244731
   16   14   16   16       -0.0001833320
   16   14   17   16        0.0000345240
   16   14   18   16       -0.0000134868
   16   14   19   16        0.0001182967
   16   14   17   17       -0.0023805471
   16   14   18   17       -0.0000225662
   16   14   19   17       -0.0659162624
   16   14   18   18       -0.0024425586
   16   14   19   18       -0.0686939244
   16   14   19   19        0.0020697441
   17   14   17   14        0.0112245309
   17   14   18   14       -0.0002676371
   17   14   19   14        0.0000222321
   17   14   15   15        0.0000457981
   17   14   16   15       -0.0000499532
   17   14   17   15       -0.0002652439
   17   14   18   15        0.0000399491
   17   14   19   15       -0.0039389015
   17   14   16   16        0.0000351752
   17   14   17   16       -0.0000911316
   17   14   18   16       -0.0001165449
   17   14   19   16       -0.0071261294
   17   14   17   17       -0.0000124579
   17   14   18   17       -0.0000000722
   17   14   19   17       -0.0003998205
   17   14   18   18       -0.0000107712
   17   14   19   18       -0.0004101090
   17   14   19   19        0.0000180622
   18   14   18   14        0.0112942472
   18   14   19   14       -0.0000066295
   18   14   15   15        0.0000618656
   18   14   16   15        0.0000134923
   18   14   17   15       -0.0000916794
   18   14   18   15       -0.0002131884
   18   14   19   15       -0.0082764299
   18   14   16   16       -0.0000217563
   18   14   17   16        0.0000597214
   18   14   18   16       -0.0001477099
   18   14   19   16       -0.0018271863
   18   14   17   17       -0.0000047162
   18   14   18   17       -0.0000006729
   18   14   19   17       -0.0001611833
   18   14   18   18       -0.0000042576
   18   14   19   18       -0.0001420833
   18   14   19   19        0.0000162696
   19   14   19   14        0.0113705835
   19   14   15   15       -0.0000233274
   19   14   16   15        0.0001453772
   19   14   17   15       -0.0076294193
   19   14   18   15       -0.0044726387
   19   14   19   15        0.0001639084
   19   14   16   16       -0.0000095800
   19   14   17   16       -0.0015720604
   19   14   18   16       -0.0069751862
   19   14   19   16        0.0001415169
   19   14   17   17       -0.0000597568
   19   14   18   17       -0.0000272945
   19   14   19   17        0.0000588074
   19   14   18   18       -0.0000146635
   19   14   19   18        0.0000573683
   19   14   19   19       -0.0000018410
   15   15   15   15        0.3422450149
   15   15   16   15        0.0000202856
   15   15   17   15        0.0002660424
   15   15   18   15        0.0000681521
   15   15   19   15       -0.0000896552
   15   15   16   16        0.3148073731
   15   15   17   16       -0.0002023159
   15   15   18   16        0.0000148752
   15   15   19   16       -0.0000156293
   15   15   17   17        0.2871723073
   15   15   18   17       -0.0000673331
   15   15   19   17       -0.0003391829
   15   15   18   18        0.2879413051
   15   15   19   18       -0.0004062696
   15   15   19   19        0.2907165024
   16   15   16   15        0.0141059370
   16   15   17   15       -0.0001525497
   16   15   18   15        0.0000926532
   16   15   19   15       -0.0000160447
   16   15   16   16       -0.0000121098
   16   15   17   16        0.0000554137
   16   15   18   16       -0.0003065875
   16   15   19   16        0.0000437438
   16   15   17   17        0.0002181154
   16   15   18   17       -0.0004019736
   16   15   19   17        0.0000602714
   16   15   18   18        0.0001050415
   16   15   19   18        0.0000780832
   16   15   19   19       -0.0000026802
   17   15   17   15        0.0104572842
   17   15   18   15       -0.0000517428
   17   15   19   15        0.0000308499
   17   15   16   16        0.0000887095
   17   15   17   16        0.0001419382
   17   15   18   16        0.0042656164
   17   15   19   16        0.0000158103
   17   15   17   17        0.0000599292
   17   15   18   17        0.0000045399
   17   15   19   17        0.0000922147
   17   15   18   18        0.0000356071
   17   15   19   18        0.0000953532
   17   15   19   19       -0.0000000618
   18   15   18   15        0.0110434176
   18   15   19   15       -0.0000140161
   18   15   16   16       -0.0002104669
   18   15   17   16       -0.0047828912
   18   15   18   16        0.0000690800
   18   15   19   16        0.0000177663
   18   15   17   17        0.0000001294
   18   15   18   17        0.0000154379
   18   15   19   17        0.0000141852
   18   15   18   18        0.0000124718
   18   15   19   18        0.0000092533
   18   15   19   19       -0.0000244573
   19   15   19   15        0.0113498446
   19   15   16   16        0.0000146748
   19   15   17   16        0.0000185322
   19   15   18   16        0.0000149823
   19   15   19   16       -0.0000000446
   19   15   17   17       -0.0000124008
   19   15   18   17        0.0000038266
   19   15   19   17       -0.0003527494
   19   15   18   18       -0.0000179730
   19   15   19   18       -0.0003829011
   19   15   19   19        0.0000009451
   16   16   16   16        0.3428155661
   16   16   17   16        0.0003704225
   16   16   18   16        0.0001373482
   16   16   19   16       -0.0000313278
   16   16   17   17        0.2888618709
   16   16   18   17        0.0000531607
   16   16   19   17        0.0000628396
   16   16   18   18        0.2880736842
   16   16   19   18        0.0001096785
   16   16   19   19        0.2908839001
   17   16   17   16        0.0114342655
   17   16   18   16        0.0000246656
   17   16   19   16       -0.0000337660
   17   16   17   17       -0.0000110913
   17   16   18   17       -0.0000181928
   17   16   19   17       -0.0000181353
   17   16   18   18       -0.0000333070
   17   16   19   18       -0.0000155798
   17   16   19   19       -0.0000371603
   18   16   18   16        0.0110047696
   18   16   19   16        0.0000151679
   18   16   17   17        0.0000391163
   18   16   18   17        0.0000099152
   18   16   19   17       -0.0000042815
   18   16   18   18        0.0000089972
   18   16   19   18       -0.0000025461
   18   16   19   19       -0.0000072063
   19   16   19   16        0.0113590494
   19   16   17   17       -0.0000013457
   19   16   18   17       -0.0000000894
   19   16   19   17       -0.0001621084
   19   16   18   18       -0.0000007552
   19   16   19   18       -0.0001724242
   19   16   19   19        0.0000105533
   17   17   17   17        0.2937633442
   17   17   18   17       -0.0000074210
   17   17   19   17        0.0031395224
   17   17   18   18        0.2816290712
   17   17   19   18        0.0030469207
   17   17   19   19        0.2895977561
   18   17   18   17        0.0060909874
   18   17   19   17        0.0001207658
   18   17   18   18       -0.0000073922
   18   17   19   18        0.0001167448
   18   17   19   19        0.0061326676
   19   17   19   17        0.0903673153
   19   17   18   18        0.0029617560
   19   17   19   18        0.0878033527
   19   17   19   19       -0.0028053035
   18   18   18   18        0.2936699733
   18   18   19   18        0.0033076521
   18   18   19   19        0.2900859285
   19   18   19   18        0.0977043099
   19   18   19   19       -0.0029293619
   19   19   19   19        0.2987313968
 end_two_electron_integrals


 output epsi filename:./pspw_hf_H2.emovecs

 Total PSPW energy     :  -0.7950113755E+00


=== Spin Contamination ===

 <Sexact^2> =    0.0000000000000000     
 <S^2>      =    0.0000000000000000     



== Center of Charge ==

spin up     (    0.0000,    0.0000,    0.0081 )
spin down   (    0.0000,    0.0000,    0.0081 )
     total  (    0.0000,    0.0000,    0.0081 )
ionic       (    0.0000,    0.0000,    0.0000 )


== Molecular Dipole wrt Center of Mass ==

mu   =  (   -0.0000,   -0.0000,   -0.0163 ) au
|mu| =     0.0163 au,       0.0414 Debye

 output psi filename:./pspw_hf_H2.movecs

 Writing Crystallographic Information File:./H2.cif
   - cell not shifted (nwpw:cif_shift_cell .false.)


== Timing ==

cputime in seconds
  prologue    :   0.615294E+01
  main loop   :   0.530050E+03
  epilogue    :   0.161142E-01
  total       :   0.536219E+03
  cputime/step:   0.346438E+01       (     153 evalulations,      64 linesearches)


Time spent doing                        total          step       percent
  total time                 :   0.536234E+03  0.350480E+01       100.0 %
  i/o time                   :   0.417887E+00  0.273129E-02         0.1 %
  FFTs                       :   0.369035E+03  0.241200E+01        68.8 %
  dot products               :   0.267796E+02  0.175030E+00         5.0 %
  geodesic                   :   0.637973E-01  0.416976E-03         0.0 %
  ffm_dgemm                  :   0.990041E-02  0.647086E-04         0.0 %
  fmf_dgemm                  :   0.701402E-02  0.458433E-04         0.0 %
  mmm_dgemm                  :   0.256910E-02  0.167915E-04         0.0 %
  m_diagonalize              :   0.128801E-02  0.841837E-05         0.0 %
  local pseudopotentials     :   0.745343E+01  0.487152E-01         1.4 %
  non-local pseudopotentials :   0.254594E+02  0.166401E+00         4.7 %
  structure factors          :   0.755743E+00  0.493949E-02         0.1 %
  phase factors              :   0.575400E-05  0.376078E-07         0.0 %
  masking and packing        :   0.151284E+02  0.988787E-01         2.8 %
  queue fft                  :   0.112972E+02  0.738377E-01         2.1 %
  queue fft (serial)         :   0.370855E+01  0.242389E-01         0.7 %
  queue fft (message passing):   0.754253E+01  0.492976E-01         1.4 %
  HFX potential              :   0.415934E+01  0.271852E-01         0.8 %
  non-local psp FFM          :   0.248702E+02  0.162550E+00         4.6 %
  non-local psp FMF          :   0.125359E+00  0.819341E-03         0.0 %
  non-local psp FFM A        :   0.545635E-01  0.356624E-03         0.0 %
  non-local psp FFM B        :   0.178069E+00  0.116385E-02         0.0 %

== HFX Counters ==
  HFX Evalulations         =   153
  Lin ACE HFX Evalulations =     0


     >>>  JOB COMPLETED     AT Sun Apr  6 15:54:58 2025  <<<

 Task  times  cpu:      502.8s     wall:      536.3s


                                NWChem Input Module
                                -------------------


 Summary of allocated global arrays
-----------------------------------
  No active global arrays


MA_summarize_allocated_blocks: starting scan ...
MA_summarize_allocated_blocks: scan completed: 0 heap blocks, 0 stack blocks
MA usage statistics:

	allocation statistics:
					      heap	     stack
					      ----	     -----
	current number of blocks	         0	         0
	maximum number of blocks	       313	        36
	current total bytes		         0	         0
	maximum total bytes		  16802656	   5334792
	maximum total K-bytes		     16803	      5335
	maximum total M-bytes		        17	         6


                                     CITATION
                                     --------
                Please cite the following reference when publishing
                           results obtained with NWChem:

          E. Apra, E. J. Bylaska, W. A. de Jong, N. Govind, K. Kowalski,
       T. P. Straatsma, M. Valiev, H. J. J. van Dam, Y. Alexeev, J. Anchell,
       V. Anisimov, F. W. Aquino, R. Atta-Fynn, J. Autschbach, N. P. Bauman,
     J. C. Becca, D. E. Bernholdt, K. Bhaskaran-Nair, S. Bogatko, P. Borowski,
         J. Boschen, J. Brabec, A. Bruner, E. Cauet, Y. Chen, G. N. Chuev,
      C. J. Cramer, J. Daily, M. J. O. Deegan, T. H. Dunning Jr., M. Dupuis,
   K. G. Dyall, G. I. Fann, S. A. Fischer, A. Fonari, H. Fruchtl, L. Gagliardi,
      J. Garza, N. Gawande, S. Ghosh, K. Glaesemann, A. W. Gotz, J. Hammond,
       V. Helms, E. D. Hermes, K. Hirao, S. Hirata, M. Jacquelin, L. Jensen,
   B. G. Johnson, H. Jonsson, R. A. Kendall, M. Klemm, R. Kobayashi, V. Konkov,
      S. Krishnamoorthy, M. Krishnan, Z. Lin, R. D. Lins, R. J. Littlefield,
      A. J. Logsdail, K. Lopata, W. Ma, A. V. Marenich, J. Martin del Campo,
   D. Mejia-Rodriguez, J. E. Moore, J. M. Mullin, T. Nakajima, D. R. Nascimento,
    J. A. Nichols, P. J. Nichols, J. Nieplocha, A. Otero-de-la-Roza, B. Palmer,
    A. Panyala, T. Pirojsirikul, B. Peng, R. Peverati, J. Pittner, L. Pollack,
   R. M. Richard, P. Sadayappan, G. C. Schatz, W. A. Shelton, D. W. Silverstein,
   D. M. A. Smith, T. A. Soares, D. Song, M. Swart, H. L. Taylor, G. S. Thomas,
            V. Tipparaju, D. G. Truhlar, K. Tsemekhman, T. Van Voorhis,
      A. Vazquez-Mayagoitia, P. Verma, O. Villa, A. Vishnu, K. D. Vogiatzis,
        D. Wang, J. H. Weare, M. J. Williamson, T. L. Windus, K. Wolinski,
        A. T. Wong, Q. Wu, C. Yang, Q. Yu, M. Zacharias, Z. Zhang, Y. Zhao,
                                and R. J. Harrison
                        "NWChem: Past, present, and future
                         J. Chem. Phys. 152, 184102 (2020)
                               doi:10.1063/5.0004997

                                      AUTHORS
                                      -------
  E. Apra, E. J. Bylaska, N. Govind, K. Kowalski, M. Valiev, D. Mejia-Rodriguez,
       A. Kunitsa, N. P. Bauman, A. Panyala, W. A. de Jong, T. P. Straatsma,
   H. J. J. van Dam, D. Wang, T. L. Windus, J. Hammond, J. Autschbach, A. Woods,
    K. Bhaskaran-Nair, J. Brabec, K. Lopata, S. A. Fischer, S. Krishnamoorthy,
     M. Jacquelin, W. Ma, M. Klemm, O. Villa, Y. Chen, V. Anisimov, F. Aquino,
     S. Hirata, M. T. Hackler, E. Hermes, L. Jensen, J. E. Moore, J. C. Becca,
      V. Konjkov, T. Risthaus, M. Malagoli, A. Marenich, A. Otero-de-la-Roza,
        J. Mullin, P. Nichols, R. Peverati, J. Pittner, Y. Zhao, P.-D. Fan,
        A. Fonari, M. J. Williamson, R. J. Harrison, J. R. Rehr, M. Dupuis,
     D. Silverstein, D. M. A. Smith, J. Nieplocha, V. Tipparaju, M. Krishnan,
     B. E. Van Kuiken, A. Vazquez-Mayagoitia, M. Swart, Q. Wu, T. Van Voorhis,
     A. A. Auer, M. Nooijen, L. D. Crosby, E. Brown, G. Cisneros, G. I. Fann,
   H. Fruchtl, J. Garza, K. Hirao, R. A. Kendall, J. A. Nichols, K. Tsemekhman,
    K. Wolinski, J. Anchell, D. E. Bernholdt, P. Borowski, T. Clark, D. Clerc,
   H. Dachsel, M. J. O. Deegan, K. Dyall, D. Elwood, E. Glendening, M. Gutowski,
   A. C. Hess, J. Jaffe, B. G. Johnson, J. Ju, R. Kobayashi, R. Kutteh, Z. Lin,
   R. Littlefield, X. Long, B. Meng, T. Nakajima, S. Niu, L. Pollack, M. Rosing,
   K. Glaesemann, G. Sandrone, M. Stave, H. Taylor, G. Thomas, J. H. van Lenthe,
                               A. T. Wong, Z. Zhang.

 Total times  cpu:      502.8s     wall:      536.4s
