 argument  1 = H2-5.0.nw



============================== echo of input deck ==============================
title "swnc: e theory=pspw4 xc=hf formula=H2 charge=0 mult=1"
#machinejob:expert

echo

start pspw_hf_H2

memory heap 1200 mb stack 1200 mb global 10 mb

charge 0

geometry
H    0.00000    0.00000   -2.50000
H    0.00000    0.00000    2.50000
end

nwpw
  ### pseudopotential block begin ###
  ### pseudopotential block end   ###
  simulation_cell
     SC 25.0000
     boundary_conditions aperiodic
  end

  cutoff 50.0
  mult 1
  xc hf
  lmbfgs
  tolerances 1.0e-9 1.0e-9

  virtual 18
end
set nwpw:cif_filename H2

#set nwpw:CI_maxit_orb 15
#set nwpw:CI_maxit_linesearch 15
set pspw:HFX_screening_radius 14.0


set nwpw:2qintegrals .true.
set nwpw:3x3_virtual .true.

task pspw energy
================================================================================


                                         
                                         


             Northwest Computational Chemistry Package (NWChem) 7.2.3
             --------------------------------------------------------


                    Environmental Molecular Sciences Laboratory
                       Pacific Northwest National Laboratory
                                Richland, WA 99352

                              Copyright (c) 1994-2022
                       Pacific Northwest National Laboratory
                            Battelle Memorial Institute

             NWChem is an open-source computational chemistry package
                        distributed under the terms of the
                      Educational Community License (ECL) 2.0
             A copy of the license is included with this distribution
                              in the LICENSE.TXT file

                                  ACKNOWLEDGMENT
                                  --------------

            This software and its documentation were developed at the
            EMSL at Pacific Northwest National Laboratory, a multiprogram
            national laboratory, operated for the U.S. Department of Energy
            by Battelle under Contract Number DE-AC05-76RL01830. Support
            for this work was provided by the Department of Energy Office
            of Biological and Environmental Research, Office of Basic
            Energy Sciences, and the Office of Advanced Scientific Computing.


           Job information
           ---------------

    hostname        = mqs-al
    program         = nwchem
    date            = Tue Apr 22 10:08:59 2025

    compiled        = Thu_Oct_31_08:55:15_2024
    source          = /home/conda/feedstock_root/build_artifacts/nwchem_1730356057992/work
    nwchem branch   = 7.2.3
    nwchem revision = c400b04
    ga revision     = 5.8.0
    use scalapack   = T
    input           = H2-5.0.nw
    prefix          = pspw_hf_H2.
    data base       = ./pspw_hf_H2.db
    status          = startup
    nproc           =       24
    time left       =     -1s



           Memory information
           ------------------

    heap     =  157286398 doubles =   1200.0 Mbytes
    stack    =  157286395 doubles =   1200.0 Mbytes
    global   =    1310720 doubles =     10.0 Mbytes (distinct from heap & stack)
    total    =  315883513 doubles =   2410.0 Mbytes
    verify   = yes
    hardfail = no 


           Directory information
           ---------------------

  0 permanent = .
  0 scratch   = .




                                NWChem Input Module
                                -------------------


               swnc: e theory=pspw4 xc=hf formula=H2 charge=0 mult=1
               -----------------------------------------------------

 Scaling coordinates for geometry "geometry" by  1.889725989
 (inverse scale =  0.529177249)

  zeroes
  zeroes
  zeroes
  zeroes
  zeroes
  zeroes
  zeroes
  zeroes
  zeroes
  zeroes
  zeroes
  zeroes
  zeroes
  zeroes
  zeroes
  zeroes
  zeroes
  zeroes
  zeroes
  zeroes
  zeroes
  zeroes
  zeroes
  zeroes
  zeroes
  zeroes
  zeroes
  zeroes
  zeroes
  zeroes
  zeroes
  zeroes
  zeroes
  zeroes
  zeroes
  zeroes
  zeroes
  zeroes
  zeroes
  zeroes
  zeroes
  zeroes
  zeroes
  zeroes
  zeroes
  zeroes
  zeroes
  zeroes
 ORDER OF PRIMARY AXIS IS BEING SET TO 4
 D4H symmetry detected

          ------
          auto-z
          ------
     1 autoz failed with cvr_scaling = 1.2 changing to 1.3
     2 autoz failed with cvr_scaling = 1.3 changing to 1.4
     3 autoz failed with cvr_scaling = 1.4 changing to 1.5
     4 autoz failed with cvr_scaling = 1.5 changing to 1.6
     5 autoz failed with cvr_scaling = 1.6 changing to 1.7

 AUTOZ failed to generate good internal coordinates.
 Cartesian coordinates will be used in optimizations.



                             Geometry "geometry" -> ""
                             -------------------------

 Output coordinates in angstroms (scale by  1.889725989 to convert to a.u.)

  No.       Tag          Charge          X              Y              Z
 ---- ---------------- ---------- -------------- -------------- --------------
    1 H                    1.0000     0.00000000     0.00000000    -2.50000000
    2 H                    1.0000     0.00000000     0.00000000     2.50000000

      Atomic Mass 
      ----------- 

      H                  1.007825


 Effective nuclear repulsion energy (a.u.)       0.1058354498

            Nuclear Dipole moment (a.u.) 
            ----------------------------
        X                 Y               Z
 ---------------- ---------------- ----------------
     0.0000000000     0.0000000000     0.0000000000

      Symmetry information
      --------------------

 Group name             D4h       
 Group number             28
 Group order              16
 No. of unique centers     1

      Symmetry unique atoms

     1


            XYZ format geometry
            -------------------
     2
 geometry
 H                     0.00000000     0.00000000    -2.50000000
 H                     0.00000000     0.00000000     2.50000000

          ****************************************************
          *                                                  *
          *               NWPW PSPW Calculation              *
          *                                                  *
          * [ (Grassmann/Stiefel manifold implementation)  ] *
          *                                                  *
          *      [ NorthWest Chemistry implementation ]      *
          *                                                  *
          *            version #5.10   06/12/02              *
          *                                                  *
          *    This code was developed by Eric J. Bylaska,   *
          *    and was based upon algorithms and code        *
          *    developed by the group of Prof. John H. Weare *
          *                                                  *
          ****************************************************
     >>>  JOB STARTED       AT Tue Apr 22 10:08:59 2025  <<<
          ================ input data ========================
 pseudopotential is not correctly formatted:H.vpp                                             

 Generated formatted_filename: ./H.vpp
 Error reading psi - bad grid
 nfft :                   96                   96                   96
 ngrid:                  120                  120                  120
 Error reading psi - bad unitcell
  - Ignored if the following  parameter is set
  - set nwpw:psi_nolattice .true.
 Error reading psi - bad grid
 nfft :                   96                   96                   96
 ngrid:                  120                  120                  120
 Error reading psi - bad unitcell
  - Ignored if the following  parameter is set
  - set nwpw:psi_nolattice .true.
 Error reading psi - bad grid
 Error reading psi - bad unitcell
  - Ignored if the following  parameter is set
  - set nwpw:psi_nolattice .true.

 Grid is being converted:
 ------------------------

 To turn off automatic grid conversion:

 set nwpw:psi_nogrid .false.

 old_filename: pspw_hf_H2.movecs                                 
 new_filename: pspw_hf_H2.movecs                                 
 converting  :  96x 96x 96 --> 120x120x120
converting .... psi:    1 spin: 1

 input psi filename:./pspw_hf_H2.movecs

 number of processors used:        24
 processor grid           :  24 x   1
 parallel mapping         :2d-hilbert
 parallel mapping         :  balanced
 number of threads        :         1
 parallel io              :       off

 options:
      boundary conditions  = aperiodic   (version4)
      electron spin        = restricted
      exchange-correlation = Hartree-Fock
      - HFX relaxed
      - HFX restricted orbitals :    1
      - HFX free-space coulomb solver


 elements involved in the cluster:
      1: H   valence charge:  1.0000  lmax=  1
             comment    : Parameterized (Chem.Phys.Lett., vol 322, page 447) Hamman psp
             pseudpotential type            :   0
             highest angular component      :   1
             local potential used           :   1
             number of non-local projections:   1
             aperiodic cutoff radius        :  1.000
             cutoff =   0.800   0.800


 total charge:   0.000

 atomic composition:
     H   :    2

 number of electrons: spin up=     1 (   1 per task)  down=     1 (   1 per task) (Fourier space)
 number of orbitals : spin up=     1 (   1 per task)  down=     1 (   1 per task) (Fourier space)

 supercell:
      cell_name:  cell_default                                      
      lattice:    a1=<  25.000   0.000   0.000 >
                  a2=<   0.000  25.000   0.000 >
                  a3=<   0.000   0.000  25.000 >
      reciprocal: b1=<   0.251   0.000   0.000 >
                  b2=<   0.000   0.251   0.000 >
                  b3=<   0.000   0.000   0.251 >
      lattice:    a=      25.000 b=     25.000 c=      25.000
                  alpha=  90.000 beta=  90.000 gamma=  90.000
                  omega=     15625.0

      density cutoff=100.000  fft=120x120x120(   373215 waves    15550 per task)
      wavefnc cutoff= 50.000  fft=120x120x120(   131894 waves     5495 per task)

 technical parameters:
      time step=      5.80     fictitious mass=  400000.0
      tolerance=0.100E-08 (energy)   0.100E-08 (density)
      maximum iterations =      1000 (   10 inner    100 outer )





== Energy Calculation ==


          ============ Grassmann lmbfgs iteration ============
     >>>  ITERATION STARTED AT Tue Apr 22 10:09:09 2025  <<<
    iter.           Energy         DeltaE       DeltaRho 
    ------------------------------------------------------
      10   -0.7092004138E+00   -0.17035E-01    0.49646E-01
     -  10 steepest descent iterations performed
      20   -0.7654865097E+00   -0.10113E-02    0.35390E-03
      30   -0.7711238512E+00   -0.73915E-04    0.11377E-03
      40   -0.7713361104E+00   -0.58056E-05    0.48769E-06
      50   -0.7713541246E+00   -0.40314E-06    0.26365E-06
      60   -0.7713552789E+00   -0.28251E-07    0.13241E-08
      70   -0.7713553651E+00   -0.16683E-08    0.11178E-09
      80   -0.7713553673E+00   -0.94816E-09    0.19140E-11
  *** tolerance ok. iteration terminated
     >>>  ITERATION ENDED   AT Tue Apr 22 10:10:05 2025  <<<


==  Summary Of Results  ==

 number of electrons: spin up=    1.00000  down=    1.00000 (real space)

 total     energy    :  -0.7713553673E+00 (   -0.38568E+00/ion)
 total orbital energy:  -0.5712139909E+00 (   -0.57121E+00/electron)
 hartree   energy    :   0.6119536523E+00 (    0.61195E+00/electron)
 exc-corr  energy    :   0.0000000000E+00 (    0.00000E+00/electron)
 HF exchange energy  :  -0.3059768262E+00 (   -0.30598E+00/electron)
 ion-ion   energy    :   0.1058354498E+00 (    0.52918E-01/ion)

 kinetic (planewave) :   0.6656574951E+00 (    0.66566E+00/electron)
 V_local (planewave) :  -0.1695330427E+01 (   -0.16953E+01/electron)
 V_nl    (planewave) :  -0.1534947114E+00 (   -0.15349E+00/electron)
 V_Coul  (planewave) :   0.1223907305E+01 (    0.12239E+01/electron)
 V_xc.   (planewave) :   0.0000000000E+00 (    0.00000E+00/electron)
 K.S. HFX energy     :  -0.6119536523E+00 (   -0.61195E+00/electron)
 Virial Coefficient  :  -0.9387978628E+00

 orbital energies:
    -0.2856070E+00 (  -7.772eV)


== Virtual Orbital Calculation ==

 Error reading psi - bad grid
 Error reading psi - bad unitcell
  - Ignored if the following  parameter is set
  - set nwpw:psi_nolattice .true.
 Error reading psi - bad grid
 Error reading psi - bad unitcell
  - Ignored if the following  parameter is set
  - set nwpw:psi_nolattice .true.
 Error reading psi - bad grid
 Error reading psi - bad unitcell
  - Ignored if the following  parameter is set
  - set nwpw:psi_nolattice .true.

 Grid is being converted:
 ------------------------

 To turn off automatic grid conversion:

 set nwpw:psi_nogrid .false.

 old_filename: pspw_hf_H2.emovecs                                
 new_filename: pspw_hf_H2.emovecs                                
 converting  :  96x 96x 96 --> 120x120x120
converting .... psi:    1 spin: 1
converting .... psi:    2 spin: 1
converting .... psi:    3 spin: 1
converting .... psi:    4 spin: 1
converting .... psi:    5 spin: 1
converting .... psi:    6 spin: 1
converting .... psi:    7 spin: 1
converting .... psi:    8 spin: 1
converting .... psi:    9 spin: 1
converting .... psi:   10 spin: 1
converting .... psi:   11 spin: 1
converting .... psi:   12 spin: 1
converting .... psi:   13 spin: 1
converting .... psi:   14 spin: 1
converting .... psi:   15 spin: 1
converting .... psi:   16 spin: 1
converting .... psi:   17 spin: 1
converting .... psi:   18 spin: 1

 input epsi filename:./pspw_hf_H2.emovecs

 COVOs Mimimization
 ------------------
CI gradient algorithm =         3
maxit_sweeps          =         3
maxit_orb             =       120
maxit_linesearch      =        15
maxerror              = 0.100E-08

     orb,it,eci,eold,eci-eold=                    1                    1 -0.79319267126277659      -0.77651662175030900       -1.6676049512467594E-002 F
     orb,it,eci,eold,eci-eold=                    1                    2 -0.81416609571813048      -0.79319267126277659       -2.0973424455353884E-002 F
     orb,it,eci,eold,eci-eold=                    1                    3 -0.82289751570726721      -0.81416609571813048       -8.7314199891367350E-003 F
     orb,it,eci,eold,eci-eold=                    1                    4 -0.84614640789528595      -0.82289751570726721       -2.3248892188018733E-002 F
     orb,it,eci,eold,eci-eold=                    1                    5 -0.85604837158788727      -0.84614640789528595       -9.9019636926013233E-003 F
     orb,it,eci,eold,eci-eold=                    1                    6 -0.86610010606426346      -0.85604837158788727       -1.0051734476376195E-002 F
     orb,it,eci,eold,eci-eold=                    1                    7 -0.87100237450177409      -0.86610010606426346       -4.9022684375106262E-003 F
     orb,it,eci,eold,eci-eold=                    1                    8 -0.88448711528272650      -0.87100237450177409       -1.3484740780952409E-002 F
     orb,it,eci,eold,eci-eold=                    1                    9 -0.88637122496694976      -0.88448711528272650       -1.8841096842232563E-003 F
     orb,it,eci,eold,eci-eold=                    1                   10 -0.91076860377553104      -0.88637122496694976       -2.4397378808581283E-002 F
     orb,it,eci,eold,eci-eold=                    1                   11 -0.91427884822400896      -0.91076860377553104       -3.5102444484779172E-003 F
     orb,it,eci,eold,eci-eold=                    1                   12 -0.91847841414660569      -0.91427884822400896       -4.1995659225967374E-003 F
     orb,it,eci,eold,eci-eold=                    1                   13 -0.95807500190169292      -0.91847841414660569       -3.9596587755087231E-002 F
     orb,it,eci,eold,eci-eold=                    1                   14 -0.96219025692986182      -0.95807500190169292       -4.1152550281688960E-003 F
     orb,it,eci,eold,eci-eold=                    1                   15 -0.96302031159765389      -0.96219025692986182       -8.3005466779206838E-004 F
     orb,it,eci,eold,eci-eold=                    1                   16 -0.96431409261831735      -0.96302031159765389       -1.2937810206634648E-003 F
     orb,it,eci,eold,eci-eold=                    1                   17 -0.96641853884505091      -0.96431409261831735       -2.1044462267335584E-003 F
     orb,it,eci,eold,eci-eold=                    1                   18 -0.96644602716779260      -0.96641853884505091       -2.7488322741686666E-005 F
     orb,it,eci,eold,eci-eold=                    1                   19 -0.96695024539107810      -0.96644602716779260       -5.0421822328550192E-004 F
     orb,it,eci,eold,eci-eold=                    1                   20 -0.96888121003638628      -0.96695024539107810       -1.9309646453081752E-003 F
     orb,it,eci,eold,eci-eold=                    1                   21 -0.96983979460308323      -0.96888121003638628       -9.5858456669695169E-004 F
     orb,it,eci,eold,eci-eold=                    1                   22 -0.97385821778095882      -0.96983979460308323       -4.0184231778755963E-003 F
     orb,it,eci,eold,eci-eold=                    1                   23 -0.97504600836707989      -0.97385821778095882       -1.1877905861210625E-003 F
     orb,it,eci,eold,eci-eold=                    1                   24 -0.97544619511229347      -0.97504600836707989       -4.0018674521358211E-004 F
     orb,it,eci,eold,eci-eold=                    1                   25 -0.97769464236082915      -0.97544619511229347       -2.2484472485356788E-003 F
     orb,it,eci,eold,eci-eold=                    1                   26 -0.97771523036722785      -0.97769464236082915       -2.0588006398702952E-005 F
     orb,it,eci,eold,eci-eold=                    1                   27 -0.97776436312175119      -0.97771523036722785       -4.9132754523339983E-005 F
     orb,it,eci,eold,eci-eold=                    1                   28 -0.97804779817606524      -0.97776436312175119       -2.8343505431405180E-004 F
     orb,it,eci,eold,eci-eold=                    1                   29 -0.97817744457591183      -0.97804779817606524       -1.2964639984658355E-004 F
     orb,it,eci,eold,eci-eold=                    1                   30 -0.97826910584615456      -0.97817744457591183       -9.1661270242737736E-005 F
     orb,it,eci,eold,eci-eold=                    1                   31 -0.97830722891493882      -0.97826910584615456       -3.8123068784257086E-005 F
     orb,it,eci,eold,eci-eold=                    1                   32 -0.97833034363956140      -0.97830722891493882       -2.3114724622574911E-005 F
     orb,it,eci,eold,eci-eold=                    1                   33 -0.97835715391022893      -0.97833034363956140       -2.6810270667532166E-005 F
     orb,it,eci,eold,eci-eold=                    1                   34 -0.97836471368799682      -0.97835715391022893       -7.5597777678959588E-006 F
     orb,it,eci,eold,eci-eold=                    1                   35 -0.97838582708310007      -0.97836471368799682       -2.1113395103244947E-005 F
     orb,it,eci,eold,eci-eold=                    1                   36 -0.97840499471865949      -0.97838582708310007       -1.9167635559425023E-005 F
     orb,it,eci,eold,eci-eold=                    1                   37 -0.97841625664582399      -0.97840499471865949       -1.1261927164496477E-005 F
     orb,it,eci,eold,eci-eold=                    1                   38 -0.97842687984697552      -0.97841625664582399       -1.0623201151527262E-005 F
     orb,it,eci,eold,eci-eold=                    1                   39 -0.97843133275028504      -0.97842687984697552       -4.4529033095264126E-006 F
     orb,it,eci,eold,eci-eold=                    1                   40 -0.97843920046283794      -0.97843133275028504       -7.8677125529003078E-006 F
     orb,it,eci,eold,eci-eold=                    1                   41 -0.97844055156304388      -0.97843920046283794       -1.3511002059374277E-006 F
     orb,it,eci,eold,eci-eold=                    1                   42 -0.97844286888807364      -0.97844055156304388       -2.3173250297547909E-006 F
     orb,it,eci,eold,eci-eold=                    1                   43 -0.97844778970813662      -0.97844286888807364       -4.9208200629813348E-006 F
     orb,it,eci,eold,eci-eold=                    1                   44 -0.97844971642081435      -0.97844778970813662       -1.9267126777355870E-006 F
     orb,it,eci,eold,eci-eold=                    1                   45 -0.97845142510522742      -0.97844971642081435       -1.7086844130709267E-006 F
     orb,it,eci,eold,eci-eold=                    1                   46 -0.97845287658618119      -0.97845142510522742       -1.4514809537624629E-006 F
     orb,it,eci,eold,eci-eold=                    1                   47 -0.97845403292463007      -0.97845287658618119       -1.1563384488821882E-006 F
     orb,it,eci,eold,eci-eold=                    1                   48 -0.97845716068687483      -0.97845403292463007       -3.1277622447589692E-006 F
     orb,it,eci,eold,eci-eold=                    1                   49 -0.97845839661962386      -0.97845716068687483       -1.2359327490329974E-006 F
     orb,it,eci,eold,eci-eold=                    1                   50 -0.97845868977798134      -0.97845839661962386       -2.9315835747834029E-007 F
     orb,it,eci,eold,eci-eold=                    1                   51 -0.97845884461742338      -0.97845868977798134       -1.5483944204586209E-007 F
     orb,it,eci,eold,eci-eold=                    1                   52 -0.97845968365505320      -0.97845884461742338       -8.3903762981840657E-007 F
     orb,it,eci,eold,eci-eold=                    1                   53 -0.97845990187146881      -0.97845968365505320       -2.1821641560393346E-007 F
     orb,it,eci,eold,eci-eold=                    1                   54 -0.97845997648713756      -0.97845990187146881       -7.4615668754773878E-008 F
     orb,it,eci,eold,eci-eold=                    1                   55 -0.97846052200636813      -0.97845997648713756       -5.4551923056589402E-007 F
     orb,it,eci,eold,eci-eold=                    1                   56 -0.97846071077285179      -0.97846052200636813       -1.8876648366639159E-007 F
     orb,it,eci,eold,eci-eold=                    1                   57 -0.97846076620598055      -0.97846071077285179       -5.5433128753890060E-008 F
     orb,it,eci,eold,eci-eold=                    1                   58 -0.97846106659190513      -0.97846076620598055       -3.0038592457870550E-007 F
     orb,it,eci,eold,eci-eold=                    1                   59 -0.97846117417363798      -0.97846106659190513       -1.0758173285552175E-007 F
     orb,it,eci,eold,eci-eold=                    1                   60 -0.97846124417122893      -0.97846117417363798       -6.9997590945725108E-008 F
     orb,it,eci,eold,eci-eold=                    1                   61 -0.97846145379793337      -0.97846124417122893       -2.0962670443935849E-007 F
     orb,it,eci,eold,eci-eold=                    1                   62 -0.97846148765721741      -0.97846145379793337       -3.3859284043202820E-008 F
     orb,it,eci,eold,eci-eold=                    1                   63 -0.97846152557872768      -0.97846148765721741       -3.7921510265270797E-008 F
     orb,it,eci,eold,eci-eold=                    1                   64 -0.97846170427285117      -0.97846152557872768       -1.7869412349824643E-007 F
     orb,it,eci,eold,eci-eold=                    1                   65 -0.97846172239529494      -0.97846170427285117       -1.8122443767865093E-008 F
     orb,it,eci,eold,eci-eold=                    1                   66 -0.97846173526163804      -0.97846172239529494       -1.2866343102047040E-008 F
     orb,it,eci,eold,eci-eold=                    1                   67 -0.97846190942919420      -0.97846173526163804       -1.7416755615506929E-007 F
     orb,it,eci,eold,eci-eold=                    1                   68 -0.97846199511912679      -0.97846190942919420       -8.5689932594057439E-008 F
     orb,it,eci,eold,eci-eold=                    1                   69 -0.97846202130961935      -0.97846199511912679       -2.6190492552480293E-008 F
     orb,it,eci,eold,eci-eold=                    1                   70 -0.97846202497436929      -0.97846202130961935       -3.6647499479514067E-009 F
     orb,it,eci,eold,eci-eold=                    1                   71 -0.97846206889901666      -0.97846202497436929       -4.3924647363802194E-008 F
     orb,it,eci,eold,eci-eold=                    1                   72 -0.97846208224455078      -0.97846206889901666       -1.3345534122244374E-008 F
     orb,it,eci,eold,eci-eold=                    1                   73 -0.97846208622438269      -0.97846208224455078       -3.9798319084738409E-009 F
     orb,it,eci,eold,eci-eold=                    1                   74 -0.97846211921239101      -0.97846208622438269       -3.2988008324963403E-008 F
     orb,it,eci,eold,eci-eold=                    1                   75 -0.97846212724332293      -0.97846211921239101       -8.0309319194782347E-009 F
     orb,it,eci,eold,eci-eold=                    1                   76 -0.97846212779965880      -0.97846212724332293       -5.5633586626413489E-010 F
     orbital   1 current e= -0.168634E+00 error=0.337E+00 (eci= -0.978462128E+00 error=0.556E-09) iterations  76(   0 preconditioned, Ep,Sp= 20.0  200.0)
     orb,it,eci,eold,eci-eold=                    1                    1 -0.97846213594781384      -0.97846212779965880       -8.1481550395778868E-009 F
     orb,it,eci,eold,eci-eold=                    1                    2 -0.97846213632378232      -0.97846213594781384       -3.7596847857201965E-010 F
     orbital   1 current e= -0.168634E+00 error=0.487E-08 (eci= -0.978462136E+00 error=0.376E-09) iterations   2(   0 preconditioned, Ep,Sp= 20.0  200.0)
     orb,it,eci,eold,eci-eold=                    1                    1 -0.97846220616895374      -0.97846213632378232       -6.9845171424276487E-008 F
     orb,it,eci,eold,eci-eold=                    1                    2 -0.97846220616895374      -0.97846220616895374        0.0000000000000000      F
     orbital   1 current e= -0.168635E+00 error=0.100E-06 (eci= -0.978462206E+00 error=0.000E+00) iterations   2(   0 preconditioned, Ep,Sp= 20.0  200.0)
     orb,it,eci,eold,eci-eold=                    2                    1 -0.77217401199605706      -0.77147928018323297       -6.9473181282408980E-004 F
     orb,it,eci,eold,eci-eold=                    2                    2 -0.77323363241613918      -0.77217401199605706       -1.0596204200821191E-003 F
     orb,it,eci,eold,eci-eold=                    2                    3 -0.77328383475182239      -0.77323363241613918       -5.0202335683202648E-005 F
     orb,it,eci,eold,eci-eold=                    2                    4 -0.77392091462614820      -0.77328383475182239       -6.3707987432581881E-004 F
     orb,it,eci,eold,eci-eold=                    2                    5 -0.77417805285436658      -0.77392091462614820       -2.5713822821837873E-004 F
     orb,it,eci,eold,eci-eold=                    2                    6 -0.77423409348822148      -0.77417805285436658       -5.6040633854892441E-005 F
     orb,it,eci,eold,eci-eold=                    2                    7 -0.77426492668278524      -0.77423409348822148       -3.0833194563761879E-005 F
     orb,it,eci,eold,eci-eold=                    2                    8 -0.77447821577141995      -0.77426492668278524       -2.1328908863471607E-004 F
     orb,it,eci,eold,eci-eold=                    2                    9 -0.77459254523896204      -0.77447821577141995       -1.1432946754208473E-004 F
     orb,it,eci,eold,eci-eold=                    2                   10 -0.77466868169434611      -0.77459254523896204       -7.6136455384068213E-005 F
     orb,it,eci,eold,eci-eold=                    2                   11 -0.77487475267349759      -0.77466868169434611       -2.0607097915148476E-004 F
     orb,it,eci,eold,eci-eold=                    2                   12 -0.77494735860983732      -0.77487475267349759       -7.2605936339731336E-005 F
     orb,it,eci,eold,eci-eold=                    2                   13 -0.77500207949450284      -0.77494735860983732       -5.4720884665515612E-005 F
     orb,it,eci,eold,eci-eold=                    2                   14 -0.77501549152735383      -0.77500207949450284       -1.3412032850990130E-005 F
     orb,it,eci,eold,eci-eold=                    2                   15 -0.77503242905830794      -0.77501549152735383       -1.6937530954108659E-005 F
     orb,it,eci,eold,eci-eold=                    2                   16 -0.77510116629881565      -0.77503242905830794       -6.8737240507710240E-005 F
     orb,it,eci,eold,eci-eold=                    2                   17 -0.77516072060781260      -0.77510116629881565       -5.9554308996956351E-005 F
     orb,it,eci,eold,eci-eold=                    2                   18 -0.77519714436298648      -0.77516072060781260       -3.6423755173875527E-005 F
     orb,it,eci,eold,eci-eold=                    2                   19 -0.77526200264486844      -0.77519714436298648       -6.4858281881963187E-005 F
     orb,it,eci,eold,eci-eold=                    2                   20 -0.77530017081649982      -0.77526200264486844       -3.8168171631380865E-005 F
     orb,it,eci,eold,eci-eold=                    2                   21 -0.77530024124903996      -0.77530017081649982       -7.0432540133502641E-008 F
     orb,it,eci,eold,eci-eold=                    2                   22 -0.77530076528266312      -0.77530024124903996       -5.2403362316155722E-007 F
     orb,it,eci,eold,eci-eold=                    2                   23 -0.77535077787566142      -0.77530076528266312       -5.0012592998305294E-005 F
     orb,it,eci,eold,eci-eold=                    2                   24 -0.77537527550478047      -0.77535077787566142       -2.4497629119046849E-005 F
     orb,it,eci,eold,eci-eold=                    2                   25 -0.77538915455677471      -0.77537527550478047       -1.3879051994236669E-005 F
     orb,it,eci,eold,eci-eold=                    2                   26 -0.77539363528545202      -0.77538915455677471       -4.4807286773140831E-006 F
     orb,it,eci,eold,eci-eold=                    2                   27 -0.77540294725537073      -0.77539363528545202       -9.3119699187127480E-006 F
     orb,it,eci,eold,eci-eold=                    2                   28 -0.77540403934973834      -0.77540294725537073       -1.0920943676051564E-006 F
     orb,it,eci,eold,eci-eold=                    2                   29 -0.77540678919748207      -0.77540403934973834       -2.7498477437326585E-006 F
     orb,it,eci,eold,eci-eold=                    2                   30 -0.77541648984870504      -0.77540678919748207       -9.7006512229658171E-006 F
     orb,it,eci,eold,eci-eold=                    2                   31 -0.77542187377541327      -0.77541648984870504       -5.3839267082356201E-006 F
     orb,it,eci,eold,eci-eold=                    2                   32 -0.77542440271076729      -0.77542187377541327       -2.5289353540181025E-006 F
     orb,it,eci,eold,eci-eold=                    2                   33 -0.77542547067049084      -0.77542440271076729       -1.0679597235441207E-006 F
     orb,it,eci,eold,eci-eold=                    2                   34 -0.77542789680929936      -0.77542547067049084       -2.4261388085200508E-006 F
     orb,it,eci,eold,eci-eold=                    2                   35 -0.77542802240529152      -0.77542789680929936       -1.2559599216199757E-007 F
     orb,it,eci,eold,eci-eold=                    2                   36 -0.77542868401306309      -0.77542802240529152       -6.6160777156820672E-007 F
     orb,it,eci,eold,eci-eold=                    2                   37 -0.77542978297977005      -0.77542868401306309       -1.0989667069694065E-006 F
     orb,it,eci,eold,eci-eold=                    2                   38 -0.77542988923017564      -0.77542978297977005       -1.0625040558487342E-007 F
     orb,it,eci,eold,eci-eold=                    2                   39 -0.77542995848934204      -0.77542988923017564       -6.9259166401991479E-008 F
     orb,it,eci,eold,eci-eold=                    2                   40 -0.77543058920930286      -0.77542995848934204       -6.3071996081465187E-007 F
     orb,it,eci,eold,eci-eold=                    2                   41 -0.77543178906033172      -0.77543058920930286       -1.1998510288657727E-006 F
     orb,it,eci,eold,eci-eold=                    2                   42 -0.77543203702892627      -0.77543178906033172       -2.4796859454667697E-007 F
     orb,it,eci,eold,eci-eold=                    2                   43 -0.77543216212325672      -0.77543203702892627       -1.2509433044982643E-007 F
     orb,it,eci,eold,eci-eold=                    2                   44 -0.77543270849011803      -0.77543216212325672       -5.4636686130926648E-007 F
     orb,it,eci,eold,eci-eold=                    2                   45 -0.77543319789769516      -0.77543270849011803       -4.8940757713111793E-007 F
     orb,it,eci,eold,eci-eold=                    2                   46 -0.77543362297205354      -0.77543319789769516       -4.2507435837890739E-007 F
     orb,it,eci,eold,eci-eold=                    2                   47 -0.77543393822794082      -0.77543362297205354       -3.1525588728431586E-007 F
     orb,it,eci,eold,eci-eold=                    2                   48 -0.77543404144042982      -0.77543393822794082       -1.0321248899991531E-007 F
     orb,it,eci,eold,eci-eold=                    2                   49 -0.77543453684012587      -0.77543404144042982       -4.9539969604328604E-007 F
     orb,it,eci,eold,eci-eold=                    2                   50 -0.77543470946585358      -0.77543453684012587       -1.7262572771237217E-007 F
     orb,it,eci,eold,eci-eold=                    2                   51 -0.77543473563819676      -0.77543470946585358       -2.6172343181585234E-008 F
     orb,it,eci,eold,eci-eold=                    2                   52 -0.77543509128416233      -0.77543473563819676       -3.5564596556625361E-007 F
     orb,it,eci,eold,eci-eold=                    2                   53 -0.77543526415763364      -0.77543509128416233       -1.7287347131578201E-007 F
     orb,it,eci,eold,eci-eold=                    2                   54 -0.77543530046576126      -0.77543526415763364       -3.6308127615569674E-008 F
     orb,it,eci,eold,eci-eold=                    2                   55 -0.77543549251990540      -0.77543530046576126       -1.9205414414358302E-007 F
     orb,it,eci,eold,eci-eold=                    2                   56 -0.77543559485098901      -0.77543549251990540       -1.0233108360679921E-007 F
     orb,it,eci,eold,eci-eold=                    2                   57 -0.77543567433486316      -0.77543559485098901       -7.9483874149133271E-008 F
     orb,it,eci,eold,eci-eold=                    2                   58 -0.77543583308667741      -0.77543567433486316       -1.5875181424984675E-007 F
     orb,it,eci,eold,eci-eold=                    2                   59 -0.77543584610094229      -0.77543583308667741       -1.3014264887978300E-008 F
     orb,it,eci,eold,eci-eold=                    2                   60 -0.77543588127315832      -0.77543584610094229       -3.5172216028556136E-008 F
     orb,it,eci,eold,eci-eold=                    2                   61 -0.77543600829556669      -0.77543588127315832       -1.2702240836937051E-007 F
     orb,it,eci,eold,eci-eold=                    2                   62 -0.77543601483702818      -0.77543600829556669       -6.5414614836001306E-009 F
     orb,it,eci,eold,eci-eold=                    2                   63 -0.77543601979002963      -0.77543601483702818       -4.9530014534227007E-009 F
     orb,it,eci,eold,eci-eold=                    2                   64 -0.77543611595717732      -0.77543601979002963       -9.6167147689563137E-008 F
     orb,it,eci,eold,eci-eold=                    2                   65 -0.77543612823558405      -0.77543611595717732       -1.2278406735788394E-008 F
     orb,it,eci,eold,eci-eold=                    2                   66 -0.77543613095126729      -0.77543612823558405       -2.7156832338448567E-009 F
     orb,it,eci,eold,eci-eold=                    2                   67 -0.77543620489668053      -0.77543613095126729       -7.3945413237019864E-008 F
     orb,it,eci,eold,eci-eold=                    2                   68 -0.77543622885798325      -0.77543620489668053       -2.3961302719754940E-008 F
     orb,it,eci,eold,eci-eold=                    2                   69 -0.77543625914996828      -0.77543622885798325       -3.0291985031460911E-008 F
     orb,it,eci,eold,eci-eold=                    2                   70 -0.77543626325352721      -0.77543625914996828       -4.1035589370963521E-009 F
     orb,it,eci,eold,eci-eold=                    2                   71 -0.77543628285698074      -0.77543626325352721       -1.9603453527139436E-008 F
     orb,it,eci,eold,eci-eold=                    2                   72 -0.77543632687079711      -0.77543628285698074       -4.4013816369314895E-008 F
     orb,it,eci,eold,eci-eold=                    2                   73 -0.77543635216840279      -0.77543632687079711       -2.5297605676932733E-008 F
     orb,it,eci,eold,eci-eold=                    2                   74 -0.77543638480500476      -0.77543635216840279       -3.2636601976498980E-008 F
     orb,it,eci,eold,eci-eold=                    2                   75 -0.77543640172944528      -0.77543638480500476       -1.6924440515708739E-008 F
     orb,it,eci,eold,eci-eold=                    2                   76 -0.77543641895759863      -0.77543640172944528       -1.7228153348369801E-008 F
     orb,it,eci,eold,eci-eold=                    2                   77 -0.77543642719212968      -0.77543641895759863       -8.2345310570275387E-009 F
     orb,it,eci,eold,eci-eold=                    2                   78 -0.77543644476379714      -0.77543642719212968       -1.7571667454419071E-008 F
     orb,it,eci,eold,eci-eold=                    2                   79 -0.77543644783633958      -0.77543644476379714       -3.0725424426947257E-009 F
     orb,it,eci,eold,eci-eold=                    2                   80 -0.77543644914176135      -0.77543644783633958       -1.3054217706809368E-009 F
     orb,it,eci,eold,eci-eold=                    2                   81 -0.77543646016451540      -0.77543644914176135       -1.1022754042855354E-008 F
     orb,it,eci,eold,eci-eold=                    2                   82 -0.77543646573220060      -0.77543646016451540       -5.5676852017683132E-009 F
     orb,it,eci,eold,eci-eold=                    2                   83 -0.77543646863261584      -0.77543646573220060       -2.9004152413136808E-009 F
     orb,it,eci,eold,eci-eold=                    2                   84 -0.77543647843897689      -0.77543646863261584       -9.8063610565191084E-009 F
     orb,it,eci,eold,eci-eold=                    2                   85 -0.77543647936970828      -0.77543647843897689       -9.3073138085486562E-010 F
     orbital   2 current e=  0.366217E+00 error=0.161E+00 (eci= -0.775436479E+00 error=0.931E-09) iterations  85(   0 preconditioned, Ep,Sp= 20.0  200.0)
     orb,it,eci,eold,eci-eold=                    2                    1 -0.77543650536344555      -0.77543647936970828       -2.5993737273743989E-008 F
     orb,it,eci,eold,eci-eold=                    2                    2 -0.77543650677047626      -0.77543650536344555       -1.4070307141622607E-009 F
     orb,it,eci,eold,eci-eold=                    2                    3 -0.77543650723634983      -0.77543650677047626       -4.6587356195004759E-010 F
     orbital   2 current e=  0.366261E+00 error=0.439E-04 (eci= -0.775436507E+00 error=0.466E-09) iterations   3(   0 preconditioned, Ep,Sp= 20.0  200.0)
     orb,it,eci,eold,eci-eold=                    2                    1 -0.77543651393961965      -0.77543650723634983       -6.7032698281010994E-009 F
     orb,it,eci,eold,eci-eold=                    2                    2 -0.77543651639500832      -0.77543651393961965       -2.4553886701639271E-009 F
     orb,it,eci,eold,eci-eold=                    2                    3 -0.77543651691935067      -0.77543651639500832       -5.2434234731890683E-010 F
     orbital   2 current e=  0.366295E+00 error=0.342E-04 (eci= -0.775436517E+00 error=0.524E-09) iterations   3(   0 preconditioned, Ep,Sp= 20.0  200.0)
     orb,it,eci,eold,eci-eold=                    3                    1 -0.77191251210213074      -0.77140823244829115       -5.0427965383958995E-004 F
     orb,it,eci,eold,eci-eold=                    3                    2 -0.77192488973006834      -0.77191251210213074       -1.2377627937598668E-005 F
     orb,it,eci,eold,eci-eold=                    3                    3 -0.77192488973006834      -0.77192488973006834        0.0000000000000000      F
     orbital   3 current e=  0.453208E+01 error=0.380E+01 (eci= -0.771924890E+00 error=0.000E+00) iterations   3(   0 preconditioned, Ep,Sp= 20.0  200.0)
     orb,it,eci,eold,eci-eold=                    3                    1 -0.77177505745054520      -0.77148188501670056       -2.9317243384463509E-004 F
     orb,it,eci,eold,eci-eold=                    3                    2 -0.77185363629051928      -0.77177505745054520       -7.8578839974086101E-005 F
     orb,it,eci,eold,eci-eold=                    3                    3 -0.77191252524548515      -0.77185363629051928       -5.8888954965863327E-005 F
     orb,it,eci,eold,eci-eold=                    3                    4 -0.77238479349839251      -0.77191252524548515       -4.7226825290735963E-004 F
     orb,it,eci,eold,eci-eold=                    3                    5 -0.77246536252656672      -0.77238479349839251       -8.0569028174215518E-005 F
     orb,it,eci,eold,eci-eold=                    3                    6 -0.77249128439228310      -0.77246536252656672       -2.5921865716371784E-005 F
     orb,it,eci,eold,eci-eold=                    3                    7 -0.77255263847575151      -0.77249128439228310       -6.1354083468412313E-005 F
     orb,it,eci,eold,eci-eold=                    3                    8 -0.77263764837129090      -0.77255263847575151       -8.5009895539389646E-005 F
     orb,it,eci,eold,eci-eold=                    3                    9 -0.77264657756679311      -0.77263764837129090       -8.9291955022163805E-006 F
     orb,it,eci,eold,eci-eold=                    3                   10 -0.77271734368646661      -0.77264657756679311       -7.0766119673493222E-005 F
     orb,it,eci,eold,eci-eold=                    3                   11 -0.77303035008814303      -0.77271734368646661       -3.1300640167641891E-004 F
     orb,it,eci,eold,eci-eold=                    3                   12 -0.77305542392700077      -0.77303035008814303       -2.5073838857747610E-005 F
     orb,it,eci,eold,eci-eold=                    3                   13 -0.77307664695641443      -0.77305542392700077       -2.1223029413652839E-005 F
     orb,it,eci,eold,eci-eold=                    3                   14 -0.77310068368764295      -0.77307664695641443       -2.4036731228527231E-005 F
     orb,it,eci,eold,eci-eold=                    3                   15 -0.77310226707629937      -0.77310068368764295       -1.5833886564120547E-006 F
     orb,it,eci,eold,eci-eold=                    3                   16 -0.77312024419868086      -0.77310226707629937       -1.7977122381496180E-005 F
     orb,it,eci,eold,eci-eold=                    3                   17 -0.77313203263205854      -0.77312024419868086       -1.1788433377679652E-005 F
     orb,it,eci,eold,eci-eold=                    3                   18 -0.77314661487948078      -0.77313203263205854       -1.4582247422234573E-005 F
     orb,it,eci,eold,eci-eold=                    3                   19 -0.77316458392615539      -0.77314661487948078       -1.7969046674615186E-005 F
     orb,it,eci,eold,eci-eold=                    3                   20 -0.77316465076404162      -0.77316458392615539       -6.6837886225634691E-008 F
     orb,it,eci,eold,eci-eold=                    3                   21 -0.77316468889762879      -0.77316465076404162       -3.8133587176858441E-008 F
     orb,it,eci,eold,eci-eold=                    3                   22 -0.77317256825160441      -0.77316468889762879       -7.8793539756150111E-006 F
     orb,it,eci,eold,eci-eold=                    3                   23 -0.77317500245668536      -0.77317256825160441       -2.4342050809478266E-006 F
     orb,it,eci,eold,eci-eold=                    3                   24 -0.77317547287133059      -0.77317500245668536       -4.7041464523722709E-007 F
     orb,it,eci,eold,eci-eold=                    3                   25 -0.77317928735219033      -0.77317547287133059       -3.8144808597317947E-006 F
     orb,it,eci,eold,eci-eold=                    3                   26 -0.77318670991377147      -0.77317928735219033       -7.4225615811496226E-006 F
     orb,it,eci,eold,eci-eold=                    3                   27 -0.77319131392487694      -0.77318670991377147       -4.6040111054690414E-006 F
     orb,it,eci,eold,eci-eold=                    3                   28 -0.77319451315462251      -0.77319131392487694       -3.1992297455651908E-006 F
     orb,it,eci,eold,eci-eold=                    3                   29 -0.77320321835601014      -0.77319451315462251       -8.7052013876265377E-006 F
     orb,it,eci,eold,eci-eold=                    3                   30 -0.77320957077062424      -0.77320321835601014       -6.3524146141080706E-006 F
     orb,it,eci,eold,eci-eold=                    3                   31 -0.77321935753985449      -0.77320957077062424       -9.7867692302466835E-006 F
     orb,it,eci,eold,eci-eold=                    3                   32 -0.77322386412562261      -0.77321935753985449       -4.5065857681159116E-006 F
     orb,it,eci,eold,eci-eold=                    3                   33 -0.77323921039546195      -0.77322386412562261       -1.5346269839344728E-005 F
     orb,it,eci,eold,eci-eold=                    3                   34 -0.77327039020045141      -0.77323921039546195       -3.1179804989456272E-005 F
     orb,it,eci,eold,eci-eold=                    3                   35 -0.77328341677585399      -0.77327039020045141       -1.3026575402586005E-005 F
     orb,it,eci,eold,eci-eold=                    3                   36 -0.77329013384056433      -0.77328341677585399       -6.7170647103376169E-006 F
     orb,it,eci,eold,eci-eold=                    3                   37 -0.77329247684082680      -0.77329013384056433       -2.3430002624724722E-006 F
     orb,it,eci,eold,eci-eold=                    3                   38 -0.77329430119410070      -0.77329247684082680       -1.8243532738937418E-006 F
     orb,it,eci,eold,eci-eold=                    3                   39 -0.77330102479167118      -0.77329430119410070       -6.7235975704793560E-006 F
     orb,it,eci,eold,eci-eold=                    3                   40 -0.77330421583636144      -0.77330102479167118       -3.1910446902649880E-006 F
     orb,it,eci,eold,eci-eold=                    3                   41 -0.77330584882156805      -0.77330421583636144       -1.6329852066121475E-006 F
     orb,it,eci,eold,eci-eold=                    3                   42 -0.77330593992238750      -0.77330584882156805       -9.1100819443745706E-008 F
     orb,it,eci,eold,eci-eold=                    3                   43 -0.77330607197049872      -0.77330593992238750       -1.3204811122324855E-007 F
     orb,it,eci,eold,eci-eold=                    3                   44 -0.77330730501709821      -0.77330607197049872       -1.2330465994914164E-006 F
     orb,it,eci,eold,eci-eold=                    3                   45 -0.77330796651261680      -0.77330730501709821       -6.6149551858352140E-007 F
     orb,it,eci,eold,eci-eold=                    3                   46 -0.77330821384528203      -0.77330796651261680       -2.4733266523746522E-007 F
     orb,it,eci,eold,eci-eold=                    3                   47 -0.77330825719769747      -0.77330821384528203       -4.3352415435293779E-008 F
     orb,it,eci,eold,eci-eold=                    3                   48 -0.77330828068753243      -0.77330825719769747       -2.3489834966028411E-008 F
     orb,it,eci,eold,eci-eold=                    3                   49 -0.77330855336001669      -0.77330828068753243       -2.7267248425832946E-007 F
     orb,it,eci,eold,eci-eold=                    3                   50 -0.77330870473567814      -0.77330855336001669       -1.5137566145018155E-007 F
     orb,it,eci,eold,eci-eold=                    3                   51 -0.77330880553757297      -0.77330870473567814       -1.0080189483119284E-007 F
     orb,it,eci,eold,eci-eold=                    3                   52 -0.77330900308999306      -0.77330880553757297       -1.9755242008923091E-007 F
     orb,it,eci,eold,eci-eold=                    3                   53 -0.77330903797429695      -0.77330900308999306       -3.4884303889981538E-008 F
     orb,it,eci,eold,eci-eold=                    3                   54 -0.77330911659605772      -0.77330903797429695       -7.8621760768449178E-008 F
     orb,it,eci,eold,eci-eold=                    3                   55 -0.77330926878869755      -0.77330911659605772       -1.5219263982402254E-007 F
     orb,it,eci,eold,eci-eold=                    3                   56 -0.77330939261015397      -0.77330926878869755       -1.2382145642142461E-007 F
     orb,it,eci,eold,eci-eold=                    3                   57 -0.77330949932204529      -0.77330939261015397       -1.0671189132338554E-007 F
     orb,it,eci,eold,eci-eold=                    3                   58 -0.77330959492106177      -0.77330949932204529       -9.5599016480818477E-008 F
     orb,it,eci,eold,eci-eold=                    3                   59 -0.77330974048201984      -0.77330959492106177       -1.4556095806472769E-007 F
     orb,it,eci,eold,eci-eold=                    3                   60 -0.77330987493004244      -0.77330974048201984       -1.3444802260398347E-007 F
     orb,it,eci,eold,eci-eold=                    3                   61 -0.77331012757784257      -0.77330987493004244       -2.5264780012523858E-007 F
     orb,it,eci,eold,eci-eold=                    3                   62 -0.77331037190005980      -0.77331012757784257       -2.4432221723547087E-007 F
     orb,it,eci,eold,eci-eold=                    3                   63 -0.77331043751271833      -0.77331037190005980       -6.5612658528557688E-008 F
     orb,it,eci,eold,eci-eold=                    3                   64 -0.77331060813549990      -0.77331043751271833       -1.7062278157009558E-007 F
     orb,it,eci,eold,eci-eold=                    3                   65 -0.77331071932134310      -0.77331060813549990       -1.1118584319902425E-007 F
     orb,it,eci,eold,eci-eold=                    3                   66 -0.77331075520055914      -0.77331071932134310       -3.5879216042644657E-008 F
     orb,it,eci,eold,eci-eold=                    3                   67 -0.77331075678761674      -0.77331075520055914       -1.5870575964527234E-009 F
     orb,it,eci,eold,eci-eold=                    3                   68 -0.77331085733059024      -0.77331075678761674       -1.0054297350237107E-007 F
     orb,it,eci,eold,eci-eold=                    3                   69 -0.77331092499028964      -0.77331085733059024       -6.7659699398703310E-008 F
     orb,it,eci,eold,eci-eold=                    3                   70 -0.77331092499028964      -0.77331092499028964        0.0000000000000000      F
     orbital   3 current e=  0.601913E+00 error=0.393E+01 (eci= -0.773310925E+00 error=0.000E+00) iterations  70(   0 preconditioned, Ep,Sp= 20.0  200.0)
     orb,it,eci,eold,eci-eold=                    3                    1 -0.77331099298829353      -0.77331092419870151       -6.8789592022611146E-008 F
     orb,it,eci,eold,eci-eold=                    3                    2 -0.77331101555636494      -0.77331099298829353       -2.2568071411654955E-008 F
     orb,it,eci,eold,eci-eold=                    3                    3 -0.77331102920028560      -0.77331101555636494       -1.3643920659944797E-008 F
     orb,it,eci,eold,eci-eold=                    3                    4 -0.77331104336632417      -0.77331102920028560       -1.4166038564411565E-008 F
     orb,it,eci,eold,eci-eold=                    3                    5 -0.77331105609936468      -0.77331104336632417       -1.2733040510859439E-008 F
     orb,it,eci,eold,eci-eold=                    3                    6 -0.77331106360506441      -0.77331105609936468       -7.5056997284050908E-009 F
     orb,it,eci,eold,eci-eold=                    3                    7 -0.77331107020348733      -0.77331106360506441       -6.5984229191684562E-009 F
     orb,it,eci,eold,eci-eold=                    3                    8 -0.77331108256756553      -0.77331107020348733       -1.2364078205706619E-008 F
     orb,it,eci,eold,eci-eold=                    3                    9 -0.77331108256756553      -0.77331108256756553        0.0000000000000000      F
     orbital   3 current e=  0.604238E+00 error=0.233E-02 (eci= -0.773311083E+00 error=0.000E+00) iterations   9(   0 preconditioned, Ep,Sp= 20.0  200.0)
     orb,it,eci,eold,eci-eold=                    4                    1 -0.77146501152966362      -0.77137254253647280       -9.2468993190819582E-005 F
     orb,it,eci,eold,eci-eold=                    4                    2 -0.77203816751169940      -0.77146501152966362       -5.7315598203577789E-004 F
     orb,it,eci,eold,eci-eold=                    4                    3 -0.77237127952690610      -0.77203816751169940       -3.3311201520669353E-004 F
     orb,it,eci,eold,eci-eold=                    4                    4 -0.77248688643837204      -0.77237127952690610       -1.1560691146594859E-004 F
     orb,it,eci,eold,eci-eold=                    4                    5 -0.77253087718999180      -0.77248688643837204       -4.3990751619760182E-005 F
     orb,it,eci,eold,eci-eold=                    4                    6 -0.77254001357146862      -0.77253087718999180       -9.1363814768152807E-006 F
     orb,it,eci,eold,eci-eold=                    4                    7 -0.77257570293140010      -0.77254001357146862       -3.5689359931478926E-005 F
     orb,it,eci,eold,eci-eold=                    4                    8 -0.77257720159610366      -0.77257570293140010       -1.4986647035586387E-006 F
     orb,it,eci,eold,eci-eold=                    4                    9 -0.77257991252748504      -0.77257720159610366       -2.7109313813777902E-006 F
     orb,it,eci,eold,eci-eold=                    4                   10 -0.77258379843389891      -0.77257991252748504       -3.8859064138696553E-006 F
     orb,it,eci,eold,eci-eold=                    4                   11 -0.77259415433499590      -0.77258379843389891       -1.0355901096992248E-005 F
     orb,it,eci,eold,eci-eold=                    4                   12 -0.77260024026872842      -0.77259415433499590       -6.0859337325247509E-006 F
     orb,it,eci,eold,eci-eold=                    4                   13 -0.77260552758398693      -0.77260024026872842       -5.2873152585064531E-006 F
     orb,it,eci,eold,eci-eold=                    4                   14 -0.77260572341404354      -0.77260552758398693       -1.9583005661516495E-007 F
     orb,it,eci,eold,eci-eold=                    4                   15 -0.77260604100824004      -0.77260572341404354       -3.1759419649723952E-007 F
     orb,it,eci,eold,eci-eold=                    4                   16 -0.77260687294998331      -0.77260604100824004       -8.3194174327338999E-007 F
     orb,it,eci,eold,eci-eold=                    4                   17 -0.77260928303910115      -0.77260687294998331       -2.4100891178324702E-006 F
     orb,it,eci,eold,eci-eold=                    4                   18 -0.77260956255115953      -0.77260928303910115       -2.7951205838760984E-007 F
     orb,it,eci,eold,eci-eold=                    4                   19 -0.77260969091343235      -0.77260956255115953       -1.2836227281098900E-007 F
     orb,it,eci,eold,eci-eold=                    4                   20 -0.77261139292388270      -0.77260969091343235       -1.7020104503551181E-006 F
     orb,it,eci,eold,eci-eold=                    4                   21 -0.77261165070169902      -0.77261139292388270       -2.5777781631486363E-007 F
     orb,it,eci,eold,eci-eold=                    4                   22 -0.77261182502366621      -0.77261165070169902       -1.7432196719457949E-007 F
     orb,it,eci,eold,eci-eold=                    4                   23 -0.77261364664092147      -0.77261182502366621       -1.8216172552598664E-006 F
     orb,it,eci,eold,eci-eold=                    4                   24 -0.77261437800133759      -0.77261364664092147       -7.3136041611743252E-007 F
     orb,it,eci,eold,eci-eold=                    4                   25 -0.77261455532868539      -0.77261437800133759       -1.7732734780562254E-007 F
     orb,it,eci,eold,eci-eold=                    4                   26 -0.77261572988713600      -0.77261455532868539       -1.1745584506117623E-006 F
     orb,it,eci,eold,eci-eold=                    4                   27 -0.77261734732864584      -0.77261572988713600       -1.6174415098380024E-006 F
     orb,it,eci,eold,eci-eold=                    4                   28 -0.77261764672979771      -0.77261734732864584       -2.9940115187088168E-007 F
     orb,it,eci,eold,eci-eold=                    4                   29 -0.77261798529236525      -0.77261764672979771       -3.3856256753672653E-007 F
     orb,it,eci,eold,eci-eold=                    4                   30 -0.77262003690674030      -0.77261798529236525       -2.0516143750537452E-006 F
     orb,it,eci,eold,eci-eold=                    4                   31 -0.77262278253305083      -0.77262003690674030       -2.7456263105296586E-006 F
     orb,it,eci,eold,eci-eold=                    4                   32 -0.77262438594046956      -0.77262278253305083       -1.6034074187265546E-006 F
     orb,it,eci,eold,eci-eold=                    4                   33 -0.77262759562050154      -0.77262438594046956       -3.2096800319791896E-006 F
     orb,it,eci,eold,eci-eold=                    4                   34 -0.77262844030263944      -0.77262759562050154       -8.4468213790156454E-007 F
     orb,it,eci,eold,eci-eold=                    4                   35 -0.77262853670958032      -0.77262844030263944       -9.6406940874871339E-008 F
     orb,it,eci,eold,eci-eold=                    4                   36 -0.77263014678734554      -0.77262853670958032       -1.6100777652239273E-006 F
     orb,it,eci,eold,eci-eold=                    4                   37 -0.77263218919955501      -0.77263014678734554       -2.0424122094686581E-006 F
     orb,it,eci,eold,eci-eold=                    4                   38 -0.77263354138163221      -0.77263218919955501       -1.3521820771966730E-006 F
     orb,it,eci,eold,eci-eold=                    4                   39 -0.77263628772781912      -0.77263354138163221       -2.7463461869103867E-006 F
     orb,it,eci,eold,eci-eold=                    4                   40 -0.77263664416555000      -0.77263628772781912       -3.5643773088622765E-007 F
     orb,it,eci,eold,eci-eold=                    4                   41 -0.77263688163980448      -0.77263664416555000       -2.3747425448306103E-007 F
     orb,it,eci,eold,eci-eold=                    4                   42 -0.77263938618073380      -0.77263688163980448       -2.5045409293156240E-006 F
     orb,it,eci,eold,eci-eold=                    4                   43 -0.77264005710217853      -0.77263938618073380       -6.7092144473424042E-007 F
     orb,it,eci,eold,eci-eold=                    4                   44 -0.77264033866869175      -0.77264005710217853       -2.8156651321609161E-007 F
     orb,it,eci,eold,eci-eold=                    4                   45 -0.77264266903104428      -0.77264033866869175       -2.3303623525317008E-006 F
     orb,it,eci,eold,eci-eold=                    4                   46 -0.77264289584017398      -0.77264266903104428       -2.2680912969974543E-007 F
     orb,it,eci,eold,eci-eold=                    4                   47 -0.77264305201025163      -0.77264289584017398       -1.5617007764756607E-007 F
     orb,it,eci,eold,eci-eold=                    4                   48 -0.77264498481956312      -0.77264305201025163       -1.9328093114889811E-006 F
     orb,it,eci,eold,eci-eold=                    4                   49 -0.77264572800374598      -0.77264498481956312       -7.4318418286090093E-007 F
     orb,it,eci,eold,eci-eold=                    4                   50 -0.77264583253004271      -0.77264572800374598       -1.0452629672919045E-007 F
     orb,it,eci,eold,eci-eold=                    4                   51 -0.77264673630847980      -0.77264583253004271       -9.0377843708910888E-007 F
     orb,it,eci,eold,eci-eold=                    4                   52 -0.77264765497680388      -0.77264673630847980       -9.1866832407916377E-007 F
     orb,it,eci,eold,eci-eold=                    4                   53 -0.77264830402771867      -0.77264765497680388       -6.4905091479161570E-007 F
     orb,it,eci,eold,eci-eold=                    4                   54 -0.77264985253190965      -0.77264830402771867       -1.5485041909846231E-006 F
     orb,it,eci,eold,eci-eold=                    4                   55 -0.77265038133470709      -0.77264985253190965       -5.2880279743927616E-007 F
     orb,it,eci,eold,eci-eold=                    4                   56 -0.77265049173272249      -0.77265038133470709       -1.1039801539602934E-007 F
     orb,it,eci,eold,eci-eold=                    4                   57 -0.77265136488153052      -0.77265049173272249       -8.7314880803379680E-007 F
     orb,it,eci,eold,eci-eold=                    4                   58 -0.77265234063153598      -0.77265136488153052       -9.7575000546079593E-007 F
     orb,it,eci,eold,eci-eold=                    4                   59 -0.77265302740466846      -0.77265234063153598       -6.8677313247444971E-007 F
     orb,it,eci,eold,eci-eold=                    4                   60 -0.77265466108939773      -0.77265302740466846       -1.6336847292741652E-006 F
     orb,it,eci,eold,eci-eold=                    4                   61 -0.77265536729914741      -0.77265466108939773       -7.0620974967905426E-007 F
     orb,it,eci,eold,eci-eold=                    4                   62 -0.77265560936317312      -0.77265536729914741       -2.4206402571280705E-007 F
     orb,it,eci,eold,eci-eold=                    4                   63 -0.77265680208288590      -0.77265560936317312       -1.1927197127725719E-006 F
     orb,it,eci,eold,eci-eold=                    4                   64 -0.77265817937467740      -0.77265680208288590       -1.3772917915044758E-006 F
     orb,it,eci,eold,eci-eold=                    4                   65 -0.77265913835999767      -0.77265817937467740       -9.5898532026517103E-007 F
     orb,it,eci,eold,eci-eold=                    4                   66 -0.77266146912184275      -0.77265913835999767       -2.3307618450818524E-006 F
     orb,it,eci,eold,eci-eold=                    4                   67 -0.77266266818613150      -0.77266146912184275       -1.1990642887482750E-006 F
     orb,it,eci,eold,eci-eold=                    4                   68 -0.77266313046381607      -0.77266266818613150       -4.6227768457640650E-007 F
     orb,it,eci,eold,eci-eold=                    4                   69 -0.77266496658145256      -0.77266313046381607       -1.8361176364889431E-006 F
     orb,it,eci,eold,eci-eold=                    4                   70 -0.77266685171859151      -0.77266496658145256       -1.8851371389461136E-006 F
     orb,it,eci,eold,eci-eold=                    4                   71 -0.77266806004105071      -0.77266685171859151       -1.2083224592007724E-006 F
     orb,it,eci,eold,eci-eold=                    4                   72 -0.77267093756033889      -0.77266806004105071       -2.8775192881802525E-006 F
     orb,it,eci,eold,eci-eold=                    4                   73 -0.77267220025403927      -0.77267093756033889       -1.2626937003767935E-006 F
     orb,it,eci,eold,eci-eold=                    4                   74 -0.77267261511103635      -0.77267220025403927       -4.1485699708854185E-007 F
     orb,it,eci,eold,eci-eold=                    4                   75 -0.77267450175021712      -0.77267261511103635       -1.8866391807703664E-006 F
     orb,it,eci,eold,eci-eold=                    4                   76 -0.77267620833313133      -0.77267450175021712       -1.7065829142071109E-006 F
     orb,it,eci,eold,eci-eold=                    4                   77 -0.77267726220000021      -0.77267620833313133       -1.0538668688830910E-006 F
     orb,it,eci,eold,eci-eold=                    4                   78 -0.77267978565320217      -0.77267726220000021       -2.5234532019524636E-006 F
     orb,it,eci,eold,eci-eold=                    4                   79 -0.77268070992280247      -0.77267978565320217       -9.2426960029978744E-007 F
     orb,it,eci,eold,eci-eold=                    4                   80 -0.77268100595443379      -0.77268070992280247       -2.9603163131941557E-007 F
     orb,it,eci,eold,eci-eold=                    4                   81 -0.77268266295381283      -0.77268100595443379       -1.6569993790405135E-006 F
     orb,it,eci,eold,eci-eold=                    4                   82 -0.77268424420878634      -0.77268266295381283       -1.5812549735150228E-006 F
     orb,it,eci,eold,eci-eold=                    4                   83 -0.77268527230863049      -0.77268424420878634       -1.0280998441469791E-006 F
     orb,it,eci,eold,eci-eold=                    4                   84 -0.77268776065841926      -0.77268527230863049       -2.4883497887762118E-006 F
     orb,it,eci,eold,eci-eold=                    4                   85 -0.77268879535396029      -0.77268776065841926       -1.0346955410245329E-006 F
     orb,it,eci,eold,eci-eold=                    4                   86 -0.77268918070566994      -0.77268879535396029       -3.8535170965303678E-007 F
     orb,it,eci,eold,eci-eold=                    4                   87 -0.77269100545381242      -0.77268918070566994       -1.8247481424760181E-006 F
     orb,it,eci,eold,eci-eold=                    4                   88 -0.77269278185411738      -0.77269100545381242       -1.7764003049647314E-006 F
     orb,it,eci,eold,eci-eold=                    4                   89 -0.77269392728677955      -0.77269278185411738       -1.1454326621640476E-006 F
     orb,it,eci,eold,eci-eold=                    4                   90 -0.77269669152022902      -0.77269392728677955       -2.7642334494704102E-006 F
     orb,it,eci,eold,eci-eold=                    4                   91 -0.77269790488408241      -0.77269669152022902       -1.2133638533917690E-006 F
     orb,it,eci,eold,eci-eold=                    4                   92 -0.77269838051527062      -0.77269790488408241       -4.7563118821258854E-007 F
     orb,it,eci,eold,eci-eold=                    4                   93 -0.77270048911263134      -0.77269838051527062       -2.1085973607171127E-006 F
     orb,it,eci,eold,eci-eold=                    4                   94 -0.77270254245355019      -0.77270048911263134       -2.0533409188505658E-006 F
     orb,it,eci,eold,eci-eold=                    4                   95 -0.77270388551083935      -0.77270254245355019       -1.3430572891603987E-006 F
     orb,it,eci,eold,eci-eold=                    4                   96 -0.77270719779528041      -0.77270388551083935       -3.3122844410593544E-006 F
     orb,it,eci,eold,eci-eold=                    4                   97 -0.77270884804154849      -0.77270719779528041       -1.6502462680811902E-006 F
     orb,it,eci,eold,eci-eold=                    4                   98 -0.77270958718161198      -0.77270884804154849       -7.3914006348818617E-007 F
     orb,it,eci,eold,eci-eold=                    4                   99 -0.77271246038120323      -0.77270958718161198       -2.8731995912467667E-006 F
     orb,it,eci,eold,eci-eold=                    4                  100 -0.77271515730338436      -0.77271246038120323       -2.6969221811334876E-006 F
     orb,it,eci,eold,eci-eold=                    4                  101 -0.77271685829117676      -0.77271515730338436       -1.7009877923968020E-006 F
     orb,it,eci,eold,eci-eold=                    4                  102 -0.77272100512066666      -0.77271685829117676       -4.1468294899038582E-006 F
     orb,it,eci,eold,eci-eold=                    4                  103 -0.77272285486894143      -0.77272100512066666       -1.8497482747736882E-006 F
     orb,it,eci,eold,eci-eold=                    4                  104 -0.77272359055375328      -0.77272285486894143       -7.3568481184782542E-007 F
     orb,it,eci,eold,eci-eold=                    4                  105 -0.77272664171614214      -0.77272359055375328       -3.0511623888562767E-006 F
     orb,it,eci,eold,eci-eold=                    4                  106 -0.77272910447753484      -0.77272664171614214       -2.4627613927075132E-006 F
     orb,it,eci,eold,eci-eold=                    4                  107 -0.77273058585525067      -0.77272910447753484       -1.4813777158284580E-006 F
     orb,it,eci,eold,eci-eold=                    4                  108 -0.77273431337360732      -0.77273058585525067       -3.7275183566443104E-006 F
     orb,it,eci,eold,eci-eold=                    4                  109 -0.77273584890219993      -0.77273431337360732       -1.5355285926110795E-006 F
     orb,it,eci,eold,eci-eold=                    4                  110 -0.77273656266663682      -0.77273584890219993       -7.1376443688819791E-007 F
     orb,it,eci,eold,eci-eold=                    4                  111 -0.77273973387026329      -0.77273656266663682       -3.1712036264730514E-006 F
     orb,it,eci,eold,eci-eold=                    4                  112 -0.77274264515864877      -0.77273973387026329       -2.9112883854764959E-006 F
     orb,it,eci,eold,eci-eold=                    4                  113 -0.77274454184642150      -0.77274264515864877       -1.8966877727288889E-006 F
     orb,it,eci,eold,eci-eold=                    4                  114 -0.77274934297662101      -0.77274454184642150       -4.8011301995165567E-006 F
     orb,it,eci,eold,eci-eold=                    4                  115 -0.77275179960850138      -0.77274934297662101       -2.4566318803653786E-006 F
     orb,it,eci,eold,eci-eold=                    4                  116 -0.77275301794793039      -0.77275179960850138       -1.2183394290099514E-006 F
     orb,it,eci,eold,eci-eold=                    4                  117 -0.77275755454306605      -0.77275301794793039       -4.5365951356624024E-006 F
     orb,it,eci,eold,eci-eold=                    4                  118 -0.77276148983033532      -0.77275755454306605       -3.9352872692743901E-006 F
     orb,it,eci,eold,eci-eold=                    4                  119 -0.77276394412367710      -0.77276148983033532       -2.4542933417803781E-006 F
     orb,it,eci,eold,eci-eold=                    4                  120 -0.77277019800325863      -0.77276394412367710       -6.2538795815303416E-006 F
     orb,it,eci,eold,eci-eold=                    4                  121 -0.77277339273246404      -0.77277019800325863       -3.1947292054024246E-006 F
     orbital   4 current e=  0.848194E+00 error=0.351E+00 (eci= -0.772773393E+00 error=0.319E-05) iterations 121(   0 preconditioned, Ep,Sp= 20.0  200.0)
     orb,it,eci,eold,eci-eold=                    4                    1 -0.77289928754738102      -0.77277339273246404       -1.2589481491698251E-004 F
     orb,it,eci,eold,eci-eold=                    4                    2 -0.77296832593009568      -0.77289928754738102       -6.9038382714659008E-005 F
     orb,it,eci,eold,eci-eold=                    4                    3 -0.77300200303799382      -0.77296832593009568       -3.3677107898144598E-005 F
     orb,it,eci,eold,eci-eold=                    4                    4 -0.77305123221413030      -0.77300200303799382       -4.9229176136478259E-005 F
     orb,it,eci,eold,eci-eold=                    4                    5 -0.77308426691041143      -0.77305123221413030       -3.3034696281131204E-005 F
     orb,it,eci,eold,eci-eold=                    4                    6 -0.77309376874906544      -0.77308426691041143       -9.5018386540024480E-006 F
     orb,it,eci,eold,eci-eold=                    4                    7 -0.77312428113668008      -0.77309376874906544       -3.0512387614645142E-005 F
     orb,it,eci,eold,eci-eold=                    4                    8 -0.77313094711717789      -0.77312428113668008       -6.6659804978108639E-006 F
     orb,it,eci,eold,eci-eold=                    4                    9 -0.77313747054229376      -0.77313094711717789       -6.5234251158674539E-006 F
     orb,it,eci,eold,eci-eold=                    4                   10 -0.77314394088325333      -0.77313747054229376       -6.4703409595745498E-006 F
     orb,it,eci,eold,eci-eold=                    4                   11 -0.77314989986958005      -0.77314394088325333       -5.9589863267150989E-006 F
     orb,it,eci,eold,eci-eold=                    4                   12 -0.77317013533910317      -0.77314989986958005       -2.0235469523122163E-005 F
     orb,it,eci,eold,eci-eold=                    4                   13 -0.77317392295293763      -0.77317013533910317       -3.7876138344605792E-006 F
     orb,it,eci,eold,eci-eold=                    4                   14 -0.77317554513817355      -0.77317392295293763       -1.6221852359166178E-006 F
     orb,it,eci,eold,eci-eold=                    4                   15 -0.77318436719116945      -0.77317554513817355       -8.8220529959048832E-006 F
     orb,it,eci,eold,eci-eold=                    4                   16 -0.77318799847076414      -0.77318436719116945       -3.6312795946846776E-006 F
     orb,it,eci,eold,eci-eold=                    4                   17 -0.77319618547962499      -0.77318799847076414       -8.1870088608493319E-006 F
     orb,it,eci,eold,eci-eold=                    4                   18 -0.77320126484016627      -0.77319618547962499       -5.0793605412824405E-006 F
     orb,it,eci,eold,eci-eold=                    4                   19 -0.77320570906579489      -0.77320126484016627       -4.4442256286192361E-006 F
     orb,it,eci,eold,eci-eold=                    4                   20 -0.77321327536967999      -0.77320570906579489       -7.5663038850981579E-006 F
     orb,it,eci,eold,eci-eold=                    4                   21 -0.77321406235478296      -0.77321327536967999       -7.8698510297403601E-007 F
     orb,it,eci,eold,eci-eold=                    4                   22 -0.77321576389336433      -0.77321406235478296       -1.7015385813667905E-006 F
     orb,it,eci,eold,eci-eold=                    4                   23 -0.77321841899102917      -0.77321576389336433       -2.6550976648387348E-006 F
     orb,it,eci,eold,eci-eold=                    4                   24 -0.77322025890641866      -0.77321841899102917       -1.8399153894899101E-006 F
     orb,it,eci,eold,eci-eold=                    4                   25 -0.77322536413419263      -0.77322025890641866       -5.1052277739715990E-006 F
     orb,it,eci,eold,eci-eold=                    4                   26 -0.77322663100537026      -0.77322536413419263       -1.2668711776298025E-006 F
     orb,it,eci,eold,eci-eold=                    4                   27 -0.77322706791504525      -0.77322663100537026       -4.3690967499454558E-007 F
     orb,it,eci,eold,eci-eold=                    4                   28 -0.77323015757373170      -0.77322706791504525       -3.0896586864503917E-006 F
     orb,it,eci,eold,eci-eold=                    4                   29 -0.77323019613046151      -0.77323015757373170       -3.8556729808902901E-008 F
     orb,it,eci,eold,eci-eold=                    4                   30 -0.77323035501098136      -0.77323019613046151       -1.5888051985157858E-007 F
     orb,it,eci,eold,eci-eold=                    4                   31 -0.77323380730721714      -0.77323035501098136       -3.4522962357730336E-006 F
     orb,it,eci,eold,eci-eold=                    4                   32 -0.77323387667491972      -0.77323380730721714       -6.9367702582034951E-008 F
     orb,it,eci,eold,eci-eold=                    4                   33 -0.77323388570580864      -0.77323387667491972       -9.0308889255652502E-009 F
     orb,it,eci,eold,eci-eold=                    4                   34 -0.77323586165522218      -0.77323388570580864       -1.9759494135351829E-006 F
     orb,it,eci,eold,eci-eold=                    4                   35 -0.77323640614347799      -0.77323586165522218       -5.4448825581587812E-007 F
     orb,it,eci,eold,eci-eold=                    4                   36 -0.77323730841584892      -0.77323640614347799       -9.0227237092843637E-007 F
     orb,it,eci,eold,eci-eold=                    4                   37 -0.77323809135721622      -0.77323730841584892       -7.8294136729439856E-007 F
     orb,it,eci,eold,eci-eold=                    4                   38 -0.77323898899800136      -0.77323809135721622       -8.9764078514686929E-007 F
     orb,it,eci,eold,eci-eold=                    4                   39 -0.77323950125758600      -0.77323898899800136       -5.1225958463962940E-007 F
     orb,it,eci,eold,eci-eold=                    4                   40 -0.77324061092328844      -0.77323950125758600       -1.1096657024367573E-006 F
     orb,it,eci,eold,eci-eold=                    4                   41 -0.77324122009840313      -0.77324061092328844       -6.0917511468527863E-007 F
     orb,it,eci,eold,eci-eold=                    4                   42 -0.77324179454059416      -0.77324122009840313       -5.7444219103697236E-007 F
     orb,it,eci,eold,eci-eold=                    4                   43 -0.77324205792520317      -0.77324179454059416       -2.6338460901165206E-007 F
     orb,it,eci,eold,eci-eold=                    4                   44 -0.77324236296721782      -0.77324205792520317       -3.0504201464776060E-007 F
     orb,it,eci,eold,eci-eold=                    4                   45 -0.77324255086172622      -0.77324236296721782       -1.8789450839662436E-007 F
     orb,it,eci,eold,eci-eold=                    4                   46 -0.77324308865629987      -0.77324255086172622       -5.3779457365177308E-007 F
     orb,it,eci,eold,eci-eold=                    4                   47 -0.77324333211942742      -0.77324308865629987       -2.4346312754719435E-007 F
[...]
   16   13   16   16       -0.0000164341
   16   13   17   16        0.0000046165
   16   13   18   16       -0.0000020023
   16   13   19   16        0.0011110823
   16   13   17   17       -0.0000178135
   16   13   18   17        0.0000190132
   16   13   19   17       -0.0077280268
   16   13   18   18        0.0000021898
   16   13   19   18       -0.0040846577
   16   13   19   19        0.0004295821
   17   13   17   13        0.0133851969
   17   13   18   13        0.0005156220
   17   13   19   13       -0.0000002878
   17   13   14   14        0.0000011403
   17   13   15   14       -0.0000778316
   17   13   16   14        0.0021709500
   17   13   17   14        0.0000629413
   17   13   18   14       -0.0000066106
   17   13   19   14       -0.0000759036
   17   13   15   15        0.0000009898
   17   13   16   15       -0.0000011749
   17   13   17   15       -0.0000058532
   17   13   18   15        0.0000062706
   17   13   19   15       -0.0024948740
   17   13   16   16        0.0000003374
   17   13   17   16       -0.0000007906
   17   13   18   16        0.0000011560
   17   13   19   16       -0.0004686520
   17   13   17   17       -0.0000004839
   17   13   18   17        0.0000010704
   17   13   19   17       -0.0004805896
   17   13   18   18        0.0000001032
   17   13   19   18       -0.0003949036
   17   13   19   19        0.0001291213
   18   13   18   13        0.0120414648
   18   13   19   13        0.0000128267
   18   13   14   14       -0.0000003602
   18   13   15   14       -0.0000106832
   18   13   16   14       -0.0000294286
   18   13   17   14       -0.0000043005
   18   13   18   14       -0.0000010323
   18   13   19   14       -0.0001668579
   18   13   15   15       -0.0000008142
   18   13   16   15       -0.0000004926
   18   13   17   15        0.0000055947
   18   13   18   15        0.0000029099
   18   13   19   15       -0.0026108863
   18   13   16   16       -0.0000005802
   18   13   17   16        0.0000014118
   18   13   18   16        0.0000015119
   18   13   19   16       -0.0006055116
   18   13   17   17       -0.0000002644
   18   13   18   17        0.0000005260
   18   13   19   17        0.0001107487
   18   13   18   18       -0.0000006575
   18   13   19   18       -0.0000252928
   18   13   19   19       -0.0000155507
   19   13   19   13        0.0053394012
   19   13   14   14       -0.0001041549
   19   13   15   14        0.0000028033
   19   13   16   14        0.0000043420
   19   13   17   14       -0.0000765333
   19   13   18   14       -0.0001662410
   19   13   19   14        0.0000152146
   19   13   15   15       -0.0003042530
   19   13   16   15        0.0001999180
   19   13   17   15       -0.0019367374
   19   13   18   15       -0.0028002005
   19   13   19   15       -0.0001509063
   19   13   16   16       -0.0001045185
   19   13   17   16       -0.0004212296
   19   13   18   16       -0.0006418011
   19   13   19   16        0.0004811880
   19   13   17   17       -0.0001666916
   19   13   18   17        0.0000940354
   19   13   19   17        0.0000905511
   19   13   18   18       -0.0001939304
   19   13   19   18       -0.0000110532
   19   13   19   19       -0.0000776662
   14   14   14   14        0.3185284229
   14   14   15   14        0.0000066761
   14   14   16   14       -0.0000231003
   14   14   17   14       -0.0000008858
   14   14   18   14       -0.0000006351
   14   14   19   14        0.0006159784
   14   14   15   15        0.3008899530
   14   14   16   15       -0.0053705774
   14   14   17   15       -0.0001960510
   14   14   18   15       -0.0000355860
   14   14   19   15       -0.0000032921
   14   14   16   16        0.3245760622
   14   14   17   16        0.0006265839
   14   14   18   16       -0.0002169493
   14   14   19   16        0.0000110269
   14   14   17   17        0.3029957008
   14   14   18   17        0.0052940398
   14   14   19   17       -0.0000165108
   14   14   18   18        0.3076588168
   14   14   19   18       -0.0000031198
   14   14   19   19        0.2711922788
   15   14   15   14        0.0218863506
   15   14   16   14       -0.0414160116
   15   14   17   14       -0.0012411830
   15   14   18   14        0.0000682288
   15   14   19   14       -0.0000111038
   15   14   15   15       -0.0000286214
   15   14   16   15        0.0000570747
   15   14   17   15        0.0000018399
   15   14   18   15        0.0000007048
   15   14   19   15        0.0006693100
   15   14   16   16       -0.0000127420
   15   14   17   16       -0.0000052121
   15   14   18   16        0.0000016526
   15   14   19   16       -0.0012156752
   15   14   17   17        0.0000185505
   15   14   18   17       -0.0000200264
   15   14   19   17        0.0077475855
   15   14   18   18       -0.0000017732
   15   14   19   18        0.0041394540
   15   14   19   19        0.0010617965
   16   14   16   14        0.2059130478
   16   14   17   14        0.0057486606
   16   14   18   14       -0.0003421162
   16   14   19   14        0.0000515329
   16   14   15   15        0.0001322508
   16   14   16   15       -0.0002243377
   16   14   17   15       -0.0000077081
   16   14   18   15       -0.0000035379
   16   14   19   15       -0.0018150593
   16   14   16   16       -0.0000756218
   16   14   17   16        0.0000212398
   16   14   18   16       -0.0000093069
   16   14   19   16        0.0057411521
   16   14   17   17       -0.0000787106
   16   14   18   17        0.0000924676
   16   14   19   17       -0.0360831949
   16   14   18   18        0.0000149022
   16   14   19   18       -0.0192230823
   16   14   19   19       -0.0013066455
   17   14   17   14        0.0135095341
   17   14   18   14        0.0005028909
   17   14   19   14       -0.0000008165
   17   14   15   15        0.0000037893
   17   14   16   15       -0.0000070844
   17   14   17   15        0.0000010952
   17   14   18   15       -0.0000014213
   17   14   19   15        0.0004667054
   17   14   16   16        0.0000005490
   17   14   17   16       -0.0000048429
   17   14   18   16        0.0000060635
   17   14   19   16       -0.0022594269
   17   14   17   17       -0.0000028733
   17   14   18   17        0.0000029673
   17   14   19   17       -0.0011198804
   17   14   18   18       -0.0000003502
   17   14   19   18        0.0002232365
   17   14   19   19       -0.0000309988
   18   14   18   14        0.0120137992
   18   14   19   14        0.0000053547
   18   14   15   15       -0.0000007745
   18   14   16   15        0.0000002844
   18   14   17   15       -0.0000011358
   18   14   18   15       -0.0000000401
   18   14   19   15        0.0005337334
   18   14   16   16       -0.0000015156
   18   14   17   16        0.0000056476
   18   14   18   16        0.0000038264
   18   14   19   16       -0.0026500733
   18   14   17   17       -0.0000000872
   18   14   18   17        0.0000004104
   18   14   19   17       -0.0007838400
   18   14   18   18       -0.0000008876
   18   14   19   18        0.0001780012
   18   14   19   19       -0.0000008682
   19   14   19   14        0.0057497874
   19   14   15   15        0.0009001598
   19   14   16   15       -0.0001051493
   19   14   17   15        0.0004179011
   19   14   18   15        0.0005727811
   19   14   19   15        0.0005015810
   19   14   16   16        0.0012496192
   19   14   17   16       -0.0019445152
   19   14   18   16       -0.0028142646
   19   14   19   16        0.0000618184
   19   14   17   17        0.0004969615
   19   14   18   17       -0.0006939518
   19   14   19   17       -0.0000044496
   19   14   18   18        0.0009003707
   19   14   19   18       -0.0000069513
   19   14   19   19        0.0003681580
   15   15   15   15        0.3342598109
   15   15   16   15        0.0000074863
   15   15   17   15       -0.0000332740
   15   15   18   15       -0.0000412995
   15   15   19   15       -0.0000029633
   15   15   16   16        0.3071016626
   15   15   17   16       -0.0001100910
   15   15   18   16       -0.0001421728
   15   15   19   16        0.0000067032
   15   15   17   17        0.3099507722
   15   15   18   17        0.0041547035
   15   15   19   17       -0.0000308336
   15   15   18   18        0.3157898291
   15   15   19   18       -0.0000771757
   15   15   19   19        0.2754690204
   16   15   16   15        0.0138505463
   16   15   17   15       -0.0000075474
   16   15   18   15       -0.0000227072
   16   15   19   15        0.0000017975
   16   15   16   16       -0.0000153043
   16   15   17   16       -0.0000013322
   16   15   18   16        0.0000007757
   16   15   19   16       -0.0000053613
   16   15   17   17       -0.0000059403
   16   15   18   17       -0.0000078252
   16   15   19   17        0.0000275467
   16   15   18   18       -0.0000051062
   16   15   19   18        0.0001474887
   16   15   19   19       -0.0001157873
   17   15   17   15        0.0140520117
   17   15   18   15        0.0004918380
   17   15   19   15        0.0000043916
   17   15   16   16       -0.0000295096
   17   15   17   16       -0.0000018432
   17   15   18   16       -0.0000066857
   17   15   19   16       -0.0000109664
   17   15   17   17       -0.0000358192
   17   15   18   17       -0.0000038005
   17   15   19   17        0.0000021539
   17   15   18   18       -0.0000312397
   17   15   19   18        0.0000095886
   17   15   19   19        0.0006190818
   18   15   18   15        0.0126800062
   18   15   19   15        0.0001041460
   18   15   16   16       -0.0000275797
   18   15   17   16        0.0000013381
   18   15   18   16       -0.0000008720
   18   15   19   16       -0.0002040083
   18   15   17   17       -0.0000443512
   18   15   18   17        0.0000017903
   18   15   19   17       -0.0000084492
   18   15   18   18       -0.0000371060
   18   15   19   18        0.0000003820
   18   15   19   19       -0.0000588952
   19   15   19   15        0.0054478103
   19   15   16   16       -0.0000016111
   19   15   17   16       -0.0000103249
   19   15   18   16       -0.0002034094
   19   15   19   16       -0.0001207715
   19   15   17   17        0.0000008329
   19   15   18   17       -0.0000094550
   19   15   19   17        0.0007289129
   19   15   18   18       -0.0000013456
   19   15   19   18        0.0002311069
   19   15   19   19        0.0000076089
   16   16   16   16        0.3342964460
   16   16   17   16       -0.0001233191
   16   16   18   16       -0.0001680876
   16   16   19   16        0.0000018901
   16   16   17   17        0.3099757877
   16   16   18   17        0.0042317353
   16   16   19   17       -0.0000068426
   16   16   18   18        0.3158146029
   16   16   19   18        0.0000589587
   16   16   19   19        0.2761903460
   17   16   17   16        0.0140555937
   17   16   18   16        0.0004915731
   17   16   19   16       -0.0000055000
   17   16   17   17       -0.0001295753
   17   16   18   17       -0.0000027525
   17   16   19   17       -0.0000024786
   17   16   18   18       -0.0001302675
   17   16   19   18       -0.0000106269
   17   16   19   19       -0.0021201216
   18   16   18   16        0.0126639488
   18   16   19   16       -0.0000809790
   18   16   17   17       -0.0001749422
   18   16   18   17        0.0000234017
   18   16   19   17        0.0000120702
   18   16   18   18       -0.0001585624
   18   16   19   18        0.0000009076
   18   16   19   19       -0.0000626792
   19   16   19   16        0.0060031422
   19   16   17   17        0.0000027751
   19   16   18   17        0.0000112624
   19   16   19   17       -0.0022226692
   19   16   18   18        0.0000044765
   19   16   19   18       -0.0006831862
   19   16   19   19       -0.0000517521
   17   17   17   17        0.3406054226
   17   17   18   17        0.0046545718
   17   17   19   17        0.0000034553
   17   17   18   18        0.3202123935
   17   17   19   18        0.0000269794
   17   17   19   19        0.2931177647
   18   17   18   17        0.0110090830
   18   17   19   17       -0.0000466434
   18   17   18   18        0.0044201256
   18   17   19   18       -0.0000105642
   18   17   19   19        0.0040366981
   19   17   19   17        0.0215246277
   19   17   18   18       -0.0000174431
   19   17   19   18        0.0050678150
   19   17   19   19        0.0003477426
   18   18   18   18        0.3403447903
   18   18   19   18       -0.0000018563
   18   18   19   19        0.2796118378
   19   18   19   18        0.0119823816
   19   18   19   19        0.0003130960
   19   19   19   19        0.2948618181
 end_two_electron_integrals


 output epsi filename:./pspw_hf_H2.emovecs

 Total PSPW energy     :  -0.7713553673E+00


=== Spin Contamination ===

 <Sexact^2> =    0.0000000000000000     
 <S^2>      =    0.0000000000000000     



== Center of Charge ==

spin up     (    0.0000,    0.0000,    0.0000 )
spin down   (    0.0000,    0.0000,    0.0000 )
     total  (    0.0000,    0.0000,    0.0000 )
ionic       (    0.0000,    0.0000,    0.0000 )


== Molecular Dipole wrt Center of Mass ==

mu   =  (   -0.0000,   -0.0000,   -0.0000 ) au
|mu| =     0.0000 au,       0.0000 Debye

 output psi filename:./pspw_hf_H2.movecs

 Writing Crystallographic Information File:./H2.cif
   - cell not shifted (nwpw:cif_shift_cell .false.)


== Timing ==

cputime in seconds
  prologue    :   0.961790E+01
  main loop   :   0.391539E+04
  epilogue    :   0.516596E-01
  total       :   0.392506E+04
  cputime/step:   0.226323E+02       (     173 evalulations,      72 linesearches)


Time spent doing                        total          step       percent
  total time                 :   0.392507E+04  0.226883E+02       100.0 %
  i/o time                   :   0.272166E+01  0.157321E-01         0.1 %
  FFTs                       :   0.296673E+04  0.171487E+02        75.6 %
  dot products               :   0.210433E+02  0.121637E+00         0.5 %
  geodesic                   :   0.108494E+00  0.627134E-03         0.0 %
  ffm_dgemm                  :   0.264401E-01  0.152833E-03         0.0 %
  fmf_dgemm                  :   0.361104E-01  0.208730E-03         0.0 %
  mmm_dgemm                  :   0.403531E-02  0.233255E-04         0.0 %
  m_diagonalize              :   0.157459E-02  0.910165E-05         0.0 %
  local pseudopotentials     :   0.495335E+02  0.286321E+00         1.3 %
  non-local pseudopotentials :   0.165044E+02  0.954014E-01         0.4 %
  structure factors          :   0.784480E+01  0.453457E-01         0.2 %
  phase factors              :   0.150000E-04  0.867052E-07         0.0 %
  masking and packing        :   0.583205E+02  0.337113E+00         1.5 %
  queue fft                  :   0.424674E+02  0.245476E+00         1.1 %
  queue fft (serial)         :   0.148233E+02  0.856841E-01         0.4 %
  queue fft (message passing):   0.273200E+02  0.157919E+00         0.7 %
  HFX potential              :   0.375279E+02  0.216924E+00         1.0 %
  non-local psp FFM          :   0.149103E+02  0.861867E-01         0.4 %
  non-local psp FMF          :   0.458609E+00  0.265092E-02         0.0 %
  non-local psp FFM A        :   0.562284E+00  0.325020E-02         0.0 %
  non-local psp FFM B        :   0.767562E+00  0.443678E-02         0.0 %

== HFX Counters ==
  HFX Evalulations         =   173
  Lin ACE HFX Evalulations =     0


     >>>  JOB COMPLETED     AT Tue Apr 22 11:14:24 2025  <<<

 Task  times  cpu:     3677.2s     wall:     3925.1s


                                NWChem Input Module
                                -------------------


 Summary of allocated global arrays
-----------------------------------
  No active global arrays


MA_summarize_allocated_blocks: starting scan ...
MA_summarize_allocated_blocks: scan completed: 0 heap blocks, 0 stack blocks
MA usage statistics:

	allocation statistics:
					      heap	     stack
					      ----	     -----
	current number of blocks	         0	         0
	maximum number of blocks	       313	        36
	current total bytes		         0	         0
	maximum total bytes		  98497816	  26449720
	maximum total K-bytes		     98498	     26450
	maximum total M-bytes		        99	        27


                                     CITATION
                                     --------
                Please cite the following reference when publishing
                           results obtained with NWChem:

          E. Apra, E. J. Bylaska, W. A. de Jong, N. Govind, K. Kowalski,
       T. P. Straatsma, M. Valiev, H. J. J. van Dam, Y. Alexeev, J. Anchell,
       V. Anisimov, F. W. Aquino, R. Atta-Fynn, J. Autschbach, N. P. Bauman,
     J. C. Becca, D. E. Bernholdt, K. Bhaskaran-Nair, S. Bogatko, P. Borowski,
         J. Boschen, J. Brabec, A. Bruner, E. Cauet, Y. Chen, G. N. Chuev,
      C. J. Cramer, J. Daily, M. J. O. Deegan, T. H. Dunning Jr., M. Dupuis,
   K. G. Dyall, G. I. Fann, S. A. Fischer, A. Fonari, H. Fruchtl, L. Gagliardi,
      J. Garza, N. Gawande, S. Ghosh, K. Glaesemann, A. W. Gotz, J. Hammond,
       V. Helms, E. D. Hermes, K. Hirao, S. Hirata, M. Jacquelin, L. Jensen,
   B. G. Johnson, H. Jonsson, R. A. Kendall, M. Klemm, R. Kobayashi, V. Konkov,
      S. Krishnamoorthy, M. Krishnan, Z. Lin, R. D. Lins, R. J. Littlefield,
      A. J. Logsdail, K. Lopata, W. Ma, A. V. Marenich, J. Martin del Campo,
   D. Mejia-Rodriguez, J. E. Moore, J. M. Mullin, T. Nakajima, D. R. Nascimento,
    J. A. Nichols, P. J. Nichols, J. Nieplocha, A. Otero-de-la-Roza, B. Palmer,
    A. Panyala, T. Pirojsirikul, B. Peng, R. Peverati, J. Pittner, L. Pollack,
   R. M. Richard, P. Sadayappan, G. C. Schatz, W. A. Shelton, D. W. Silverstein,
   D. M. A. Smith, T. A. Soares, D. Song, M. Swart, H. L. Taylor, G. S. Thomas,
            V. Tipparaju, D. G. Truhlar, K. Tsemekhman, T. Van Voorhis,
      A. Vazquez-Mayagoitia, P. Verma, O. Villa, A. Vishnu, K. D. Vogiatzis,
        D. Wang, J. H. Weare, M. J. Williamson, T. L. Windus, K. Wolinski,
        A. T. Wong, Q. Wu, C. Yang, Q. Yu, M. Zacharias, Z. Zhang, Y. Zhao,
                                and R. J. Harrison
                        "NWChem: Past, present, and future
                         J. Chem. Phys. 152, 184102 (2020)
                               doi:10.1063/5.0004997

                                      AUTHORS
                                      -------
  E. Apra, E. J. Bylaska, N. Govind, K. Kowalski, M. Valiev, D. Mejia-Rodriguez,
       A. Kunitsa, N. P. Bauman, A. Panyala, W. A. de Jong, T. P. Straatsma,
   H. J. J. van Dam, D. Wang, T. L. Windus, J. Hammond, J. Autschbach, A. Woods,
    K. Bhaskaran-Nair, J. Brabec, K. Lopata, S. A. Fischer, S. Krishnamoorthy,
     M. Jacquelin, W. Ma, M. Klemm, O. Villa, Y. Chen, V. Anisimov, F. Aquino,
     S. Hirata, M. T. Hackler, E. Hermes, L. Jensen, J. E. Moore, J. C. Becca,
      V. Konjkov, T. Risthaus, M. Malagoli, A. Marenich, A. Otero-de-la-Roza,
        J. Mullin, P. Nichols, R. Peverati, J. Pittner, Y. Zhao, P.-D. Fan,
        A. Fonari, M. J. Williamson, R. J. Harrison, J. R. Rehr, M. Dupuis,
     D. Silverstein, D. M. A. Smith, J. Nieplocha, V. Tipparaju, M. Krishnan,
     B. E. Van Kuiken, A. Vazquez-Mayagoitia, M. Swart, Q. Wu, T. Van Voorhis,
     A. A. Auer, M. Nooijen, L. D. Crosby, E. Brown, G. Cisneros, G. I. Fann,
   H. Fruchtl, J. Garza, K. Hirao, R. A. Kendall, J. A. Nichols, K. Tsemekhman,
    K. Wolinski, J. Anchell, D. E. Bernholdt, P. Borowski, T. Clark, D. Clerc,
   H. Dachsel, M. J. O. Deegan, K. Dyall, D. Elwood, E. Glendening, M. Gutowski,
   A. C. Hess, J. Jaffe, B. G. Johnson, J. Ju, R. Kobayashi, R. Kutteh, Z. Lin,
   R. Littlefield, X. Long, B. Meng, T. Nakajima, S. Niu, L. Pollack, M. Rosing,
   K. Glaesemann, G. Sandrone, M. Stave, H. Taylor, G. Thomas, J. H. van Lenthe,
                               A. T. Wong, Z. Zhang.

 Total times  cpu:     3677.2s     wall:     3925.1s
