 argument  1 = H2-0.7.nw



============================== echo of input deck ==============================
title "swnc: e theory=pspw4 xc=hf formula=H2 charge=0 mult=1"
#machinejob:expert

echo

start pspw_hf_H2

memory heap 1200 mb stack 1200 mb global 10 mb

charge 0

geometry
H    0.00000    0.00000   -0.35000
H    0.00000    0.00000    0.35000
end

nwpw
  ### pseudopotential block begin ###
  ### pseudopotential block end   ###
  simulation_cell
     SC 15.0000
     boundary_conditions aperiodic
  end

  cutoff 50.0
  mult 1
  xc hf
  lmbfgs
  tolerances 1.0e-9 1.0e-9

  virtual 18
end
set nwpw:cif_filename H2

#set nwpw:CI_maxit_orb 15
#set nwpw:CI_maxit_linesearch 15
set pspw:HFX_screening_radius 14.0


set nwpw:2qintegrals .true.
#set nwpw:3x3_virtual .true.

task pspw energy

================================================================================


                                         
                                         


             Northwest Computational Chemistry Package (NWChem) 7.2.2
             --------------------------------------------------------


                    Environmental Molecular Sciences Laboratory
                       Pacific Northwest National Laboratory
                                Richland, WA 99352

                              Copyright (c) 1994-2022
                       Pacific Northwest National Laboratory
                            Battelle Memorial Institute

             NWChem is an open-source computational chemistry package
                        distributed under the terms of the
                      Educational Community License (ECL) 2.0
             A copy of the license is included with this distribution
                              in the LICENSE.TXT file

                                  ACKNOWLEDGMENT
                                  --------------

            This software and its documentation were developed at the
            EMSL at Pacific Northwest National Laboratory, a multiprogram
            national laboratory, operated for the U.S. Department of Energy
            by Battelle under Contract Number DE-AC05-76RL01830. Support
            for this work was provided by the Department of Energy Office
            of Biological and Environmental Research, Office of Basic
            Energy Sciences, and the Office of Advanced Scientific Computing.


           Job information
           ---------------

    hostname        = LAPTOP-JJQSTSEL
    program         = nwchem
    date            = Thu May  1 20:06:10 2025

    compiled        = Fri_Jun_07_07:50:04_2024
    source          = /home/conda/feedstock_root/build_artifacts/nwchem_1717738148552/work
    nwchem branch   = 7.2.2
    nwchem revision = 64ba0f0
    ga revision     = 5.8.0
    use scalapack   = T
    input           = H2-0.7.nw
    prefix          = pspw_hf_H2.
    data base       = ./pspw_hf_H2.db
    status          = startup
    nproc           =        1
    time left       =     -1s



           Memory information
           ------------------

    heap     =  157286400 doubles =   1200.0 Mbytes
    stack    =  157286397 doubles =   1200.0 Mbytes
    global   =    1310720 doubles =     10.0 Mbytes (distinct from heap & stack)
    total    =  315883517 doubles =   2410.0 Mbytes
    verify   = yes
    hardfail = no 


           Directory information
           ---------------------

  0 permanent = .
  0 scratch   = .




                                NWChem Input Module
                                -------------------


               swnc: e theory=pspw4 xc=hf formula=H2 charge=0 mult=1
               -----------------------------------------------------

 Scaling coordinates for geometry "geometry" by  1.889725989
 (inverse scale =  0.529177249)

 ORDER OF PRIMARY AXIS IS BEING SET TO 4
 D4H symmetry detected

          ------
          auto-z
          ------
  no constraints, skipping    0.0000000000000000     
  no constraints, skipping    0.0000000000000000     


                             Geometry "geometry" -> ""
                             -------------------------

 Output coordinates in angstroms (scale by  1.889725989 to convert to a.u.)

  No.       Tag          Charge          X              Y              Z
 ---- ---------------- ---------- -------------- -------------- --------------
    1 H                    1.0000     0.00000000     0.00000000    -0.35000000
    2 H                    1.0000     0.00000000     0.00000000     0.35000000

      Atomic Mass 
      ----------- 

      H                  1.007825


 Effective nuclear repulsion energy (a.u.)       0.7559674986

            Nuclear Dipole moment (a.u.) 
            ----------------------------
        X                 Y               Z
 ---------------- ---------------- ----------------
     0.0000000000     0.0000000000     0.0000000000

      Symmetry information
      --------------------

 Group name             D4h       
 Group number             28
 Group order              16
 No. of unique centers     1

      Symmetry unique atoms

     1



                                Z-matrix (autoz)
                                -------- 

 Units are Angstrom for bonds and degrees for angles

      Type          Name      I     J     K     L     M      Value
      ----------- --------  ----- ----- ----- ----- ----- ----------
    1 Stretch                  1     2                       0.70000


            XYZ format geometry
            -------------------
     2
 geometry
 H                     0.00000000     0.00000000    -0.35000000
 H                     0.00000000     0.00000000     0.35000000

          ****************************************************
          *                                                  *
          *               NWPW PSPW Calculation              *
          *                                                  *
          * [ (Grassmann/Stiefel manifold implementation)  ] *
          *                                                  *
          *      [ NorthWest Chemistry implementation ]      *
          *                                                  *
          *            version #5.10   06/12/02              *
          *                                                  *
          *    This code was developed by Eric J. Bylaska,   *
          *    and was based upon algorithms and code        *
          *    developed by the group of Prof. John H. Weare *
          *                                                  *
          ****************************************************
     >>>  JOB STARTED       AT Thu May  1 20:06:10 2025  <<<
          ================ input data ========================

 input psi filename:./pspw_hf_H2.movecs

 number of processors used:         1
 processor grid           :   1 x   1
 parallel mapping         :2d-hilbert
 parallel mapping         :  balanced
 number of threads        :         1
 parallel io              :       off

 options:
      boundary conditions  = aperiodic   (version4)
      electron spin        = restricted
      exchange-correlation = Hartree-Fock
      - HFX relaxed
      - HFX restricted orbitals :    1
      - HFX free-space coulomb solver


 elements involved in the cluster:
      1: H   valence charge:  1.0000  lmax=  1
             comment    : Parameterized (Chem.Phys.Lett., vol 322, page 447) Hamman psp
             pseudpotential type            :   0
             highest angular component      :   1
             local potential used           :   1
             number of non-local projections:   1
             aperiodic cutoff radius        :  1.000
             cutoff =   0.800   0.800


 total charge:   0.000

 atomic composition:
     H   :    2

 number of electrons: spin up=     1 (   1 per task)  down=     1 (   1 per task) (Fourier space)
 number of orbitals : spin up=     1 (   1 per task)  down=     1 (   1 per task) (Fourier space)

 supercell:
      cell_name:  cell_default                                      
      lattice:    a1=<  15.000   0.000   0.000 >
                  a2=<   0.000  15.000   0.000 >
                  a3=<   0.000   0.000  15.000 >
      reciprocal: b1=<   0.419   0.000   0.000 >
                  b2=<   0.000   0.419   0.000 >
                  b3=<   0.000   0.000   0.419 >
      lattice:    a=      15.000 b=     15.000 c=      15.000
                  alpha=  90.000 beta=  90.000 gamma=  90.000
                  omega=      3375.0

      density cutoff=100.000  fft= 70x 70x 70(    80618 waves    80618 per task)
      wavefnc cutoff= 50.000  fft= 70x 70x 70(    28526 waves    28526 per task)

 technical parameters:
      time step=      5.80     fictitious mass=  400000.0
      tolerance=0.100E-08 (energy)   0.100E-08 (density)
      maximum iterations =      1000 (   10 inner    100 outer )





== Energy Calculation ==


          ============ Grassmann lmbfgs iteration ============
     >>>  ITERATION STARTED AT Thu May  1 20:06:16 2025  <<<
    iter.           Energy         DeltaE       DeltaRho 
    ------------------------------------------------------
      10   -0.1136977702E+01   -0.79084E-04    0.29522E-02
      20   -0.1137131949E+01   -0.17285E-05    0.26751E-05
      30   -0.1137135861E+01   -0.46631E-07    0.27718E-08
      40   -0.1137135966E+01   -0.92530E-09    0.10122E-10
  *** tolerance ok. iteration terminated
     >>>  ITERATION ENDED   AT Thu May  1 20:06:41 2025  <<<


==  Summary Of Results  ==

 number of electrons: spin up=    1.00000  down=    1.00000 (real space)

 total     energy    :  -0.1137135966E+01 (   -0.56857E+00/ion)
 total orbital energy:  -0.1220478608E+01 (   -0.12205E+01/electron)
 hartree   energy    :   0.1345249713E+01 (    0.13452E+01/electron)
 exc-corr  energy    :   0.0000000000E+00 (    0.00000E+00/electron)
 HF exchange energy  :  -0.6726248563E+00 (   -0.67262E+00/electron)
 ion-ion   energy    :   0.7559674986E+00 (    0.37798E+00/ion)

 kinetic (planewave) :   0.1113994235E+01 (    0.11140E+01/electron)
 V_local (planewave) :  -0.3336892849E+01 (   -0.33369E+01/electron)
 V_nl    (planewave) :  -0.3428297062E+00 (   -0.34283E+00/electron)
 V_Coul  (planewave) :   0.2690499425E+01 (    0.26905E+01/electron)
 V_xc.   (planewave) :   0.0000000000E+00 (    0.00000E+00/electron)
 K.S. HFX energy     :  -0.1345249713E+01 (   -0.13452E+01/electron)
 Virial Coefficient  :  -0.8879966333E+00

 orbital energies:
    -0.6102393E+00 ( -16.606eV)


== Virtual Orbital Calculation ==


 input epsi filename:./pspw_hf_H2.emovecs
     orbital   1 current e= 0.606E-02 (error=0.871E-09) iterations  43(  17 preconditioned, Ep,Sp= 20.0  200.0)
     orbital   2 current e= 0.825E-01 (error=0.810E-09) iterations  64(  25 preconditioned, Ep,Sp= 20.0  200.0)
     orbital   3 current e= 0.859E-01 (error=0.852E-09) iterations  33(   7 preconditioned, Ep,Sp= 20.0  200.0)
     orbital   4 current e= 0.859E-01 (error=0.875E-09) iterations  33(   7 preconditioned, Ep,Sp= 20.0  200.0)
     orbital   5 current e= 0.873E-01 (error=0.872E-09) iterations  23(   1 preconditioned, Ep,Sp= 20.0  200.0)
     orbital   6 current e= 0.878E-01 (error=0.792E-09) iterations  11(   1 preconditioned, Ep,Sp= 20.0  200.0)
     orbital   7 current e= 0.111E+00 (error=0.794E-09) iterations  58(  28 preconditioned, Ep,Sp= 20.0  200.0)
     orbital   8 current e= 0.159E+00 (error=0.831E-09) iterations  67(  41 preconditioned, Ep,Sp= 20.0  200.0)
     orbital   9 current e= 0.170E+00 (error=0.941E-09) iterations  50(  13 preconditioned, Ep,Sp= 20.0  200.0)
     orbital  10 current e= 0.170E+00 (error=0.939E-09) iterations  50(  13 preconditioned, Ep,Sp= 20.0  200.0)
     orbital  11 current e= 0.175E+00 (error=0.827E-09) iterations  35(   3 preconditioned, Ep,Sp= 20.0  200.0)
     orbital  12 current e= 0.175E+00 (error=0.866E-09) iterations  38(   2 preconditioned, Ep,Sp= 20.0  200.0)
     orbital  13 current e= 0.175E+00 (error=0.876E-09) iterations  38(   2 preconditioned, Ep,Sp= 20.0  200.0)
     orbital  14 current e= 0.175E+00 (error=0.960E-09) iterations  30(   1 preconditioned, Ep,Sp= 20.0  200.0)
     orbital  15 current e= 0.175E+00 (error=0.923E-09) iterations  25(   1 preconditioned, Ep,Sp= 20.0  200.0)
     orbital  16 current e= 0.175E+00 (error=0.944E-09) iterations  25(   1 preconditioned, Ep,Sp= 20.0  200.0)
     orbital  17 current e= 0.176E+00 (error=0.861E-09) iterations  13(   1 preconditioned, Ep,Sp= 20.0  200.0)
     orbital  18 current e= 0.176E+00 (error=0.989E-09) iterations  13(   1 preconditioned, Ep,Sp= 20.0  200.0)

 virtual orbital energies:
     0.1756493E+00 (   4.780eV)
     0.1755272E+00 (   4.776eV)
     0.1753688E+00 (   4.772eV)
     0.1753688E+00 (   4.772eV)
     0.1753588E+00 (   4.772eV)
     0.1748588E+00 (   4.758eV)
     0.1748588E+00 (   4.758eV)
     0.1748174E+00 (   4.757eV)
     0.1701172E+00 (   4.629eV)
     0.1701172E+00 (   4.629eV)
     0.1593554E+00 (   4.336eV)
     0.1107818E+00 (   3.015eV)
     0.8784194E-01 (   2.390eV)
     0.8730466E-01 (   2.376eV)
     0.8587510E-01 (   2.337eV)
     0.8587510E-01 (   2.337eV)
     0.8249217E-01 (   2.245eV)
     0.6059167E-02 (   0.165eV)


 == Generating One-Electron and Two-Electron Integrals ==

 begin_one_electron_integrals
    1    1        -1.2828641602
    2    1        -0.0324953477
    3    1         0.0000002603
    4    1         0.0000001234
    5    1        -0.0000002825
    6    1        -0.0020235291
    7    1         0.0000010840
    8    1         0.0470766300
    9    1         0.0000006666
   10    1        -0.0000001996
   11    1        -0.0000010107
   12    1        -0.0013015918
   13    1         0.0000005363
   14    1        -0.0000011364
   15    1        -0.0000071751
   16    1        -0.0000007169
   17    1        -0.0000001590
   18    1         0.0000022644
   19    1         0.0000055848
    2    2        -0.2730647448
    3    2         0.0000009572
    4    2         0.0000002872
    5    2         0.0000002997
    6    2        -0.0018266131
    7    2         0.0000006745
    8    2         0.0694969150
    9    2        -0.0000000305
   10    2        -0.0000002086
   11    2        -0.0000004904
   12    2        -0.0003686205
   13    2         0.0000005023
   14    2        -0.0000007522
   15    2        -0.0000054642
   16    2        -0.0000004917
   17    2        -0.0000000324
   18    2         0.0000017869
   19    2         0.0000037753
    3    3        -0.2607462662
    4    3         0.0000001868
    5    3         0.0000002788
    6    3        -0.0000054861
    7    3         0.0000000935
    8    3         0.0000002504
    9    3         0.1183460935
   10    3        -0.0000000187
   11    3        -0.0000003440
   12    3        -0.0000008567
   13    3        -0.0000002153
   14    3        -0.0000001424
   15    3        -0.0000010667
   16    3         0.0000001077
   17    3         0.0000006323
   18    3         0.0000007227
   19    3        -0.0000020269
    4    4        -0.2325091795
    5    4        -0.0000000053
    6    4         0.0000021930
    7    4        -0.0000067206
    8    4        -0.0000001450
    9    4        -0.0000003810
   10    4         0.0920825951
   11    4        -0.0183361743
   12    4        -0.0000004961
   13    4        -0.0000000308
   14    4        -0.0000003040
   15    4         0.0000059010
   16    4         0.0004729176
   17    4        -0.0038005516
   18    4        -0.0000002647
   19    4         0.0000003730
    5    5        -0.2325093240
    6    5         0.0000050468
    7    5         0.0000030063
    8    5         0.0000008742
    9    5        -0.0000007286
   10    5        -0.0183361893
   11    5        -0.0920826595
   12    5        -0.0000008494
   13    5         0.0000002272
   14    5        -0.0000002097
   15    5         0.0000124991
   16    5         0.0038007010
   17    5         0.0004727861
   18    5        -0.0000005398
   19    5         0.0000000630
    6    6        -0.1914103156
    7    6        -0.0000000620
    8    6         0.0007392032
    9    6         0.0000093749
   10    6        -0.0000024238
   11    6         0.0000110543
   12    6        -0.0428486417
   13    6        -0.0000003145
   14    6        -0.0000175389
   15    6         0.0000000156
   16    6        -0.0000015628
   17    6         0.0000006646
   18    6        -0.0000000025
   19    6         0.0000010706
    7    7        -0.1892227229
    8    7        -0.0000015535
    9    7        -0.0000003103
   10    7         0.0000138417
   11    7         0.0000030473
   12    7         0.0000002613
   13    7        -0.0000002530
   14    7        -0.0000005209
   15    7         0.0000004458
   16    7         0.0000006062
   17    7         0.0000014371
   18    7         0.0000021660
   19    7         0.0414575155
    8    8        -0.1781299493
    9    8        -0.0000009562
   10    8         0.0000003018
   11    8         0.0000019200
   12    8         0.0001859493
   13    8        -0.0000010888
   14    8         0.0000014178
   15    8         0.0000112883
   16    8         0.0000010560
   17    8         0.0000002715
   18    8        -0.0000035873
   19    8        -0.0000068641
    9    9        -0.2304727389
   10    9         0.0000003337
   11    9        -0.0000001560
   12    9         0.0000046634
   13    9        -0.0000002013
   14    9         0.0000002272
   15    9        -0.0000006371
   16    9         0.0000001392
   17    9        -0.0000008796
   18    9        -0.0000030502
   19    9         0.0000077545
   10   10        -0.1846668894
   11   10        -0.0000000117
   12   10        -0.0000008941
   13   10        -0.0000001001
   14   10         0.0000002383
   15   10        -0.0000033804
   16   10         0.0002711208
   17   10         0.0037200208
   18   10         0.0000004921
   19   10        -0.0000072537
   11   11        -0.1846668151
   12   11         0.0000047246
   13   11        -0.0000000308
   14   11        -0.0000001187
   15   11         0.0000135836
   16   11         0.0037203250
   17   11        -0.0002712122
   18   11        -0.0000019875
   19   11        -0.0000006907
   12   12        -0.1017793248
   13   12         0.0000003452
   14   12         0.0000136644
   15   12        -0.0000001923
   16   12        -0.0000001584
   17   12         0.0000000024
   18   12        -0.0000000961
   19   12         0.0000002580
   13   13        -0.1352049866
   14   13         0.0000000318
   15   13         0.0000000277
   16   13        -0.0000012280
   17   13        -0.0000010873
   18   13         0.0000012637
   19   13         0.0000005889
   14   14        -0.1352051462
   15   14         0.0000001475
   16   14        -0.0000011178
   17   14         0.0000010322
   18   14        -0.0000010658
   19   14         0.0000009537
   15   15        -0.1325055393
   16   15         0.0000977255
   17   15        -0.0000320038
   18   15        -0.0000002980
   19   15         0.0000014669
   16   16        -0.1038810206
   17   16         0.0000000726
   18   16         0.0000001506
   19   16         0.0000001106
   17   17        -0.1038808898
   18   17         0.0000000048
   19   17         0.0000005527
   18   18        -0.1033530387
   19   18         0.0000001280
   19   19        -0.1004103986
 end_one_electron_integrals

 begin_two_electron_integrals
    1    1    1    1        0.6726248563
    1    1    2    1        0.0325048106
    1    1    3    1       -0.0000002596
    1    1    4    1       -0.0000001234
    1    1    5    1        0.0000002824
    1    1    6    1        0.0020211668
    1    1    7    1       -0.0000010840
    1    1    8    1       -0.0470662820
    1    1    9    1       -0.0000006671
    1    1   10    1        0.0000001995
    1    1   11    1        0.0000010108
    1    1   12    1        0.0012993756
    1    1   13    1       -0.0000005362
    1    1   14    1        0.0000011354
    1    1   15    1        0.0000071743
    1    1   16    1        0.0000007167
    1    1   17    1        0.0000001591
    1    1   18    1       -0.0000022641
    1    1   19    1       -0.0000055848
    1    1    2    2        0.1407736013
    1    1    3    2       -0.0000006784
    1    1    4    2       -0.0000002081
    1    1    5    2       -0.0000002782
    1    1    6    2        0.0009931442
    1    1    7    2       -0.0000003759
    1    1    8    2       -0.0365515380
    1    1    9    2        0.0000002475
    1    1   10    2        0.0000001583
    1    1   11    2        0.0000000801
    1    1   12    2        0.0002387207
    1    1   13    2       -0.0000002702
    1    1   14    2        0.0000004190
    1    1   15    2        0.0000030108
    1    1   16    2        0.0000002825
    1    1   17    2        0.0000000209
    1    1   18    2       -0.0000009820
    1    1   19    2       -0.0000021089
    1    1    3    3        0.1741367576
    1    1    4    3       -0.0000000854
    1    1    5    3       -0.0000001351
    1    1    6    3        0.0000026904
    1    1    7    3       -0.0000000468
    1    1    8    3        0.0000000040
    1    1    9    3       -0.0632344996
    1    1   10    3        0.0000000245
    1    1   11    3        0.0000001648
    1    1   12    3        0.0000003238
    1    1   13    3        0.0000001004
    1    1   14    3        0.0000000668
    1    1   15    3        0.0000005383
    1    1   16    3       -0.0000000438
    1    1   17    3       -0.0000003476
    1    1   18    3       -0.0000004517
    1    1   19    3        0.0000011970
    1    1    4    4        0.1601527725
    1    1    5    4        0.0000000029
    1    1    6    4       -0.0000011004
    1    1    7    4        0.0000033166
    1    1    8    4        0.0000001198
    1    1    9    4        0.0000001863
    1    1   10    4       -0.0476016323
    1    1   11    4        0.0094787932
    1    1   12    4        0.0000002582
    1    1   13    4        0.0000000238
    1    1   14    4        0.0000001475
    1    1   15    4       -0.0000030596
    1    1   16    4       -0.0002444898
    1    1   17    4        0.0019647921
    1    1   18    4        0.0000001448
    1    1   19    4       -0.0000001443
    1    1    5    5        0.1601528478
    1    1    6    5       -0.0000025332
    1    1    7    5       -0.0000014869
    1    1    8    5       -0.0000003342
    1    1    9    5        0.0000003790
    1    1   10    5        0.0094788013
    1    1   11    5        0.0476016685
    1    1   12    5        0.0000004435
    1    1   13    5       -0.0000001244
    1    1   14    5        0.0000000979
    1    1   15    5       -0.0000064823
    1    1   16    5       -0.0019648724
    1    1   17    5       -0.0002444185
    1    1   18    5        0.0000002949
    1    1   19    5       -0.0000000622
    1    1    6    6        0.1394231445
    1    1    7    6        0.0000000298
    1    1    8    6       -0.0004875999
    1    1    9    6       -0.0000046840
    1    1   10    6        0.0000012216
    1    1   11    6       -0.0000055747
    1    1   12    6        0.0214988804
    1    1   13    6        0.0000001597
    1    1   14    6        0.0000088011
    1    1   15    6        0.0000000073
    1    1   16    6        0.0000007858
    1    1   17    6       -0.0000003319
    1    1   18    6       -0.0000000033
    1    1   19    6       -0.0000005508
    1    1    7    7        0.1385789172
    1    1    8    7        0.0000008127
    1    1    9    7        0.0000001548
    1    1   10    7       -0.0000068941
    1    1   11    7       -0.0000015224
    1    1   12    7       -0.0000001310
    1    1   13    7        0.0000001266
    1    1   14    7        0.0000002614
    1    1   15    7       -0.0000002234
    1    1   16    7       -0.0000003042
    1    1   17    7       -0.0000007208
    1    1   18    7       -0.0000010872
    1    1   19    7       -0.0207824036
    1    1    8    8        0.1471830302
    1    1    9    8        0.0000003788
    1    1   10    8       -0.0000001908
    1    1   11    8       -0.0000008910
    1    1   12    8       -0.0001741409
    1    1   13    8        0.0000005624
    1    1   14    8       -0.0000007557
    1    1   15    8       -0.0000060330
    1    1   16    8       -0.0000005761
    1    1   17    8       -0.0000001498
    1    1   18    8        0.0000019226
    1    1   19    8        0.0000037543
    1    1    9    9        0.2015344804
    1    1   10    9       -0.0000001570
    1    1   11    9        0.0000000513
    1    1   12    9       -0.0000021909
    1    1   13    9        0.0000001351
    1    1   14    9       -0.0000001322
    1    1   15    9        0.0000004369
    1    1   16    9       -0.0000000949
    1    1   17    9        0.0000004573
    1    1   18    9        0.0000017667
    1    1   19    9       -0.0000042554
    1    1   10   10        0.1800629645
    1    1   11   10        0.0000000061
    1    1   12   10        0.0000004452
    1    1   13   10        0.0000000563
    1    1   14   10       -0.0000001254
    1    1   15   10        0.0000017889
    1    1   16   10       -0.0001435713
    1    1   17   10       -0.0019699426
    1    1   18   10       -0.0000002590
    1    1   19   10        0.0000035924
    1    1   11   11        0.1800629246
    1    1   12   11       -0.0000023629
    1    1   13   11        0.0000000209
    1    1   14   11        0.0000000621
    1    1   15   11       -0.0000071901
    1    1   16   11       -0.0019701069
    1    1   17   11        0.0001436227
    1    1   18   11        0.0000010418
    1    1   19   11        0.0000003175
    1    1   12   12        0.1383874911
    1    1   13   12       -0.0000001744
    1    1   14   12       -0.0000068683
    1    1   15   12        0.0000001114
    1    1   16   12        0.0000000853
    1    1   17   12       -0.0000000008
    1    1   18   12        0.0000000457
    1    1   19   12       -0.0000001404
    1    1   13   13        0.1551905466
    1    1   14   13       -0.0000000160
    1    1   15   13       -0.0000000157
    1    1   16   13        0.0000006040
    1    1   17   13        0.0000005338
    1    1   18   13       -0.0000006142
    1    1   19   13       -0.0000002981
    1    1   14   14        0.1551906269
    1    1   15   14       -0.0000000760
    1    1   16   14        0.0000005478
    1    1   17   14       -0.0000005059
    1    1   18   14        0.0000005282
    1    1   19   14       -0.0000004838
    1    1   15   15        0.1540611501
    1    1   16   15       -0.0000492112
    1    1   17   15        0.0000161158
    1    1   18   15        0.0000001496
    1    1   19   15       -0.0000007356
    1    1   16   16        0.1396444165
    1    1   17   16       -0.0000000371
    1    1   18   16       -0.0000000784
    1    1   19   16       -0.0000000525
    1    1   17   17        0.1396443493
    1    1   18   17       -0.0000000016
    1    1   19   17       -0.0000002721
    1    1   18   18        0.1394547838
    1    1   19   18       -0.0000000634
    1    1   19   19        0.1380943536
    2    1    2    1        0.0024232912
    2    1    3    1       -0.0000003809
    2    1    4    1       -0.0000001247
    2    1    5    1       -0.0000002354
    2    1    6    1        0.0001602155
    2    1    7    1       -0.0000000869
    2    1    8    1       -0.0036253839
    2    1    9    1        0.0000004629
    2    1   10    1        0.0000001076
    2    1   11    1       -0.0000003252
    2    1   12    1        0.0001088118
    2    1   13    1       -0.0000000417
    2    1   14    1        0.0000000913
    2    1   15    1        0.0000005686
    2    1   16    1        0.0000000732
    2    1   17    1        0.0000000079
    2    1   18    1       -0.0000001790
    2    1   19    1       -0.0000004471
    2    1    2    2        0.0003886295
    2    1    3    2        0.0000018051
    2    1    4    2        0.0000008884
    2    1    5    2        0.0000019993
    2    1    6    2       -0.0000084399
    2    1    7    2       -0.0000000134
    2    1    8    2       -0.0005806854
    2    1    9    2       -0.0000001285
    2    1   10    2       -0.0000000857
    2    1   11    2        0.0000004013
    2    1   12    2       -0.0000041530
    2    1   13    2       -0.0000000075
    2    1   14    2        0.0000000043
    2    1   15    2        0.0000000881
    2    1   16    2       -0.0000000110
    2    1   17    2        0.0000000081
    2    1   18    2       -0.0000000281
    2    1   19    2       -0.0000000691
    2    1    3    3        0.0010600447
    2    1    4    3       -0.0000000035
    2    1    5    3       -0.0000000061
    2    1    6    3        0.0000011174
    2    1    7    3       -0.0000000007
    2    1    8    3       -0.0000004855
    2    1    9    3       -0.0015679027
    2    1   10    3        0.0000000032
    2    1   11    3        0.0000000014
    2    1   12    3        0.0000004556
    2    1   13    3        0.0000009267
    2    1   14    3        0.0000020043
    2    1   15    3        0.0000000036
    2    1   16    3        0.0000000013
    2    1   17    3       -0.0000000109
    2    1   18    3       -0.0000000317
    2    1   19    3        0.0000000643
    2    1    4    4        0.0006027021
    2    1    5    4       -0.0000000006
    2    1    6    4       -0.0000002625
    2    1    7    4        0.0000010083
    2    1    8    4       -0.0000001973
    2    1    9    4        0.0000000060
    2    1   10    4       -0.0008855384
    2    1   11    4        0.0001763352
    2    1   12    4       -0.0000000980
    2    1   13    4       -0.0000012368
    2    1   14    4        0.0000014202
    2    1   15    4        0.0000008144
    2    1   16    4       -0.0000079021
    2    1   17    4        0.0000634838
    2    1   18    4        0.0000000048
    2    1   19    4       -0.0000003661
    2    1    5    5        0.0006027026
    2    1    6    5       -0.0000005906
    2    1    7    5       -0.0000004506
    2    1    8    5       -0.0000004550
    2    1    9    5        0.0000000107
    2    1   10    5        0.0001763352
    2    1   11    5        0.0008855399
    2    1   12    5       -0.0000002233
    2    1   13    5        0.0000014154
    2    1   14    5        0.0000012383
    2    1   15    5        0.0000018375
    2    1   16    5       -0.0000634916
    2    1   17    5       -0.0000078951
    2    1   18    5        0.0000000121
    2    1   19    5        0.0000001575
    2    1    6    6        0.0001331582
    2    1    7    6       -0.0000000001
    2    1    8    6       -0.0000046336
    2    1    9    6       -0.0000012877
    2    1   10    6        0.0000001768
    2    1   11    6       -0.0000007851
    2    1   12    6        0.0001237091
    2    1   13    6        0.0000000009
    2    1   14    6        0.0000000510
    2    1   15    6        0.0000000104
    2    1   16    6        0.0000017020
    2    1   17    6       -0.0000005187
    2    1   18    6       -0.0000000004
    2    1   19    6       -0.0000000077
    2    1    7    7        0.0001439241
    2    1    8    7        0.0000000218
    2    1    9    7        0.0000000021
    2    1   10    7       -0.0000015062
    2    1   11    7       -0.0000003426
    2    1   12    7       -0.0000000007
    2    1   13    7        0.0000000016
    2    1   14    7        0.0000000017
    2    1   15    7       -0.0000000015
    2    1   16    7       -0.0000002712
    2    1   17    7       -0.0000008877
    2    1   18    7        0.0000016468
    2    1   19    7       -0.0001568461
    2    1    8    8        0.0008917231
    2    1    9    8        0.0000013836
    2    1   10    8        0.0000003939
    2    1   11    8       -0.0000017787
    2    1   12    8        0.0000109541
    2    1   13    8        0.0000000104
    2    1   14    8       -0.0000000076
    2    1   15    8       -0.0000001412
    2    1   16    8        0.0000000984
    2    1   17    8       -0.0000000377
    2    1   18    8        0.0000000445
    2    1   19    8        0.0000001092
    2    1    9    9        0.0025107713
    2    1   10    9       -0.0000000078
    2    1   11    9        0.0000000060
    2    1   12    9       -0.0000010597
    2    1   13    9        0.0000002239
    2    1   14    9        0.0000004738
    2    1   15    9        0.0000000014
    2    1   16    9       -0.0000000050
    2    1   17    9        0.0000000183
    2    1   18    9        0.0000000551
    2    1   19    9       -0.0000001133
    2    1   10   10        0.0014681131
    2    1   11   10        0.0000000004
    2    1   12   10        0.0000001514
    2    1   13   10       -0.0000001565
    2    1   14   10        0.0000001170
    2    1   15   10        0.0000001418
    2    1   16   10       -0.0000048210
    2    1   17   10       -0.0000661506
    2    1   18   10       -0.0000000056
    2    1   19   10        0.0000010911
    2    1   11   11        0.0014681111
    2    1   12   11       -0.0000006797
    2    1   13   11       -0.0000001226
    2    1   14   11       -0.0000001548
    2    1   15   11       -0.0000006027
    2    1   16   11       -0.0000661548
    2    1   17   11        0.0000048233
    2    1   18   11        0.0000000235
    2    1   19   11        0.0000002371
    2    1   12   12        0.0001663240
    2    1   13   12       -0.0000000014
    2    1   14   12       -0.0000000631
    2    1   15   12       -0.0000000019
    2    1   16   12       -0.0000005894
    2    1   17   12        0.0000001798
    2    1   18   12        0.0000000007
    2    1   19   12       -0.0000000041
    2    1   13   13        0.0003200628
    2    1   14   13       -0.0000000009
    2    1   15   13        0.0000000003
    2    1   16   13        0.0000005762
    2    1   17   13        0.0000006419
    2    1   18   13       -0.0000009345
    2    1   19   13       -0.0000000032
    2    1   14   14        0.0003200623
    2    1   15   14        0.0000000004
    2    1   16   14        0.0000006424
    2    1   17   14       -0.0000005746
    2    1   18   14        0.0000004350
    2    1   19   14       -0.0000000055
    2    1   15   15        0.0003115249
    2    1   16   15       -0.0000016675
    2    1   17   15        0.0000005241
    2    1   18   15        0.0000000017
    2    1   19   15       -0.0000000080
    2    1   16   16        0.0001014568
    2    1   17   16       -0.0000000025
    2    1   18   16       -0.0000000006
    2    1   19   16       -0.0000001235
    2    1   17   17        0.0001014505
    2    1   18   17        0.0000000012
    2    1   19   17       -0.0000004080
    2    1   18   18        0.0001066981
    2    1   19   18        0.0000006053
    2    1   19   19        0.0001841221
    3    1    3    1        0.0050350782
    3    1    4    1       -0.0000000231
    3    1    5    1       -0.0000000338
    3    1    6    1       -0.0000001430
    3    1    7    1       -0.0000000027
    3    1    8    1        0.0000002190
    3    1    9    1       -0.0081283181
    3    1   10    1        0.0000000302
    3    1   11    1       -0.0000000141
    3    1   12    1       -0.0000002098
    3    1   13    1       -0.0000000152
    3    1   14    1       -0.0000000088
    3    1   15    1        0.0000000075
    3    1   16    1        0.0000000202
    3    1   17    1       -0.0000000621
    3    1   18    1       -0.0000001825
    3    1   19    1        0.0000003679
    3    1    2    2        0.0000605308
    3    1    3    2       -0.0042450186
    3    1    4    2        0.0000000141
    3    1    5    2        0.0000000175
    3    1    6    2        0.0000738734
    3    1    7    2       -0.0000000018
    3    1    8    2        0.0000193859
    3    1    9    2        0.0013643139
    3    1   10    2        0.0000000013
    3    1   11    2       -0.0000000009
    3    1   12    2        0.0000172673
    3    1   13    2        0.0000002426
    3    1   14    2        0.0000005510
    3    1   15    2       -0.0000000244
    3    1   16    2       -0.0000000049
    3    1   17    2        0.0000000033
    3    1   18    2       -0.0000000338
    3    1   19    2        0.0000000094
    3    1    3    3        0.0000004595
    3    1    4    3        0.0000000972
    3    1    5    3        0.0000001880
    3    1    6    3       -0.0023005781
    3    1    7    3        0.0000000531
    3    1    8    3        0.0027499558
    3    1    9    3       -0.0000003660
    3    1   10    3       -0.0000000207
    3    1   11    3       -0.0000000063
    3    1   12    3       -0.0014132906
    3    1   13    3        0.0000000042
    3    1   14    3       -0.0000007397
    3    1   15    3       -0.0000002993
    3    1   16    3        0.0000001044
    3    1   17    3       -0.0000000376
    3    1   18    3        0.0000000935
    3    1   19    3        0.0000002869
    3    1    4    4        0.0000500077
    3    1    5    4       -0.0000000020
    3    1    6    4        0.0000000265
    3    1    7    4       -0.0000000247
    3    1    8    4       -0.0000000133
    3    1    9    4        0.0000002415
    3    1   10    4        0.0000402326
    3    1   11    4       -0.0000079954
    3    1   12    4        0.0000014633
    3    1   13    4        0.0031625780
    3    1   14    4       -0.0036232054
    3    1   15    4        0.0000000831
    3    1   16    4        0.0000076793
    3    1   17    4       -0.0000616121
    3    1   18    4        0.0000007046
    3    1   19    4        0.0000000022
    3    1    5    5        0.0000500056
    3    1    6    5        0.0000000240
    3    1    7    5       -0.0000000020
    3    1    8    5       -0.0000000150
    3    1    9    5        0.0000005309
    3    1   10    5       -0.0000080217
    3    1   11    5       -0.0000402425
    3    1   12    5        0.0000013281
    3    1   13    5       -0.0036232054
    3    1   14    5       -0.0031625813
    3    1   15    5        0.0000000908
    3    1   16    5        0.0000615800
    3    1   17    5        0.0000076893
    3    1   18    5       -0.0000003049
    3    1   19    5        0.0000000140
    3    1    6    6        0.0001115780
    3    1    7    6       -0.0000000121
    3    1    8    6       -0.0000110166
    3    1    9    6        0.0032116863
    3    1   10    6       -0.0000000297
    3    1   11    6        0.0000000300
    3    1   12    6        0.0000564570
    3    1   13    6        0.0000002822
    3    1   14    6        0.0000006541
    3    1   15    6       -0.0000000281
    3    1   16    6       -0.0000000669
    3    1   17    6        0.0000000393
    3    1   18    6       -0.0000000540
    3    1   19    6       -0.0000000917
    3    1    7    7        0.0000464249
    3    1    8    7       -0.0000000024
    3    1    9    7       -0.0000001023
    3    1   10    7        0.0000000373
    3    1   11    7       -0.0000000133
    3    1   12    7       -0.0000000200
    3    1   13    7        0.0000003448
    3    1   14    7       -0.0000001885
    3    1   15    7       -0.0000000101
    3    1   16    7        0.0000000522
    3    1   17    7        0.0000000090
    3    1   18    7       -0.0034023444
    3    1   19    7        0.0000654741
    3    1    8    8        0.0000651357
    3    1    9    8       -0.0038399149
    3    1   10    8       -0.0000000000
    3    1   11    8        0.0000000141
    3    1   12    8       -0.0000495236
    3    1   13    8        0.0000000205
    3    1   14    8       -0.0000000175
    3    1   15    8        0.0000000605
    3    1   16    8       -0.0000000203
    3    1   17    8       -0.0000000087
    3    1   18    8        0.0000000214
    3    1   19    8       -0.0000000045
    3    1    9    9        0.0000001310
    3    1   10    9        0.0000000218
    3    1   11    9        0.0000000047
    3    1   12    9        0.0029163666
    3    1   13    9       -0.0000000143
    3    1   14    9        0.0000012410
    3    1   15    9        0.0000003773
    3    1   16    9       -0.0000000295
    3    1   17    9        0.0000000148
    3    1   18    9       -0.0000001193
    3    1   19    9       -0.0000003388
    3    1   10   10        0.0000562238
    3    1   11   10       -0.0000000102
    3    1   12   10       -0.0000004206
    3    1   13   10       -0.0012857474
    3    1   14   10        0.0009909333
    3    1   15   10        0.0000000179
    3    1   16   10       -0.0000021234
    3    1   17   10       -0.0000289284
    3    1   18   10       -0.0000001847
    3    1   19   10       -0.0000000366
    3    1   11   11        0.0000562221
    3    1   12   11        0.0000005748
    3    1   13   11       -0.0009909275
    3    1   14   11       -0.0012857507
    3    1   15   11       -0.0000001152
    3    1   16   11       -0.0000289357
    3    1   17   11        0.0000021054
    3    1   18   11       -0.0000000760
    3    1   19   11        0.0000000862
    3    1   12   12        0.0000933266
    3    1   13   12        0.0000000065
    3    1   14   12        0.0000000729
    3    1   15   12        0.0000000085
    3    1   16   12        0.0000004855
    3    1   17   12       -0.0000004001
    3    1   18   12        0.0000000495
    3    1   19   12       -0.0000002824
    3    1   13   13        0.0000001802
    3    1   14   13        0.0000000162
    3    1   15   13       -0.0000019462
    3    1   16   13       -0.0010106918
    3    1   17   13       -0.0011306830
    3    1   18   13       -0.0000000008
    3    1   19   13       -0.0000000651
    3    1   14   14        0.0000001692
    3    1   15   14       -0.0000044687
    3    1   16   14       -0.0011306648
    3    1   17   14        0.0010106947
    3    1   18   14       -0.0000000375
    3    1   19   14        0.0000000335
    3    1   15   15        0.0000534268
    3    1   16   15        0.0000001441
    3    1   17   15       -0.0000000248
    3    1   18   15        0.0000000242
    3    1   19   15       -0.0000000843
    3    1   16   16        0.0000988811
    3    1   17   16       -0.0000000027
    3    1   18   16       -0.0000000984
    3    1   19   16        0.0000000678
    3    1   17   17        0.0000988805
    3    1   18   17       -0.0000002419
    3    1   19   17       -0.0000000185
    3    1   18   18       -0.0000000363
    3    1   19   18       -0.0002531727
    3    1   19   19        0.0000916772
    4    1    4    1        0.0019212659
    4    1    5    1        0.0000000005
    4    1    6    1       -0.0000000035
    4    1    7    1       -0.0000000853
    4    1    8    1        0.0000000779
    4    1    9    1        0.0000000452
    4    1   10    1       -0.0031226862
    4    1   11    1        0.0006218127
    4    1   12    1        0.0000000232
    4    1   13    1        0.0000000164
    4    1   14    1       -0.0000000089
    4    1   15    1       -0.0000002161
    4    1   16    1       -0.0000160629
    4    1   17    1        0.0001290309
    4    1   18    1        0.0000000244
    4    1   19    1        0.0000000843
    4    1    2    2        0.0000249273
    4    1    3    2        0.0000000038
    4    1    4    2       -0.0030975938
    4    1    5    2       -0.0000000001
    4    1    6    2       -0.0000154749
    4    1    7    2        0.0000596382
    4    1    8    2        0.0000077512
    4    1    9    2       -0.0000000058
    4    1   10    2        0.0013253108
    4    1   11    2       -0.0002639019
    4    1   12    2       -0.0000034628
    4    1   13    2       -0.0000003332
    4    1   14    2        0.0000003757
    4    1   15    2        0.0000003178
    4    1   16    2        0.0000057124
    4    1   17    2       -0.0000458955
    4    1   18    2       -0.0000000105
    4    1   19    2       -0.0000137009
    4    1    3    3        0.0000181603
    4    1    4    3        0.0000004013
    4    1    5    3       -0.0000000016
    4    1    6    3        0.0000000252
    4    1    7    3       -0.0000000261
    4    1    8    3       -0.0000000098
    4    1    9    3        0.0000183506
    4    1   10    3        0.0000001300
    4    1   11    3       -0.0000000137
    4    1   12    3        0.0000010953
    4    1   13    3        0.0023545101
    4    1   14    3       -0.0026974442
    4    1   15    3       -0.0000000080
    4    1   16    3        0.0000000527
    4    1   17    3       -0.0000003346
    4    1   18    3        0.0000532208
    4    1   19    3       -0.0000000020
    4    1    4    4       -0.0000065699
    4    1    5    4       -0.0000150198
    4    1    6    4        0.0006713629
    4    1    7    4       -0.0009242334
    4    1    8    4        0.0018626717
    4    1    9    4        0.0000000476
    4    1   10    4       -0.0000039046
    4    1   11    4        0.0000159509
    4    1   12    4        0.0003926245
    4    1   13    4       -0.0000000572
    4    1   14    4        0.0000001818
    4    1   15    4        0.0023083752
    4    1   16    4        0.0000112906
    4    1   17    4       -0.0000032628
    4    1   18    4        0.0000002124
    4    1   19    4        0.0004907671
    4    1    5    5        0.0000273958
    4    1    6    5       -0.0000000083
    4    1    7    5       -0.0008301362
    4    1    8    5       -0.0000000089
    4    1    9    5       -0.0000000421
    4    1   10    5       -0.0000193685
    4    1   11    5       -0.0000227023
    4    1   12    5       -0.0000000316
    4    1   13    5        0.0000000182
    4    1   14    5        0.0000000792
    4    1   15    5       -0.0025703442
    4    1   16    5       -0.0000212826
    4    1   17    5       -0.0000243497
    4    1   18    5        0.0000001137
    4    1   19    5        0.0004407658
    4    1    6    6        0.0000259791
    4    1    7    6       -0.0000264674
    4    1    8    6        0.0000022747
    4    1    9    6       -0.0000000410
    4    1   10    6       -0.0010252925
    4    1   11    6        0.0002041455
    4    1   12    6       -0.0000148527
    4    1   13    6       -0.0000000116
    4    1   14    6        0.0000000314
    4    1   15    6       -0.0000033619
    4    1   16    6       -0.0002781922
    4    1   17    6        0.0022365513
    4    1   18    6       -0.0000000140
    4    1   19    6        0.0000486421
    4    1    7    7        0.0000396775
    4    1    8    7       -0.0000084602
    4    1    9    7        0.0000000153
    4    1   10    7        0.0012499367
    4    1   11    7       -0.0016702940
    4    1   12    7       -0.0000490745
    4    1   13    7        0.0000000044
    4    1   14    7        0.0000001971
    4    1   15    7       -0.0000034112
    4    1   16    7       -0.0008776440
    4    1   17    7        0.0007624155
    4    1   18    7       -0.0000000082
    4    1   19    7       -0.0000105538
    4    1    8    8        0.0000273756
    4    1    9    8        0.0000000064
    4    1   10    8       -0.0030458633
    4    1   11    8        0.0006065131
    4    1   12    8        0.0000101689
    4    1   13    8        0.0000000045
    4    1   14    8        0.0000000092
    4    1   15    8       -0.0000002614
    4    1   16    8       -0.0000212310
    4    1   17    8        0.0001706950
    4    1   18    8        0.0000000024
    4    1   19    8        0.0000416787
    4    1    9    9        0.0000243963
    4    1   10    9        0.0000001216
    4    1   11    9       -0.0000000482
    4    1   12    9       -0.0000002842
    4    1   13    9       -0.0005389588
    4    1   14    9        0.0006174428
    4    1   15    9       -0.0000000073
    4    1   16    9       -0.0000000094
    4    1   17    9        0.0000001433
    4    1   18    9        0.0000367504
    4    1   19    9       -0.0000000445
    4    1   10   10        0.0000005913
    4    1   11   10        0.0000262051
    4    1   12   10       -0.0009719613
    4    1   13   10       -0.0000000026
    4    1   14   10       -0.0000003554
    4    1   15   10       -0.0007620851
    4    1   16   10        0.0000164536
    4    1   17   10       -0.0000015895
    4    1   18   10       -0.0000002651
    4    1   19   10       -0.0009991287
    4    1   11   11        0.0000256828
    4    1   12   11        0.0001935455
    4    1   13   11        0.0000000119
    4    1   14   11        0.0000000808
    4    1   15   11       -0.0005705693
    4    1   16   11        0.0000163465
    4    1   17   11        0.0000123595
    4    1   18   11        0.0000002224
    4    1   19   11        0.0013349823
    4    1   12   12        0.0000390189
    4    1   13   12       -0.0000000085
    4    1   14   12        0.0000000088
    4    1   15   12        0.0000001995
    4    1   16   12        0.0000134620
    4    1   17   12       -0.0001081658
    4    1   18   12        0.0000004939
    4    1   19   12        0.0000001891
    4    1   13   13        0.0000293406
    4    1   14   13        0.0000159081
    4    1   15   13        0.0000004327
    4    1   16   13       -0.0000000100
    4    1   17   13        0.0000000248
    4    1   18   13       -0.0000162758
    4    1   19   13       -0.0000000736
    4    1   14   14       -0.0000075324
    4    1   15   14       -0.0000000179
    4    1   16   14        0.0000000353
    4    1   17   14       -0.0000000658
    4    1   18   14       -0.0011496127
    4    1   19   14        0.0000001594
    4    1   15   15        0.0000032313
    4    1   16   15        0.0007582692
    4    1   17   15        0.0008728888
    4    1   18   15        0.0000000073
    4    1   19   15       -0.0000006883
    4    1   16   16        0.0000391763
    4    1   17   16        0.0000343680
    4    1   18   16        0.0000001711
    4    1   19   16       -0.0001406006
    4    1   17   17       -0.0000030888
    4    1   18   17       -0.0000001197
    4    1   19   17        0.0001220530
    4    1   18   18        0.0000404025
    4    1   19   18        0.0000000828
    4    1   19   19        0.0000393015
    5    1    5    1        0.0019212721
    5    1    6    1       -0.0000000130
    5    1    7    1        0.0000000340
    5    1    8    1        0.0000001032
    5    1    9    1        0.0000000689
    5    1   10    1        0.0006218135
    5    1   11    1        0.0031226898
    5    1   12    1        0.0000000395
    5    1   13    1       -0.0000000263
    5    1   14    1       -0.0000000130
    5    1   15    1       -0.0000004603
    5    1   16    1       -0.0001290440
    5    1   17    1       -0.0000160509
    5    1   18    1        0.0000000483
    5    1   19    1       -0.0000000605
    5    1    2    2        0.0000559001
    5    1    3    2        0.0000000078
    5    1    4    2       -0.0000000021
    5    1    5    2       -0.0030975984
    5    1    6    2       -0.0000346938
    5    1    7    2       -0.0000266012
    5    1    8    2        0.0000173804
    5    1    9    2       -0.0000000142
    5    1   10    2       -0.0002639080
    5    1   11    2       -0.0013253042
    5    1   12    2       -0.0000077606
    5    1   13    2        0.0000003845
    5    1   14    2        0.0000003257
    5    1   15    2        0.0000007037
    5    1   16    2        0.0000459017
    5    1   17    2        0.0000057075
    5    1   18    2        0.0000000029
    5    1   19    2        0.0000061145
    5    1    3    3        0.0000407306
    5    1    4    3       -0.0000000019
    5    1    5    3        0.0000004009
    5    1    6    3        0.0000000249
    5    1    7    3        0.0000000012
    5    1    8    3       -0.0000000146
    5    1    9    3        0.0000410948
    5    1   10    3       -0.0000000329
    5    1   11    3       -0.0000001355
    5    1   12    3        0.0000009938
    5    1   13    3       -0.0026974458
    5    1   14    3       -0.0023545199
    5    1   15    3       -0.0000000917
    5    1   16    3        0.0000003109
    5    1   17    3        0.0000000594
    5    1   18    3       -0.0000237328
    5    1   19    3        0.0000000136
    5    1    4    4        0.0000305988
    5    1    5    4        0.0000070582
    5    1    6    4       -0.0000000083
    5    1    7    4       -0.0008301368
    5    1    8    4       -0.0000000080
    5    1    9    4       -0.0000000419
    5    1   10    4        0.0000267974
    5    1   11    4       -0.0000122264
    5    1   12    4       -0.0000000319
    5    1   13    4        0.0000000104
    5    1   14    4        0.0000000830
    5    1   15    4       -0.0025703504
    5    1   16    4       -0.0000041946
    5    1   17    4        0.0000317341
    5    1   18    4        0.0000001166
    5    1   19    4        0.0004407625
    5    1    5    5        0.0000160768
    5    1    6    5        0.0006713676
    5    1    7    5        0.0009242916
    5    1    8    5        0.0018626702
    5    1    9    5       -0.0000000119
    5    1   10    5        0.0000037082
    5    1   11    5       -0.0000152150
    5    1   12    5        0.0003925653
    5    1   13    5        0.0000001119
    5    1   14    5        0.0000002261
    5    1   15    5       -0.0023087919
    5    1   16    5       -0.0000116126
    5    1   17    5        0.0000033437
    5    1   18    5       -0.0000000714
    5    1   19    5       -0.0004904875
    5    1    6    6        0.0000582511
    5    1    7    6        0.0000118049
    5    1    8    6        0.0000050959
    5    1    9    6       -0.0000000235
    5    1   10    6        0.0002041827
    5    1   11    6        0.0010252886
    5    1   12    6       -0.0000333402
    5    1   13    6        0.0000000396
    5    1   14    6        0.0000000156
    5    1   15    6       -0.0000071425
    5    1   16    6       -0.0022365199
    5    1   17    6       -0.0002782040
    5    1   18    6       -0.0000000263
    5    1   19    6       -0.0000216899
    5    1    7    7        0.0000889920
    5    1    8    7        0.0000037741
    5    1    9    7        0.0000000038
    5    1   10    7        0.0016703223
    5    1   11    7        0.0012500029
    5    1   12    7        0.0000218933
    5    1   13    7       -0.0000002146
    5    1   14    7        0.0000000084
    5    1   15    7        0.0000014248
    5    1   16    7        0.0007624327
    5    1   17    7        0.0008776668
    5    1   18    7        0.0000000440
    5    1   19    7       -0.0000237251
    5    1    8    8        0.0000613882
    5    1    9    8        0.0000000147
    5    1   10    8        0.0006065200
    5    1   11    8        0.0030458801
    5    1   12    8        0.0000227904
    5    1   13    8       -0.0000000112
    5    1   14    8        0.0000000132
    5    1   15    8       -0.0000005635
    5    1   16    8       -0.0001706830
    5    1   17    8       -0.0000212336
    5    1   18    8        0.0000000088
    5    1   19    8       -0.0000185970
    5    1    9    9        0.0000547465
    5    1   10    9       -0.0000000015
    5    1   11    9       -0.0000001242
    5    1   12    9       -0.0000002751
    5    1   13    9        0.0006174663
    5    1   14    9        0.0005389506
    5    1   15    9        0.0000000105
    5    1   16    9       -0.0000001175
    5    1   17    9       -0.0000000300
    5    1   18    9       -0.0000163605
    5    1   19    9       -0.0000000509
    5    1   10   10        0.0000349605
    5    1   11   10       -0.0000117403
    5    1   12   10        0.0001935428
    5    1   13   10        0.0000000204
    5    1   14   10        0.0000000616
    5    1   15   10        0.0005704454
    5    1   16   10       -0.0000066929
    5    1   17   10        0.0000194651
    5    1   18   10       -0.0000001796
    5    1   19   10       -0.0013349074
    5    1   11   11        0.0000239166
    5    1   12   11        0.0009719594
    5    1   13   11        0.0000000585
    5    1   14   11        0.0000004033
    5    1   15   11       -0.0007626970
    5    1   16   11        0.0000143091
    5    1   17   11       -0.0000079041
    5    1   18   11       -0.0000000673
    5    1   19   11       -0.0009987342
    5    1   12   12        0.0000874857
    5    1   13   12       -0.0000000048
    5    1   14   12        0.0000000051
    5    1   15   12        0.0000004106
    5    1   16   12        0.0001081804
    5    1   17   12        0.0000134484
    5    1   18   12        0.0000000186
    5    1   19   12       -0.0000000960
    5    1   13   13        0.0000158703
    5    1   14   13       -0.0000066483
    5    1   15   13       -0.0000000156
    5    1   16   13       -0.0000000133
    5    1   17   13        0.0000000245
    5    1   18   13        0.0011496041
    5    1   19   13       -0.0000001243
    5    1   14   14        0.0000330523
    5    1   15   14        0.0000004003
    5    1   16   14        0.0000000380
    5    1   17   14        0.0000000197
    5    1   18   14       -0.0000162768
    5    1   19   14       -0.0000000451
    5    1   15   15        0.0000076649
    5    1   16   15        0.0008728930
    5    1   17   15       -0.0007582766
    5    1   18   15        0.0000000214
    5    1   19   15        0.0000002883
    5    1   16   16        0.0000274380
    5    1   17   16       -0.0000129394
    5    1   18   16       -0.0000001309
    5    1   19   16        0.0001220654
    5    1   17   17        0.0000530544
    5    1   18   17       -0.0000001710
    5    1   19   17        0.0001406005
    5    1   18   18        0.0000906715
    5    1   19   18       -0.0000000420
    5    1   19   19        0.0000882655
    6    1    6    1        0.0001313085
    6    1    7    1       -0.0000000052
    6    1    8    1       -0.0002389298
    6    1    9    1        0.0000000939
    6    1   10    1        0.0000000161
    6    1   11    1       -0.0000000856
    6    1   12    1        0.0001496322
    6    1   13    1       -0.0000000012
    6    1   14    1        0.0000000654
    6    1   15    1        0.0000000376
    6    1   16    1        0.0000000080
    6    1   17    1       -0.0000000007
    6    1   18    1       -0.0000000110
    6    1   19    1       -0.0000000339
    6    1    2    2        0.0000183498
    6    1    3    2        0.0000027399
    6    1    4    2       -0.0000006116
    6    1    5    2       -0.0000013603
    6    1    6    2       -0.0005946392
    6    1    7    2       -0.0000000010
    6    1    8    2       -0.0000395070
    6    1    9    2       -0.0000002251
    6    1   10    2        0.0000000527
    6    1   11    2       -0.0000002224
    6    1   12    2       -0.0003037112
    6    1   13    2       -0.0000000045
    6    1   14    2       -0.0000001273
    6    1   15    2        0.0000000080
    6    1   16    2        0.0000001877
    6    1   17    2       -0.0000000554
    6    1   18    2       -0.0000000020
    6    1   19    2        0.0000000003
    6    1    3    3       -0.0002936222
    6    1    4    3        0.0000000014
    6    1    5    3       -0.0000000017
    6    1    6    3        0.0000016342
    6    1    7    3       -0.0000000023
    6    1    8    3       -0.0000007122
    6    1    9    3        0.0006129554
    6    1   10    3       -0.0000000062
    6    1   11    3        0.0000000047
    6    1   12    3        0.0000007067
    6    1   13    3       -0.0000005492
    6    1   14    3       -0.0000011946
    6    1   15    3       -0.0000000020
    6    1   16    3       -0.0000000105
    6    1   17    3        0.0000000083
    6    1   18    3       -0.0000000036
    6    1   19    3       -0.0000000290
    6    1    4    4        0.0001540256
    6    1    5    4       -0.0000000028
    6    1    6    4        0.0000002125
    6    1    7    4       -0.0000005989
    6    1    8    4        0.0000001183
    6    1    9    4       -0.0000000099
    6    1   10    4       -0.0003324860
    6    1   11    4        0.0000662026
    6    1   12    4        0.0000000017
    6    1   13    4       -0.0000018024
    6    1   14    4        0.0000020711
    6    1   15    4       -0.0000013917
    6    1   16    4       -0.0000663771
    6    1   17    4        0.0005336505
    6    1   18    4       -0.0000000041
    6    1   19    4        0.0000003164
    6    1    5    5        0.0001540237
    6    1    6    5        0.0000004726
    6    1    7    5        0.0000002651
    6    1    8    5        0.0000002581
    6    1    9    5       -0.0000000061
    6    1   10    5        0.0000662116
    6    1   11    5        0.0003324848
    6    1   12    5       -0.0000000099
    6    1   13    5        0.0000020711
    6    1   14    5        0.0000018065
    6    1   15    5       -0.0000030369
    6    1   16    5       -0.0005336405
    6    1   17    5       -0.0000663822
    6    1   18    5       -0.0000000029
    6    1   19    5       -0.0000001397
    6    1    6    6       -0.0002202261
    6    1    7    6        0.0000000022
    6    1    8    6        0.0004614148
    6    1    9    6       -0.0000017276
    6    1   10    6       -0.0000000895
    6    1   11    6        0.0000003799
    6    1   12    6       -0.0004701405
    6    1   13    6       -0.0000000009
    6    1   14    6       -0.0000001968
    6    1   15    6       -0.0000000109
    6    1   16    6       -0.0000010763
    6    1   17    6        0.0000003331
    6    1   18    6        0.0000000061
    6    1   19    6       -0.0000000059
    6    1    7    7        0.0002112210
    6    1    8    7        0.0000000030
    6    1    9    7        0.0000000061
    6    1   10    7        0.0000008873
    6    1   11    7        0.0000001989
    6    1   12    7        0.0000000045
    6    1   13    7        0.0000000045
    6    1   14    7        0.0000000032
    6    1   15    7       -0.0000000050
    6    1   16    7        0.0000001688
    6    1   17    7        0.0000005650
    6    1   18    7        0.0000024049
    6    1   19    7       -0.0004682045
    6    1    8    8        0.0000653713
    6    1    9    8        0.0000020072
    6    1   10    8       -0.0000002528
    6    1   11    8        0.0000010920
    6    1   12    8        0.0005153339
    6    1   13    8        0.0000000043
    6    1   14    8        0.0000002091
    6    1   15    8       -0.0000000123
    6    1   16    8       -0.0000000624
    6    1   17    8        0.0000000169
    6    1   18    8        0.0000000033
    6    1   19    8       -0.0000000043
    6    1    9    9       -0.0006425715
    6    1   10    9        0.0000000067
    6    1   11    9       -0.0000000027
    6    1   12    9       -0.0000014934
    6    1   13    9       -0.0000002514
    6    1   14    9       -0.0000005411
    6    1   15    9        0.0000000027
    6    1   16    9        0.0000000019
    6    1   17    9       -0.0000000035
    6    1   18    9       -0.0000000057
    6    1   19    9        0.0000000388
    6    1   10   10        0.0004576669
    6    1   11   10        0.0000000047
    6    1   12   10       -0.0000000897
    6    1   13   10       -0.0000003426
    6    1   14   10        0.0000002619
    6    1   15   10        0.0000000202
    6    1   16   10       -0.0000081847
    6    1   17   10       -0.0001122149
    6    1   18   10        0.0000000013
    6    1   19   10       -0.0000006583
    6    1   11   11        0.0004576646
    6    1   12   11        0.0000003685
    6    1   13   11       -0.0000002636
    6    1   14   11       -0.0000003407
    6    1   15   11       -0.0000000584
    6    1   16   11       -0.0001122119
    6    1   17   11        0.0000081832
    6    1   18   11        0.0000000080
    6    1   19   11       -0.0000001510
    6    1   12   12       -0.0002943469
    6    1   13   12        0.0000000083
    6    1   14   12       -0.0000001037
    6    1   15   12       -0.0000000486
    6    1   16   12        0.0000005188
    6    1   17   12       -0.0000001584
    6    1   18   12        0.0000000173
    6    1   19   12        0.0000000110
    6    1   13   13       -0.0000620158
    6    1   14   13       -0.0000000009
    6    1   15   13       -0.0000000019
    6    1   16   13        0.0000008964
    6    1   17   13        0.0000010015
    6    1   18   13        0.0000005627
    6    1   19   13        0.0000000011
    6    1   14   14       -0.0000620195
    6    1   15   14       -0.0000000027
    6    1   16   14        0.0000010020
    6    1   17   14       -0.0000008946
    6    1   18   14       -0.0000002647
    6    1   19   14        0.0000000040
    6    1   15   15        0.0001826917
    6    1   16   15        0.0000000201
    6    1   17   15        0.0000000135
    6    1   18   15        0.0000000033
    6    1   19   15       -0.0000000097
    6    1   16   16       -0.0000399070
    6    1   17   16        0.0000000005
    6    1   18   16        0.0000000062
    6    1   19   16        0.0000000637
    6    1   17   17       -0.0000399020
    6    1   18   17        0.0000000006
    6    1   19   17        0.0000002198
    6    1   18   18        0.0001206670
    6    1   19   18        0.0000009743
    6    1   19   19        0.0003109139
    7    1    7    1        0.0000931676
    7    1    8    1        0.0000001319
    7    1    9    1        0.0000000055
    7    1   10    1        0.0000000512
    7    1   11    1        0.0000000053
    7    1   12    1       -0.0000000041
    7    1   13    1        0.0000000007
    7    1   14    1        0.0000000013
    7    1   15    1       -0.0000000012
    7    1   16    1       -0.0000000017
    7    1   17    1       -0.0000000049
    7    1   18    1       -0.0000000085
    7    1   19    1       -0.0001073205
    7    1    2    2       -0.0000000084
    7    1    3    2        0.0000000012
    7    1    4    2        0.0000025252
    7    1    5    2       -0.0000011235
    7    1    6    2       -0.0000000018
    7    1    7    2       -0.0005362436
    7    1    8    2        0.0000000125
    7    1    9    2       -0.0000000020
    7    1   10    2       -0.0000004882
    7    1   11    2       -0.0000001100
    7    1   12    2        0.0000000010
    7    1   13    2        0.0000000000
    7    1   14    2       -0.0000000046
    7    1   15    2        0.0000000024
    7    1   16    2       -0.0000000179
    7    1   17    2       -0.0000000621
    7    1   18    2        0.0000001851
    7    1   19    2        0.0002636438
    7    1    3    3       -0.0000000196
    7    1    4    3       -0.0000000050
    7    1    5    3       -0.0000000004
    7    1    6    3       -0.0000000006
    7    1    7    3        0.0000001372
    7    1    8    3       -0.0000000004
    7    1    9    3        0.0000000277
    7    1   10    3        0.0000000077
    7    1   11    3       -0.0000000026
    7    1   12    3       -0.0000000025
    7    1   13    3       -0.0000023789
    7    1   14    3        0.0000011007
    7    1   15    3       -0.0000000012
    7    1   16    3        0.0000000096
    7    1   17    3        0.0000000038
    7    1   18    3       -0.0005451287
    7    1   19    3        0.0000001582
    7    1    4    4       -0.0001425599
    7    1    5    4       -0.0001280356
    7    1    6    4       -0.0000006368
    7    1    7    4        0.0000005697
    7    1    8    4       -0.0000005237
    7    1    9    4        0.0000000046
    7    1   10    4        0.0002942664
    7    1   11    4       -0.0003932035
    7    1   12    4       -0.0000003625
    7    1   13    4        0.0000000010
    7    1   14    4        0.0000000383
    7    1   15    4       -0.0000032411
    7    1   16    4       -0.0001899752
    7    1   17    4        0.0001650353
    7    1   18    4       -0.0000000038
    7    1   19    4       -0.0000002016
    7    1    5    5        0.0001425433
    7    1    6    5        0.0000002830
    7    1    7    5        0.0000012791
    7    1    8    5        0.0000002312
    7    1    9    5        0.0000000001
    7    1   10    5        0.0003931968
    7    1   11    5        0.0002942345
    7    1   12    5        0.0000001617
    7    1   13    5       -0.0000000364
    7    1   14    5        0.0000000007
    7    1   15    5        0.0000014280
    7    1   16    5        0.0001650388
    7    1   17    5        0.0001899865
    7    1   18    5        0.0000000110
    7    1   19    5       -0.0000004599
    7    1    6    6        0.0000000018
    7    1    7    6        0.0001774162
    7    1    8    6        0.0000000025
    7    1    9    6        0.0000000040
    7    1   10    6        0.0000008212
    7    1   11    6        0.0000001851
    7    1   12    6        0.0000000017
    7    1   13    6        0.0000000046
    7    1   14    6        0.0000000029
    7    1   15    6       -0.0000000045
    7    1   16    6       -0.0000006329
    7    1   17    6       -0.0000020759
    7    1   18    6        0.0000000168
    7    1   19    6       -0.0004174428
    7    1    7    7       -0.0000000067
    7    1    8    7        0.0004097451
    7    1    9    7        0.0000000403
    7    1   10    7       -0.0000003776
    7    1   11    7        0.0000016670
    7    1   12    7        0.0004204713
    7    1   13    7        0.0000000049
    7    1   14    7        0.0000001641
    7    1   15    7       -0.0000000152
    7    1   16    7        0.0000010829
    7    1   17    7       -0.0000003346
    7    1   18    7        0.0000000068
    7    1   19    7        0.0000000059
    7    1    8    8       -0.0000000192
    7    1    9    8        0.0000000048
    7    1   10    8        0.0000021026
    7    1   11    8        0.0000004745
    7    1   12    8       -0.0000000004
    7    1   13    8        0.0000000029
    7    1   14    8        0.0000000052
    7    1   15    8       -0.0000000055
    7    1   16    8       -0.0000000502
    7    1   17    8       -0.0000001575
    7    1   18    8       -0.0000000251
    7    1   19    8       -0.0004710516
    7    1    9    9       -0.0000000579
    7    1   10    9       -0.0000000067
    7    1   11    9        0.0000000021
    7    1   12    9        0.0000000030
    7    1   13    9       -0.0000007578
    7    1   14    9        0.0000003499
    7    1   15    9        0.0000000003
    7    1   16    9        0.0000000004
    7    1   17    9       -0.0000000005
    7    1   18    9        0.0000127849
    7    1   19    9        0.0000000005
    7    1   10   10       -0.0002475320
    7    1   11   10        0.0005178003
    7    1   12   10        0.0000007793
    7    1   13   10       -0.0000000155
    7    1   14   10       -0.0000000744
    7    1   15   10       -0.0000006496
    7    1   16   10        0.0000115154
    7    1   17   10       -0.0000065729
    7    1   18   10        0.0000000111
    7    1   19   10        0.0000002771
    7    1   11   11        0.0002474761
    7    1   12   11        0.0000001754
    7    1   13   11       -0.0000000750
    7    1   14   11        0.0000000165
    7    1   15   11       -0.0000001465
    7    1   16   11        0.0000065749
    7    1   17   11        0.0000115129
    7    1   18   11        0.0000000038
    7    1   19   11       -0.0000012342
    7    1   12   12       -0.0000000018
    7    1   13   12       -0.0000000390
    7    1   14   12        0.0000000464
    7    1   15   12       -0.0000000035
    7    1   16   12        0.0000002360
    7    1   17   12        0.0000007786
    7    1   18   12       -0.0000001300
    7    1   19   12       -0.0002667334
    7    1   13   13        0.0001072405
    7    1   14   13        0.0000909601
    7    1   15   13       -0.0000000021
    7    1   16   13       -0.0000000880
    7    1   17   13       -0.0000000117
    7    1   18   13        0.0000005899
    7    1   19   13       -0.0000000202
    7    1   14   14       -0.0001072426
    7    1   15   14        0.0000000001
    7    1   16   14        0.0000000129
    7    1   17   14       -0.0000000865
    7    1   18   14        0.0000012682
    7    1   19   14       -0.0000000927
    7    1   15   15       -0.0000000006
    7    1   16   15       -0.0000004420
    7    1   17   15       -0.0000014700
    7    1   18   15       -0.0000000092
    7    1   19   15        0.0000000546
    7    1   16   16       -0.0000464248
    7    1   17   16       -0.0000691128
    7    1   18   16       -0.0000000026
    7    1   19   16        0.0000006180
    7    1   17   17        0.0000464262
    7    1   18   17       -0.0000000050
    7    1   19   17       -0.0000001818
    7    1   18   18       -0.0000000253
    7    1   19   18        0.0000000274
    7    1   19   19       -0.0000000123
    8    1    8    1        0.0054542686
    8    1    9    1       -0.0000001932
    8    1   10    1       -0.0000000770
    8    1   11    1        0.0000000999
    8    1   12    1       -0.0001623155
    8    1   13    1        0.0000000627
    8    1   14    1       -0.0000001365
    8    1   15    1       -0.0000008594
    8    1   16    1       -0.0000000956
    8    1   17    1       -0.0000000165
    8    1   18    1        0.0000002706
    8    1   19    1        0.0000006768
    8    1    2    2       -0.0004547923
    8    1    3    2       -0.0000007987
    8    1    4    2       -0.0000003984
    8    1    5    2       -0.0000008953
    8    1    6    2        0.0000013396
    8    1    7    2        0.0000000160
    8    1    8    2        0.0006859485
    8    1    9    2        0.0000002178
    8    1   10    2        0.0000000855
    8    1   11    2       -0.0000004013
    8    1   12    2        0.0000020444
    8    1   13    2        0.0000000077
    8    1   14    2       -0.0000000107
    8    1   15    2       -0.0000001154
    8    1   16    2        0.0000000152
    8    1   17    2       -0.0000000108
    8    1   18    2        0.0000000357
    8    1   19    2        0.0000000912
    8    1    3    3       -0.0012258061
    8    1    4    3        0.0000000022
    8    1    5    3        0.0000000043
    8    1    6    3       -0.0000006833
    8    1    7    3        0.0000000009
    8    1    8    3        0.0000003686
    8    1    9    3        0.0019065480
    8    1   10    3       -0.0000000044
    8    1   11    3       -0.0000000001
    8    1   12    3       -0.0000004019
    8    1   13    3       -0.0000004128
    8    1   14    3       -0.0000009050
    8    1   15    3       -0.0000000025
    8    1   16    3       -0.0000000045
    8    1   17    3        0.0000000147
    8    1   18    3        0.0000000409
    8    1   19    3       -0.0000000840
    8    1    4    4       -0.0006310792
    8    1    5    4       -0.0000000024
    8    1    6    4        0.0000001700
    8    1    7    4       -0.0000006226
    8    1    8    4        0.0000001697
    8    1    9    4       -0.0000000081
    8    1   10    4        0.0009768234
    8    1   11    4       -0.0001945138
    8    1   12    4        0.0000000946
    8    1   13    4        0.0000005437
    8    1   14    4       -0.0000006264
    8    1   15    4       -0.0000003023
    8    1   16    4        0.0000081497
    8    1   17    4       -0.0000654759
    8    1   18    4       -0.0000000080
    8    1   19    4        0.0000003651
    8    1    5    5       -0.0006310836
    8    1    6    5        0.0000003819
    8    1    7    5        0.0000002775
    8    1    8    5        0.0000003917
    8    1    9    5       -0.0000000147
    8    1   10    5       -0.0001945111
    8    1   11    5       -0.0009768235
    8    1   12    5        0.0000002156
    8    1   13    5       -0.0000006211
    8    1   14    5       -0.0000005451
    8    1   15    5       -0.0000006977
    8    1   16    5        0.0000654845
    8    1   17    5        0.0000081440
    8    1   18    5       -0.0000000143
    8    1   19    5       -0.0000001551
    8    1    6    6       -0.0000708650
    8    1    7    6        0.0000000009
    8    1    8    6        0.0000140798
    8    1    9    6        0.0000008164
    8    1   10    6       -0.0000001215
    8    1   11    6        0.0000005377
    8    1   12    6       -0.0000615402
    8    1   13    6       -0.0000000007
    8    1   14    6       -0.0000000270
    8    1   15    6       -0.0000000072
    8    1   16    6       -0.0000007041
    8    1   17    6        0.0000002165
    8    1   18    6        0.0000000008
    8    1   19    6        0.0000000065
    8    1    7    7       -0.0000849833
    8    1    8    7       -0.0000000270
    8    1    9    7       -0.0000000020
    8    1   10    7        0.0000009485
    8    1   11    7        0.0000002148
    8    1   12    7        0.0000000017
    8    1   13    7        0.0000000001
    8    1   14    7       -0.0000000018
    8    1   15    7        0.0000000009
    8    1   16    7        0.0000001025
    8    1   17    7        0.0000003390
    8    1   18    7       -0.0000006547
    8    1   19    7        0.0000925497
    8    1    8    8       -0.0011035089
    8    1    9    8       -0.0000006588
    8    1   10    8       -0.0000001907
    8    1   11    8        0.0000008796
    8    1   12    8       -0.0000046353
    8    1   13    8       -0.0000000131
    8    1   14    8        0.0000000121
    8    1   15    8        0.0000001792
    8    1   16    8       -0.0000000367
    8    1   17    8        0.0000000211
    8    1   18    8       -0.0000000563
    8    1   19    8       -0.0000001443
    8    1    9    9       -0.0031410838
    8    1   10    9        0.0000000098
    8    1   11    9       -0.0000000065
    8    1   12    9        0.0000007135
    8    1   13    9       -0.0000000588
    8    1   14    9       -0.0000001127
    8    1   15    9       -0.0000000012
    8    1   16    9        0.0000000083
    8    1   17    9       -0.0000000245
    8    1   18    9       -0.0000000715
    8    1   19    9        0.0000001424
    8    1   10   10       -0.0016888740
    8    1   11   10        0.0000000022
    8    1   12   10       -0.0000001080
    8    1   13   10       -0.0000000066
    8    1   14   10        0.0000000095
    8    1   15   10       -0.0000000822
    8    1   16   10        0.0000057018
    8    1   17   10        0.0000782531
    8    1   18   10        0.0000000085
    8    1   19   10       -0.0000007983
    8    1   11   11       -0.0016888735
    8    1   12   11        0.0000004859
    8    1   13   11       -0.0000000025
    8    1   14   11       -0.0000000089
    8    1   15   11        0.0000003319
    8    1   16   11        0.0000782622
    8    1   17   11       -0.0000057070
    8    1   18   11       -0.0000000275
    8    1   19   11       -0.0000001677
    8    1   12   12       -0.0000953700
    8    1   13   12        0.0000000017
    8    1   14   12        0.0000000778
    8    1   15   12       -0.0000000016
    8    1   16   12        0.0000002085
    8    1   17   12       -0.0000000639
    8    1   18   12       -0.0000000005
    8    1   19   12        0.0000000040
    8    1   13   13       -0.0002853579
    8    1   14   13       -0.0000000014
    8    1   15   13       -0.0000000021
    8    1   16   13       -0.0000003102
    8    1   17   13       -0.0000003441
    8    1   18   13        0.0000005149
    8    1   19   13        0.0000000033
    8    1   14   14       -0.0002853625
    8    1   15   14       -0.0000000027
    8    1   16   14       -0.0000003450
    8    1   17   14        0.0000003086
    8    1   18   14       -0.0000002415
    8    1   19   14        0.0000000040
[...]
   16   13   16   16       -0.0002293173
   16   13   17   16       -0.0000395876
   16   13   18   16        0.0000246321
   16   13   19   16       -0.0000006673
   16   13   17   17       -0.0001652935
   16   13   18   17       -0.0000287090
   16   13   19   17        0.0000007023
   16   13   18   18        0.0000002813
   16   13   19   18        0.0018849721
   16   13   19   19       -0.0001744013
   17   13   17   13        0.0050207837
   17   13   18   13        0.0000000560
   17   13   19   13        0.0000095853
   17   13   14   14       -0.0000003096
   17   13   15   14        0.0000661406
   17   13   16   14        0.0016715604
   17   13   17   14       -0.0024149317
   17   13   18   14        0.0000001331
   17   13   19   14       -0.0000033265
   17   13   15   15       -0.0001184086
   17   13   16   15       -0.0000008960
   17   13   17   15       -0.0000000739
   17   13   18   15       -0.0006801162
   17   13   19   15        0.0000050704
   17   13   16   16       -0.0001977919
   17   13   17   16       -0.0000239239
   17   13   18   16       -0.0000023600
   17   13   19   16       -0.0000001790
   17   13   17   17       -0.0002436231
   17   13   18   17       -0.0000119385
   17   13   19   17        0.0000010160
   17   13   18   18        0.0000004346
   17   13   19   18        0.0021087436
   17   13   19   19       -0.0001950736
   18   13   18   13        0.0086389915
   18   13   19   13       -0.0000005180
   18   13   14   14        0.0000159913
   18   13   15   14        0.0000000296
   18   13   16   14        0.0000003375
   18   13   17   14        0.0000000730
   18   13   18   14       -0.0000009702
   18   13   19   14        0.0000000066
   18   13   15   15        0.0000170779
   18   13   16   15        0.0019843068
   18   13   17   15       -0.0017736650
   18   13   18   15        0.0000000983
   18   13   19   15        0.0000078838
   18   13   16   16        0.0000228734
   18   13   17   16        0.0000004976
   18   13   18   16        0.0000002645
   18   13   19   16        0.0027118919
   18   13   17   17        0.0002506152
   18   13   18   17        0.0000003249
   18   13   19   17        0.0030352313
   18   13   18   18        0.0004346420
   18   13   19   18       -0.0000000050
   18   13   19   19        0.0003671204
   19   13   19   13        0.0013201523
   19   13   14   14       -0.0000000970
   19   13   15   14       -0.0002906904
   19   13   16   14       -0.0000076684
   19   13   17   14       -0.0000014354
   19   13   18   14        0.0000001796
   19   13   19   14       -0.0000000584
   19   13   15   15       -0.0000000296
   19   13   16   15        0.0000033953
   19   13   17   15       -0.0000032238
   19   13   18   15        0.0000006621
   19   13   19   15        0.0000000523
   19   13   16   16        0.0000001605
   19   13   17   16       -0.0000001965
   19   13   18   16        0.0007576820
   19   13   19   16       -0.0000305102
   19   13   17   17       -0.0000003806
   19   13   18   17        0.0008476158
   19   13   19   17       -0.0000342022
   19   13   18   18       -0.0000000896
   19   13   19   18        0.0000332351
   19   13   19   19       -0.0000021914
   14   14   14   14        0.1443219733
   14   14   15   14       -0.0000001616
   14   14   16   14        0.0000001897
   14   14   17   14        0.0000002860
   14   14   18   14        0.0000821901
   14   14   19   14        0.0000003134
   14   14   15   15        0.1349797149
   14   14   16   15        0.0000631177
   14   14   17   15       -0.0001045785
   14   14   18   15       -0.0000000265
   14   14   19   15       -0.0000003872
   14   14   16   16        0.1301936260
   14   14   17   16       -0.0033448149
   14   14   18   16        0.0000000230
   14   14   19   16        0.0000275692
   14   14   17   17        0.1241476109
   14   14   18   17        0.0000005329
   14   14   19   17       -0.0000486634
   14   14   18   18        0.1286947182
   14   14   19   18       -0.0000007054
   14   14   19   19        0.1217409557
   15   14   15   14        0.0163618996
   15   14   16   14        0.0000331823
   15   14   17   14       -0.0000926763
   15   14   18   14       -0.0000000762
   15   14   19   14       -0.0000004069
   15   14   15   15       -0.0000012757
   15   14   16   15       -0.0001111046
   15   14   17   15        0.0000994241
   15   14   18   15       -0.0000099095
   15   14   19   15        0.0000003902
   15   14   16   16        0.0000003639
   15   14   17   16       -0.0000006015
   15   14   18   16       -0.0039856679
   15   14   19   16        0.0000886913
   15   14   17   17       -0.0000012430
   15   14   18   17       -0.0044591362
   15   14   19   17        0.0000993305
   15   14   18   18       -0.0000000784
   15   14   19   18       -0.0000366130
   15   14   19   19        0.0000077896
   16   14   16   14        0.0050203153
   16   14   17   14       -0.0026997647
   16   14   18   14       -0.0000003104
   16   14   19   14        0.0000048395
   16   14   15   15       -0.0001183412
   16   14   16   15        0.0000006254
   16   14   17   15       -0.0000006846
   16   14   18   15       -0.0006801078
   16   14   19   15        0.0000050546
   16   14   16   16       -0.0002435360
   16   14   17   16        0.0000238381
   16   14   18   16       -0.0000156776
   16   14   19   16       -0.0000001555
   16   14   17   17       -0.0001978091
   16   14   18   17       -0.0000272771
   16   14   19   17        0.0000004476
   16   14   18   18        0.0000005802
   16   14   19   18        0.0021089224
   16   14   19   19       -0.0001950490
   17   14   17   14        0.0054525047
   17   14   18   14        0.0000015463
   17   14   19   14        0.0000012609
   17   14   15   15        0.0001058134
   17   14   16   15       -0.0000003986
   17   14   17   15       -0.0000023295
   17   14   18   15       -0.0007605992
   17   14   19   15        0.0000055084
   17   14   16   16        0.0001652064
   17   14   17   16       -0.0000396376
   17   14   18   16        0.0000286216
   17   14   19   16       -0.0000012496
   17   14   17   17        0.0002294064
   17   14   18   17        0.0000093060
   17   14   19   17       -0.0000002939
   17   14   18   18       -0.0000006141
   17   14   19   18       -0.0018850821
   17   14   19   19        0.0001743967
   18   14   18   14        0.0086378496
   18   14   19   14       -0.0000007756
   18   14   15   15       -0.0000074361
   18   14   16   15       -0.0017735166
   18   14   17   15       -0.0019842404
   18   14   18   15        0.0000000078
   18   14   19   15        0.0000177641
   18   14   16   16       -0.0001030974
   18   14   17   16       -0.0001380646
   18   14   18   16        0.0000004045
   18   14   19   16        0.0030334284
   18   14   17   17       -0.0000238205
   18   14   18   17       -0.0000004260
   18   14   19   17       -0.0027124263
   18   14   18   18       -0.0002011572
   18   14   19   18       -0.0000000288
   18   14   19   19       -0.0001698249
   19   14   19   14        0.0013201890
   19   14   15   15       -0.0000000820
   19   14   16   15       -0.0000031161
   19   14   17   15       -0.0000033907
   19   14   18   15        0.0000016290
   19   14   19   15        0.0000001184
   19   14   16   16        0.0000003069
   19   14   17   16        0.0000007758
   19   14   18   16        0.0008476798
   19   14   19   16       -0.0000342252
   19   14   17   17       -0.0000005781
   19   14   18   17       -0.0007575311
   19   14   19   17        0.0000306285
   19   14   18   18       -0.0000000994
   19   14   19   18       -0.0000153689
   19   14   19   19        0.0000007461
   15   15   15   15        0.1375857914
   15   15   16   15        0.0000300012
   15   15   17   15       -0.0000098028
   15   15   18   15        0.0000000538
   15   15   19   15       -0.0000003409
   15   15   16   16        0.1286499220
   15   15   17   16        0.0000000212
   15   15   18   16        0.0000001755
   15   15   19   16       -0.0000024632
   15   15   17   17        0.1286501116
   15   15   18   17        0.0000002837
   15   15   19   17       -0.0000075275
   15   15   18   18        0.1255161887
   15   15   19   18       -0.0001433507
   15   15   19   19        0.1223797120
   16   15   16   15        0.0088783879
   16   15   17   15        0.0000003263
   16   15   18   15        0.0000000834
   16   15   19   15        0.0000009202
   16   15   16   16        0.0002178844
   16   15   17   16        0.0000596282
   16   15   18   16        0.0000000611
   16   15   19   16        0.0000001313
   16   15   17   17        0.0001637311
   16   15   18   17        0.0000634971
   16   15   19   17       -0.0010378153
   16   15   18   18        0.0002933112
   16   15   19   18        0.0000010312
   16   15   19   19        0.0002931142
   17   15   17   15        0.0088794831
   17   15   18   15       -0.0000002746
   17   15   19   15        0.0000028993
   17   15   16   16        0.0000629676
   17   15   17   16        0.0001738813
   17   15   18   16       -0.0000636989
   17   15   19   16        0.0010379544
   17   15   17   17       -0.0001777846
   17   15   18   17        0.0000000732
   17   15   19   17       -0.0000003945
   17   15   18   18       -0.0000891300
   17   15   19   18       -0.0000001773
   17   15   19   19       -0.0000893006
   18   15   18   15        0.0021477636
   18   15   19   15       -0.0000157248
   18   15   16   16        0.0000000126
   18   15   17   16        0.0000000087
   18   15   18   16        0.0000467270
   18   15   19   16       -0.0000002481
   18   15   17   17        0.0000000998
   18   15   18   17       -0.0000143799
   18   15   19   17        0.0000000498
   18   15   18   18        0.0000000499
   18   15   19   18        0.0000000161
   18   15   19   19        0.0000000560
   19   15   19   15        0.0017967330
   19   15   16   16       -0.0000002474
   19   15   17   16       -0.0000000055
   19   15   18   16       -0.0000005211
   19   15   19   16        0.0000517891
   19   15   17   17       -0.0000002776
   19   15   18   17        0.0000000719
   19   15   19   17       -0.0000161079
   19   15   18   18       -0.0000001792
   19   15   19   18        0.0000000705
   19   15   19   19       -0.0000001802
   16   16   16   16        0.1347511713
   16   16   17   16        0.0002585700
   16   16   18   16       -0.0000000778
   16   16   19   16       -0.0000411971
   16   16   17   17        0.1229411174
   16   16   18   17       -0.0000008460
   16   16   19   17       -0.0000147782
   16   16   18   18        0.1221077369
   16   16   19   18       -0.0002397340
   16   16   19   19        0.1209828069
   17   16   17   16        0.0061165702
   17   16   18   16        0.0000002601
   17   16   19   16       -0.0000325543
   17   16   17   17       -0.0002576551
   17   16   18   17        0.0000003836
   17   16   19   17        0.0000724241
   17   16   18   18        0.0000005956
   17   16   19   18       -0.0000001027
   17   16   19   19        0.0000002253
   18   16   18   16        0.0047428197
   18   16   19   16       -0.0001077647
   18   16   17   17       -0.0000000472
   18   16   18   17        0.0000000613
   18   16   19   17        0.0000000104
   18   16   18   18       -0.0000001247
   18   16   19   18        0.0000156546
   18   16   19   19       -0.0000020692
   19   16   19   16        0.0061820023
   19   16   17   17        0.0000781276
   19   16   18   17       -0.0000000297
   19   16   19   17        0.0000002331
   19   16   18   18        0.0000709550
   19   16   19   18       -0.0000010018
   19   16   19   19        0.0000736067
   17   17   17   17        0.1347536854
   17   17   18   17        0.0000003704
   17   17   19   17        0.0001353232
   17   17   18   18        0.1221096778
   17   17   19   18       -0.0002395996
   17   17   19   19        0.1209851717
   18   17   18   17        0.0047438439
   18   17   19   17       -0.0001077691
   18   17   18   18        0.0000000697
   18   17   19   18        0.0000513110
   18   17   19   19       -0.0000065139
   19   17   19   17        0.0061843811
   19   17   18   18        0.0002329592
   19   17   19   18       -0.0000030493
   19   17   19   19        0.0002415524
   18   18   18   18        0.1351547812
   18   18   19   18        0.0000000012
   18   18   19   19        0.1245485268
   19   18   19   18        0.0052881843
   19   18   19   19       -0.0003279755
   19   19   19   19        0.1279111067
 end_two_electron_integrals


 output epsi filename:./pspw_hf_H2.emovecs

 Total PSPW energy     :  -0.1137135966E+01


=== Spin Contamination ===

 <Sexact^2> =    0.0000000000000000     
 <S^2>      =    0.0000000000000000     



== Center of Charge ==

spin up     (    0.0000,    0.0000,    0.0000 )
spin down   (    0.0000,    0.0000,    0.0000 )
     total  (    0.0000,    0.0000,    0.0000 )
ionic       (    0.0000,    0.0000,    0.0000 )


== Molecular Dipole wrt Center of Mass ==

mu   =  (   -0.0000,   -0.0000,   -0.0000 ) au
|mu| =     0.0000 au,       0.0000 Debye

 output psi filename:./pspw_hf_H2.movecs

 Writing Crystallographic Information File:./H2.cif
   - cell not shifted (nwpw:cif_shift_cell .false.)


== Timing ==

cputime in seconds
  prologue    :   0.621079E+01
  main loop   :   0.419706E+03
  epilogue    :   0.645451E-02
  total       :   0.425923E+03
  cputime/step:   0.476939E+01       (      88 evalulations,      40 linesearches)


Time spent doing                        total          step       percent
  total time                 :   0.425924E+03  0.484004E+01       100.0 %
  i/o time                   :   0.135001E+00  0.153410E-02         0.0 %
  FFTs                       :   0.365550E+03  0.415398E+01        85.8 %
  dot products               :   0.356844E+00  0.405505E-02         0.1 %
  geodesic                   :   0.417552E-01  0.474491E-03         0.0 %
  ffm_dgemm                  :   0.436851E-02  0.496422E-04         0.0 %
  fmf_dgemm                  :   0.212967E-01  0.242008E-03         0.0 %
  mmm_dgemm                  :   0.896215E-03  0.101843E-04         0.0 %
  m_diagonalize              :   0.569780E-03  0.647477E-05         0.0 %
  local pseudopotentials     :   0.917024E-02  0.104207E-03         0.0 %
  non-local pseudopotentials :   0.667361E+00  0.758365E-02         0.2 %
  structure factors          :   0.315599E+00  0.358635E-02         0.1 %
  phase factors              :   0.610900E-05  0.694205E-07         0.0 %
  masking and packing        :   0.167342E+02  0.190161E+00         3.9 %
  queue fft                  :   0.801734E+00  0.911062E-02         0.2 %
  queue fft (serial)         :   0.479278E+00  0.544635E-02         0.1 %
  queue fft (message passing):   0.294196E+00  0.334314E-02         0.1 %
  HFX potential              :   0.176061E+03  0.200070E+01        41.3 %
  non-local psp FFM          :   0.360271E+00  0.409399E-02         0.1 %
  non-local psp FMF          :   0.801389E-01  0.910670E-03         0.0 %
  non-local psp FFM A        :   0.958357E-01  0.108904E-02         0.0 %
  non-local psp FFM B        :   0.676430E-01  0.768670E-03         0.0 %

== HFX Counters ==
  HFX Evalulations         =    88
  Lin ACE HFX Evalulations =     0


     >>>  JOB COMPLETED     AT Thu May  1 20:13:16 2025  <<<

 Task  times  cpu:      425.7s     wall:      425.9s
 Summary of allocated global arrays
-----------------------------------
  No active global arrays


MA_summarize_allocated_blocks: starting scan ...
MA_summarize_allocated_blocks: scan completed: 0 heap blocks, 0 stack blocks
MA usage statistics:

	allocation statistics:
					      heap	     stack
					      ----	     -----
	current number of blocks	         0	         0
	maximum number of blocks	       313	        17
	current total bytes		         0	         0
	maximum total bytes		 375254968	  89294088
	maximum total K-bytes		    375255	     89295
	maximum total M-bytes		       376	        90


                                NWChem Input Module
                                -------------------




                                     CITATION
                                     --------
                Please cite the following reference when publishing
                           results obtained with NWChem:

          E. Apra, E. J. Bylaska, W. A. de Jong, N. Govind, K. Kowalski,
       T. P. Straatsma, M. Valiev, H. J. J. van Dam, Y. Alexeev, J. Anchell,
       V. Anisimov, F. W. Aquino, R. Atta-Fynn, J. Autschbach, N. P. Bauman,
     J. C. Becca, D. E. Bernholdt, K. Bhaskaran-Nair, S. Bogatko, P. Borowski,
         J. Boschen, J. Brabec, A. Bruner, E. Cauet, Y. Chen, G. N. Chuev,
      C. J. Cramer, J. Daily, M. J. O. Deegan, T. H. Dunning Jr., M. Dupuis,
   K. G. Dyall, G. I. Fann, S. A. Fischer, A. Fonari, H. Fruchtl, L. Gagliardi,
      J. Garza, N. Gawande, S. Ghosh, K. Glaesemann, A. W. Gotz, J. Hammond,
       V. Helms, E. D. Hermes, K. Hirao, S. Hirata, M. Jacquelin, L. Jensen,
   B. G. Johnson, H. Jonsson, R. A. Kendall, M. Klemm, R. Kobayashi, V. Konkov,
      S. Krishnamoorthy, M. Krishnan, Z. Lin, R. D. Lins, R. J. Littlefield,
      A. J. Logsdail, K. Lopata, W. Ma, A. V. Marenich, J. Martin del Campo,
   D. Mejia-Rodriguez, J. E. Moore, J. M. Mullin, T. Nakajima, D. R. Nascimento,
    J. A. Nichols, P. J. Nichols, J. Nieplocha, A. Otero-de-la-Roza, B. Palmer,
    A. Panyala, T. Pirojsirikul, B. Peng, R. Peverati, J. Pittner, L. Pollack,
   R. M. Richard, P. Sadayappan, G. C. Schatz, W. A. Shelton, D. W. Silverstein,
   D. M. A. Smith, T. A. Soares, D. Song, M. Swart, H. L. Taylor, G. S. Thomas,
            V. Tipparaju, D. G. Truhlar, K. Tsemekhman, T. Van Voorhis,
      A. Vazquez-Mayagoitia, P. Verma, O. Villa, A. Vishnu, K. D. Vogiatzis,
        D. Wang, J. H. Weare, M. J. Williamson, T. L. Windus, K. Wolinski,
        A. T. Wong, Q. Wu, C. Yang, Q. Yu, M. Zacharias, Z. Zhang, Y. Zhao,
                                and R. J. Harrison
                        "NWChem: Past, present, and future
                         J. Chem. Phys. 152, 184102 (2020)
                               doi:10.1063/5.0004997

                                      AUTHORS
                                      -------
  E. Apra, E. J. Bylaska, N. Govind, K. Kowalski, M. Valiev, D. Mejia-Rodriguez,
       A. Kunitsa, N. P. Bauman, A. Panyala, W. A. de Jong, T. P. Straatsma,
   H. J. J. van Dam, D. Wang, T. L. Windus, J. Hammond, J. Autschbach, A. Woods,
    K. Bhaskaran-Nair, J. Brabec, K. Lopata, S. A. Fischer, S. Krishnamoorthy,
     M. Jacquelin, W. Ma, M. Klemm, O. Villa, Y. Chen, V. Anisimov, F. Aquino,
     S. Hirata, M. T. Hackler, E. Hermes, L. Jensen, J. E. Moore, J. C. Becca,
      V. Konjkov, T. Risthaus, M. Malagoli, A. Marenich, A. Otero-de-la-Roza,
        J. Mullin, P. Nichols, R. Peverati, J. Pittner, Y. Zhao, P.-D. Fan,
        A. Fonari, M. J. Williamson, R. J. Harrison, J. R. Rehr, M. Dupuis,
     D. Silverstein, D. M. A. Smith, J. Nieplocha, V. Tipparaju, M. Krishnan,
     B. E. Van Kuiken, A. Vazquez-Mayagoitia, M. Swart, Q. Wu, T. Van Voorhis,
     A. A. Auer, M. Nooijen, L. D. Crosby, E. Brown, G. Cisneros, G. I. Fann,
   H. Fruchtl, J. Garza, K. Hirao, R. A. Kendall, J. A. Nichols, K. Tsemekhman,
    K. Wolinski, J. Anchell, D. E. Bernholdt, P. Borowski, T. Clark, D. Clerc,
   H. Dachsel, M. J. O. Deegan, K. Dyall, D. Elwood, E. Glendening, M. Gutowski,
   A. C. Hess, J. Jaffe, B. G. Johnson, J. Ju, R. Kobayashi, R. Kutteh, Z. Lin,
   R. Littlefield, X. Long, B. Meng, T. Nakajima, S. Niu, L. Pollack, M. Rosing,
   K. Glaesemann, G. Sandrone, M. Stave, H. Taylor, G. Thomas, J. H. van Lenthe,
                               A. T. Wong, Z. Zhang.

 Total times  cpu:      425.9s     wall:      425.9s
