 argument  1 = H2-1.5.nw



============================== echo of input deck ==============================
title "swnc: e theory=pspw4 xc=hf formula=H2 charge=0 mult=1"
#machinejob:expert

echo

start pspw_hf_H2

memory heap 1200 mb stack 1200 mb global 10 mb

charge 0

geometry
H    0.00000    0.00000   -0.75000
H    0.00000    0.00000    0.75000
end

nwpw
  ### pseudopotential block begin ###
  ### pseudopotential block end   ###
  simulation_cell
     SC 15.0000
     boundary_conditions aperiodic
  end

  cutoff 50.0
  mult 1
  xc hf
  lmbfgs
  tolerances 1.0e-9 1.0e-9

  virtual 18
end
set nwpw:cif_filename H2

#set nwpw:CI_maxit_orb 15
#set nwpw:CI_maxit_linesearch 15
set pspw:HFX_screening_radius 14.0


set nwpw:2qintegrals .true.
#set nwpw:3x3_virtual .true.

task pspw energy

================================================================================


                                         
                                         


             Northwest Computational Chemistry Package (NWChem) 7.2.2
             --------------------------------------------------------


                    Environmental Molecular Sciences Laboratory
                       Pacific Northwest National Laboratory
                                Richland, WA 99352

                              Copyright (c) 1994-2022
                       Pacific Northwest National Laboratory
                            Battelle Memorial Institute

             NWChem is an open-source computational chemistry package
                        distributed under the terms of the
                      Educational Community License (ECL) 2.0
             A copy of the license is included with this distribution
                              in the LICENSE.TXT file

                                  ACKNOWLEDGMENT
                                  --------------

            This software and its documentation were developed at the
            EMSL at Pacific Northwest National Laboratory, a multiprogram
            national laboratory, operated for the U.S. Department of Energy
            by Battelle under Contract Number DE-AC05-76RL01830. Support
            for this work was provided by the Department of Energy Office
            of Biological and Environmental Research, Office of Basic
            Energy Sciences, and the Office of Advanced Scientific Computing.


           Job information
           ---------------

    hostname        = LAPTOP-JJQSTSEL
    program         = nwchem
    date            = Thu May  1 20:38:09 2025

    compiled        = Fri_Jun_07_07:50:04_2024
    source          = /home/conda/feedstock_root/build_artifacts/nwchem_1717738148552/work
    nwchem branch   = 7.2.2
    nwchem revision = 64ba0f0
    ga revision     = 5.8.0
    use scalapack   = T
    input           = H2-1.5.nw
    prefix          = pspw_hf_H2.
    data base       = ./pspw_hf_H2.db
    status          = startup
    nproc           =        1
    time left       =     -1s



           Memory information
           ------------------

    heap     =  157286400 doubles =   1200.0 Mbytes
    stack    =  157286397 doubles =   1200.0 Mbytes
    global   =    1310720 doubles =     10.0 Mbytes (distinct from heap & stack)
    total    =  315883517 doubles =   2410.0 Mbytes
    verify   = yes
    hardfail = no 


           Directory information
           ---------------------

  0 permanent = .
  0 scratch   = .




                                NWChem Input Module
                                -------------------


               swnc: e theory=pspw4 xc=hf formula=H2 charge=0 mult=1
               -----------------------------------------------------

 Scaling coordinates for geometry "geometry" by  1.889725989
 (inverse scale =  0.529177249)

 ORDER OF PRIMARY AXIS IS BEING SET TO 4
 D4H symmetry detected

          ------
          auto-z
          ------
     1 autoz failed with cvr_scaling = 1.2 changing to 1.3
     2 autoz failed with cvr_scaling = 1.3 changing to 1.4
     3 autoz failed with cvr_scaling = 1.4 changing to 1.5
     4 autoz failed with cvr_scaling = 1.5 changing to 1.6
     5 autoz failed with cvr_scaling = 1.6 changing to 1.7

 AUTOZ failed to generate good internal coordinates.
 Cartesian coordinates will be used in optimizations.



                             Geometry "geometry" -> ""
                             -------------------------

 Output coordinates in angstroms (scale by  1.889725989 to convert to a.u.)

  No.       Tag          Charge          X              Y              Z
 ---- ---------------- ---------- -------------- -------------- --------------
    1 H                    1.0000     0.00000000     0.00000000    -0.75000000
    2 H                    1.0000     0.00000000     0.00000000     0.75000000

      Atomic Mass 
      ----------- 

      H                  1.007825


 Effective nuclear repulsion energy (a.u.)       0.3527848327

            Nuclear Dipole moment (a.u.) 
            ----------------------------
        X                 Y               Z
 ---------------- ---------------- ----------------
     0.0000000000     0.0000000000     0.0000000000

      Symmetry information
      --------------------

 Group name             D4h       
 Group number             28
 Group order              16
 No. of unique centers     1

      Symmetry unique atoms

     1


            XYZ format geometry
            -------------------
     2
 geometry
 H                     0.00000000     0.00000000    -0.75000000
 H                     0.00000000     0.00000000     0.75000000

          ****************************************************
          *                                                  *
          *               NWPW PSPW Calculation              *
          *                                                  *
          * [ (Grassmann/Stiefel manifold implementation)  ] *
          *                                                  *
          *      [ NorthWest Chemistry implementation ]      *
          *                                                  *
          *            version #5.10   06/12/02              *
          *                                                  *
          *    This code was developed by Eric J. Bylaska,   *
          *    and was based upon algorithms and code        *
          *    developed by the group of Prof. John H. Weare *
          *                                                  *
          ****************************************************
     >>>  JOB STARTED       AT Thu May  1 20:38:09 2025  <<<
          ================ input data ========================

 input psi filename:./pspw_hf_H2.movecs

 number of processors used:         1
 processor grid           :   1 x   1
 parallel mapping         :2d-hilbert
 parallel mapping         :  balanced
 number of threads        :         1
 parallel io              :       off

 options:
      boundary conditions  = aperiodic   (version4)
      electron spin        = restricted
      exchange-correlation = Hartree-Fock
      - HFX relaxed
      - HFX restricted orbitals :    1
      - HFX free-space coulomb solver


 elements involved in the cluster:
      1: H   valence charge:  1.0000  lmax=  1
             comment    : Parameterized (Chem.Phys.Lett., vol 322, page 447) Hamman psp
             pseudpotential type            :   0
             highest angular component      :   1
             local potential used           :   1
             number of non-local projections:   1
             aperiodic cutoff radius        :  1.000
             cutoff =   0.800   0.800


 total charge:   0.000

 atomic composition:
     H   :    2

 number of electrons: spin up=     1 (   1 per task)  down=     1 (   1 per task) (Fourier space)
 number of orbitals : spin up=     1 (   1 per task)  down=     1 (   1 per task) (Fourier space)

 supercell:
      cell_name:  cell_default                                      
      lattice:    a1=<  15.000   0.000   0.000 >
                  a2=<   0.000  15.000   0.000 >
                  a3=<   0.000   0.000  15.000 >
      reciprocal: b1=<   0.419   0.000   0.000 >
                  b2=<   0.000   0.419   0.000 >
                  b3=<   0.000   0.000   0.419 >
      lattice:    a=      15.000 b=     15.000 c=      15.000
                  alpha=  90.000 beta=  90.000 gamma=  90.000
                  omega=      3375.0

      density cutoff=100.000  fft= 70x 70x 70(    80618 waves    80618 per task)
      wavefnc cutoff= 50.000  fft= 70x 70x 70(    28526 waves    28526 per task)

 technical parameters:
      time step=      5.80     fictitious mass=  400000.0
      tolerance=0.100E-08 (energy)   0.100E-08 (density)
      maximum iterations =      1000 (   10 inner    100 outer )





== Energy Calculation ==


          ============ Grassmann lmbfgs iteration ============
     >>>  ITERATION STARTED AT Thu May  1 20:38:14 2025  <<<
    iter.           Energy         DeltaE       DeltaRho 
    ------------------------------------------------------
      10   -0.1000721356E+01   -0.14784E-02    0.21907E-01
     -  10 steepest descent iterations performed
      20   -0.1004157082E+01   -0.46673E-04    0.56009E-04
      30   -0.1004256409E+01   -0.23536E-05    0.16663E-05
      40   -0.1004260823E+01   -0.65434E-07    0.24330E-07
      50   -0.1004261033E+01   -0.22027E-08    0.57489E-09
      60   -0.1004261037E+01   -0.87669E-09    0.58415E-11
  *** tolerance ok. iteration terminated
     >>>  ITERATION ENDED   AT Thu May  1 20:38:51 2025  <<<


==  Summary Of Results  ==

 number of electrons: spin up=    1.00000  down=    1.00000 (real space)

 total     energy    :  -0.1004261037E+01 (   -0.50213E+00/ion)
 total orbital energy:  -0.8821275871E+00 (   -0.88213E+00/electron)
 hartree   energy    :   0.9498365643E+00 (    0.94984E+00/electron)
 exc-corr  energy    :   0.0000000000E+00 (    0.00000E+00/electron)
 HF exchange energy  :  -0.4749182821E+00 (   -0.47492E+00/electron)
 ion-ion   energy    :   0.3527848327E+00 (    0.17639E+00/ion)

 kinetic (planewave) :   0.6931290608E+00 (    0.69313E+00/electron)
 V_local (planewave) :  -0.2351194262E+01 (   -0.23512E+01/electron)
 V_nl    (planewave) :  -0.1738989502E+00 (   -0.17390E+00/electron)
 V_Coul  (planewave) :   0.1899673129E+01 (    0.18997E+01/electron)
 V_xc.   (planewave) :   0.0000000000E+00 (    0.00000E+00/electron)
 K.S. HFX energy     :  -0.9498365643E+00 (   -0.94984E+00/electron)
 Virial Coefficient  :  -0.9023140408E+00

 orbital energies:
    -0.4410638E+00 ( -12.002eV)


== Virtual Orbital Calculation ==


 input epsi filename:./pspw_hf_H2.emovecs
     orbital   1 current e= 0.972E-02 (error=0.839E-09) iterations  63(  37 preconditioned, Ep,Sp= 20.0  200.0)
     orbital   2 current e= 0.212E-01 (error=0.972E-09) iterations  76(  58 preconditioned, Ep,Sp= 20.0  200.0)
     orbital   3 current e= 0.840E-01 (error=0.901E-09) iterations  51(  19 preconditioned, Ep,Sp= 20.0  200.0)
     orbital   4 current e= 0.840E-01 (error=0.901E-09) iterations  51(  19 preconditioned, Ep,Sp= 20.0  200.0)
     orbital   5 current e= 0.860E-01 (error=0.861E-09) iterations  51(  20 preconditioned, Ep,Sp= 20.0  200.0)
     orbital   6 current e= 0.881E-01 (error=0.862E-09) iterations  24(   3 preconditioned, Ep,Sp= 20.0  200.0)
     orbital   7 current e= 0.112E+00 (error=0.949E-09) iterations  74(  51 preconditioned, Ep,Sp= 20.0  200.0)
     orbital   8 current e= 0.119E+00 (error=0.916E-09) iterations  68(  44 preconditioned, Ep,Sp= 20.0  200.0)
     orbital   9 current e= 0.168E+00 (error=0.928E-09) iterations  61(  24 preconditioned, Ep,Sp= 20.0  200.0)
     orbital  10 current e= 0.168E+00 (error=0.928E-09) iterations  61(  24 preconditioned, Ep,Sp= 20.0  200.0)
     orbital  11 current e= 0.173E+00 (error=0.923E-09) iterations  69(  27 preconditioned, Ep,Sp= 20.0  200.0)
     orbital  12 current e= 0.173E+00 (error=0.742E-09) iterations  54(  32 preconditioned, Ep,Sp= 20.0  200.0)
     orbital  13 current e= 0.173E+00 (error=0.742E-09) iterations  54(  32 preconditioned, Ep,Sp= 20.0  200.0)
     orbital  14 current e= 0.175E+00 (error=0.950E-09) iterations  50(  13 preconditioned, Ep,Sp= 20.0  200.0)
     orbital  15 current e= 0.175E+00 (error=0.949E-09) iterations  50(  13 preconditioned, Ep,Sp= 20.0  200.0)
     orbital  16 current e= 0.175E+00 (error=0.949E-09) iterations  43(  15 preconditioned, Ep,Sp= 20.0  200.0)
     orbital  17 current e= 0.176E+00 (error=0.854E-09) iterations  24(   4 preconditioned, Ep,Sp= 20.0  200.0)
     orbital  18 current e= 0.176E+00 (error=0.807E-09) iterations  26(   2 preconditioned, Ep,Sp= 20.0  200.0)

 virtual orbital energies:
     0.1761856E+00 (   4.794eV)
     0.1756518E+00 (   4.780eV)
     0.1752866E+00 (   4.770eV)
     0.1751304E+00 (   4.766eV)
     0.1751304E+00 (   4.766eV)
     0.1732062E+00 (   4.713eV)
     0.1732062E+00 (   4.713eV)
     0.1728437E+00 (   4.703eV)
     0.1675624E+00 (   4.560eV)
     0.1675624E+00 (   4.560eV)
     0.1187399E+00 (   3.231eV)
     0.1121893E+00 (   3.053eV)
     0.8810392E-01 (   2.397eV)
     0.8601557E-01 (   2.341eV)
     0.8402651E-01 (   2.286eV)
     0.8402651E-01 (   2.286eV)
     0.2118866E-01 (   0.577eV)
     0.9723773E-02 (   0.265eV)


 == Generating One-Electron and Two-Electron Integrals ==

 begin_one_electron_integrals
    1    1        -0.9159820757
    2    1         0.0331000551
    3    1         0.0000076273
    4    1         0.0000000015
    5    1        -0.0000044015
    6    1         0.0052859224
    7    1        -0.0000000035
    8    1         0.0000338591
    9    1         0.0391175407
   10    1        -0.0000033695
   11    1        -0.0000001527
   12    1        -0.0036591644
   13    1         0.0000000067
   14    1        -0.0000000286
   15    1         0.0000001295
   16    1        -0.0000000031
   17    1         0.0000000602
   18    1         0.0000005737
   19    1        -0.0000007088
    2    2        -0.2610031496
    3    2         0.0000868385
    4    2         0.0000000000
    5    2         0.0000003924
    6    2        -0.0036556644
    7    2        -0.0000000157
    8    2        -0.0000879393
    9    2        -0.0612098161
   10    2         0.0000008584
   11    2         0.0000000385
   12    2         0.0013156856
   13    2        -0.0000000047
   14    2         0.0000000121
   15    2        -0.0000001674
   16    2         0.0000000035
   17    2        -0.0000000572
   18    2        -0.0000005095
   19    2         0.0000006308
    3    3        -0.5766539156
    4    3         0.0000000000
    5    3         0.0000000329
    6    3        -0.0000447833
    7    3        -0.0000000341
    8    3         0.1303696945
    9    3        -0.0001527090
   10    3         0.0000000050
   11    3         0.0000000003
   12    3         0.0000227323
   13    3         0.0000000064
   14    3        -0.0000006091
   15    3        -0.0000000042
   16    3         0.0000000001
   17    3         0.0000000051
   18    3        -0.0000006772
   19    3        -0.0000017010
    4    4        -0.2357514557
    5    4        -0.0000000000
    6    4         0.0000000100
    7    4         0.0000279676
    8    4         0.0000000000
    9    4        -0.0000000011
   10    4         0.0041062660
   11    4        -0.0895370881
   12    4         0.0000000051
   13    4        -0.0000005437
   14    4        -0.0000000061
   15    4        -0.0001304751
   16    4        -0.0092110788
   17    4        -0.0000000035
   18    4        -0.0000000355
   19    4        -0.0000029572
    5    5        -0.2357514525
    6    5        -0.0000271232
    7    5         0.0000000112
    8    5        -0.0000000142
    9    5         0.0000031645
   10    5        -0.0895370838
   11    5        -0.0041062660
   12    5        -0.0000118353
   13    5        -0.0000000061
   14    5         0.0000005434
   15    5        -0.0092110812
   16    5         0.0001304762
   17    5         0.0000085410
   18    5        -0.0000000568
   19    5        -0.0000000357
    6    6        -0.1965953267
    7    6         0.0000000073
    8    6         0.0000175610
    9    6        -0.0018829921
   10    6        -0.0000562943
   11    6        -0.0000025608
   12    6         0.0465409225
   13    6        -0.0000000420
   14    6         0.0000003385
   15    6        -0.0000113321
   16    6         0.0000001660
   17    6        -0.0000000140
   18    6        -0.0000001717
   19    6         0.0000002785
    7    7        -0.1870161864
    8    7        -0.0000000144
    9    7         0.0000001000
   10    7        -0.0000022224
   11    7         0.0000489573
   12    7        -0.0000002312
   13    7         0.0000000458
   14    7         0.0000001458
   15    7         0.0000000235
   16    7        -0.0000011899
   17    7         0.0000001203
   18    7        -0.0000165276
   19    7         0.0390040311
    8    8        -0.2014047059
    9    8         0.0000490234
   10    8        -0.0000000029
   11    8        -0.0000000002
   12    8        -0.0000151931
   13    8         0.0000000004
   14    8        -0.0000000177
   15    8         0.0000000033
   16    8        -0.0000000001
   17    8        -0.0000000052
   18    8         0.0000006617
   19    8         0.0000016970
    9    9        -0.1551045849
   10    9         0.0000034756
   11    9         0.0000001571
   12    9         0.0014044230
   13    9        -0.0000000066
   14    9         0.0000000108
   15    9         0.0000000835
   16    9         0.0000000008
   17    9        -0.0000001003
   18    9        -0.0000009891
   19    9         0.0000011526
   10   10        -0.1755366013
   11   10        -0.0000000001
   12   10         0.0000185871
   13   10        -0.0000000259
   14   10        -0.0000007474
   15   10        -0.0091003147
   16   10         0.0005466126
   17   10         0.0000094861
   18   10        -0.0000002325
   19   10         0.0000010404
   11   11        -0.1755366009
   12   11         0.0000008464
   13   11         0.0000007473
   14   11        -0.0000000260
   15   11        -0.0005466121
   16   11        -0.0091003074
   17   11         0.0000004312
   18   11        -0.0000000349
   19   11        -0.0000255130
   12   12        -0.1059864156
   13   12        -0.0000000314
   14   12         0.0000002564
   15   12         0.0000023751
   16   12        -0.0000000345
   17   12        -0.0000000120
   18   12         0.0000000157
   19   12        -0.0000000372
   13   13        -0.1409393547
   14   13         0.0000000000
   15   13        -0.0000000883
   16   13        -0.0000034796
   17   13         0.0000000000
   18   13         0.0000047531
   19   13         0.0000000447
   14   14        -0.1409393547
   15   14         0.0000034803
   16   14        -0.0000000884
   17   14        -0.0000000038
   18   14         0.0000000299
   19   14        -0.0000000653
   15   15        -0.1055368536
   16   15         0.0000000006
   17   15        -0.0000268037
   18   15        -0.0000000302
   19   15        -0.0000000729
   16   16        -0.1055368212
   17   16         0.0000003904
   18   16        -0.0000000075
   19   16        -0.0000041584
   17   17        -0.1298967866
   18   17         0.0000000920
   19   17         0.0000002156
   18   18        -0.1026218947
   19   18        -0.0000014176
   19   19        -0.0983595353
 end_one_electron_integrals

 begin_two_electron_integrals
    1    1    1    1        0.4749182821
    1    1    2    1       -0.0331033861
    1    1    3    1       -0.0000076347
    1    1    4    1       -0.0000000015
    1    1    5    1        0.0000043960
    1    1    6    1       -0.0052752931
    1    1    7    1        0.0000000035
    1    1    8    1       -0.0000338608
    1    1    9    1       -0.0391132454
    1    1   10    1        0.0000033714
    1    1   11    1        0.0000001528
    1    1   12    1        0.0036596510
    1    1   13    1       -0.0000000067
    1    1   14    1        0.0000000286
    1    1   15    1       -0.0000001294
    1    1   16    1        0.0000000031
    1    1   17    1       -0.0000000602
    1    1   18    1       -0.0000005739
    1    1   19    1        0.0000007090
    1    1    2    2        0.1372696073
    1    1    3    2       -0.0000570423
    1    1    4    2       -0.0000000004
    1    1    5    2        0.0000006872
    1    1    6    2        0.0021704533
    1    1    7    2        0.0000000081
    1    1    8    2        0.0000523753
    1    1    9    2        0.0329774648
    1    1   10    2        0.0000007779
    1    1   11    2        0.0000000357
    1    1   12    2       -0.0009176990
    1    1   13    2        0.0000000028
    1    1   14    2       -0.0000000091
    1    1   15    2        0.0000002332
    1    1   16    2       -0.0000000040
    1    1   17    2        0.0000000330
    1    1   18    2        0.0000002921
    1    1   19    2       -0.0000003621
    1    1    3    3        0.3444154647
    1    1    4    3       -0.0000000000
    1    1    5    3       -0.0000000149
    1    1    6    3        0.0000209795
    1    1    7    3        0.0000000229
    1    1    8    3       -0.0850820395
    1    1    9    3        0.0000946218
    1    1   10    3       -0.0000000015
    1    1   11    3       -0.0000000001
    1    1   12    3       -0.0000096685
    1    1   13    3       -0.0000000046
    1    1   14    3        0.0000004375
    1    1   15    3        0.0000000025
    1    1   16    3       -0.0000000001
    1    1   17    3       -0.0000000035
    1    1   18    3        0.0000004653
    1    1   19    3        0.0000011687
    1    1    4    4        0.1619531015
    1    1    5    4        0.0000000000
    1    1    6    4       -0.0000000051
    1    1    7    4       -0.0000135671
    1    1    8    4        0.0000000000
    1    1    9    4        0.0000000004
    1    1   10    4       -0.0021861662
    1    1   11    4        0.0476693321
    1    1   12    4       -0.0000000026
    1    1   13    4        0.0000004811
    1    1   14    4        0.0000000054
    1    1   15    4        0.0000693209
    1    1   16    4        0.0048938108
    1    1   17    4        0.0000000018
    1    1   18    4        0.0000000195
    1    1   19    4        0.0000011515
    1    1    5    5        0.1619530993
    1    1    6    5        0.0000138941
    1    1    7    5       -0.0000000055
    1    1    8    5        0.0000000070
    1    1    9    5       -0.0000013593
    1    1   10    5        0.0476693291
    1    1   11    5        0.0021861662
    1    1   12    5        0.0000061434
    1    1   13    5        0.0000000054
    1    1   14    5       -0.0000004809
    1    1   15    5        0.0048938126
    1    1   16    5       -0.0000693215
    1    1   17    5       -0.0000044080
    1    1   18    5        0.0000000339
    1    1   19    5        0.0000000206
    1    1    6    6        0.1416957196
    1    1    7    6       -0.0000000029
    1    1    8    6       -0.0000084127
    1    1    9    6        0.0013641352
    1    1   10    6        0.0000290886
    1    1   11    6        0.0000013232
    1    1   12    6       -0.0236862747
    1    1   13    6        0.0000000214
    1    1   14    6       -0.0000001731
    1    1   15    6        0.0000057846
    1    1   16    6       -0.0000000847
    1    1   17    6        0.0000000070
    1    1   18    6        0.0000000927
    1    1   19    6       -0.0000001479
    1    1    7    7        0.1377054675
    1    1    8    7        0.0000000025
    1    1    9    7       -0.0000000404
    1    1   10    7        0.0000011032
    1    1   11    7       -0.0000243049
    1    1   12    7        0.0000001157
    1    1   13    7       -0.0000000219
    1    1   14    7       -0.0000000735
    1    1   15    7       -0.0000000116
    1    1   16    7        0.0000006194
    1    1   17    7       -0.0000000606
    1    1   18    7        0.0000083551
    1    1   19    7       -0.0196459850
    1    1    8    8        0.1657364285
    1    1    9    8       -0.0000277521
    1    1   10    8        0.0000000022
    1    1   11    8        0.0000000001
    1    1   12    8        0.0000071946
    1    1   13    8       -0.0000000021
    1    1   14    8        0.0000001866
    1    1   15    8       -0.0000000010
    1    1   16    8        0.0000000001
    1    1   17    8        0.0000000032
    1    1   18    8       -0.0000003987
    1    1   19    8       -0.0000010188
    1    1    9    9        0.1399197997
    1    1   10    9       -0.0000012446
    1    1   11    9       -0.0000000562
    1    1   12    9       -0.0010353729
    1    1   13    9        0.0000000033
    1    1   14    9       -0.0000000069
    1    1   15    9        0.0000000564
    1    1   16    9       -0.0000000018
    1    1   17    9        0.0000000489
    1    1   18    9        0.0000005241
    1    1   19    9       -0.0000006088
    1    1   10   10        0.1757750730
    1    1   11   10        0.0000000001
    1    1   12   10       -0.0000094141
    1    1   13   10        0.0000000152
    1    1   14   10        0.0000004398
    1    1   15   10        0.0049839951
    1    1   16   10       -0.0002993650
    1    1   17   10       -0.0000052751
    1    1   18   10        0.0000001246
    1    1   19   10       -0.0000005083
    1    1   11   11        0.1757750728
    1    1   12   11       -0.0000004287
    1    1   13   11       -0.0000004398
    1    1   14   11        0.0000000153
    1    1   15   11        0.0002993647
    1    1   16   11        0.0049839918
    1    1   17   11       -0.0000002398
    1    1   18   11        0.0000000192
    1    1   19   11        0.0000125945
    1    1   12   12        0.1398985088
    1    1   13   12        0.0000000160
    1    1   14   12       -0.0000001307
    1    1   15   12       -0.0000012824
    1    1   16   12        0.0000000186
    1    1   17   12        0.0000000062
    1    1   18   12       -0.0000000092
    1    1   19   12        0.0000000179
    1    1   13   13        0.1577157999
    1    1   14   13       -0.0000000000
    1    1   15   13        0.0000000368
    1    1   16   13        0.0000014514
    1    1   17   13       -0.0000000000
    1    1   18   13       -0.0000021539
    1    1   19   13       -0.0000000210
    1    1   14   14        0.1577157999
    1    1   15   14       -0.0000014518
    1    1   16   14        0.0000000369
    1    1   17   14        0.0000000015
    1    1   18   14       -0.0000000105
    1    1   19   14        0.0000000389
    1    1   15   15        0.1404580320
    1    1   16   15       -0.0000000003
    1    1   17   15        0.0000138564
    1    1   18   15        0.0000000170
    1    1   19   15        0.0000000367
    1    1   16   16        0.1404580150
    1    1   17   16       -0.0000002018
    1    1   18   16        0.0000000031
    1    1   19   16        0.0000020252
    1    1   17   17        0.1529367351
    1    1   18   17       -0.0000000464
    1    1   19   17       -0.0000001077
    1    1   18   18        0.1392070282
    1    1   19   18        0.0000007154
    1    1   19   19        0.1374348526
    2    1    2    1        0.0038122916
    2    1    3    1       -0.0000305854
    2    1    4    1       -0.0000000007
    2    1    5    1        0.0000017721
    2    1    6    1        0.0006849007
    2    1    7    1       -0.0000000006
    2    1    8    1        0.0000168451
    2    1    9    1        0.0047465072
    2    1   10    1        0.0000024144
    2    1   11    1        0.0000001099
    2    1   12    1       -0.0005205498
    2    1   13    1        0.0000000009
    2    1   14    1       -0.0000000061
    2    1   15    1        0.0000002992
    2    1   16    1       -0.0000000045
    2    1   17    1        0.0000000082
    2    1   18    1        0.0000000728
    2    1   19    1       -0.0000000904
    2    1    2    2       -0.0009178890
    2    1    3    2       -0.0000014551
    2    1    4    2       -0.0000000036
    2    1    5    2        0.0000096311
    2    1    6    2        0.0000278025
    2    1    7    2       -0.0000000000
    2    1    8    2       -0.0000150113
    2    1    9    2       -0.0012000434
    2    1   10    2        0.0000004281
    2    1   11    2        0.0000000195
    2    1   12    2        0.0000215633
    2    1   13    2        0.0000000001
    2    1   14    2       -0.0000000196
    2    1   15    2        0.0000001326
    2    1   16    2       -0.0000000019
    2    1   17    2        0.0000000080
    2    1   18    2       -0.0000000177
    2    1   19    2        0.0000000221
    2    1    3    3       -0.0174775569
    2    1    4    3        0.0000000000
    2    1    5    3        0.0000000024
    2    1    6    3       -0.0000102183
    2    1    7    3       -0.0000000022
    2    1    8    3        0.0077124570
    2    1    9    3       -0.0000116823
    2    1   10    3        0.0000000004
    2    1   11    3        0.0000000000
    2    1   12    3        0.0000078744
    2    1   13    3       -0.0000000592
    2    1   14    3        0.0000054697
    2    1   15    3        0.0000000044
    2    1   16    3       -0.0000000001
    2    1   17    3        0.0000000004
    2    1   18    3       -0.0000000506
    2    1   19    3       -0.0000001265
    2    1    4    4       -0.0017065933
    2    1    5    4        0.0000000000
    2    1    6    4        0.0000000012
    2    1    7    4        0.0000053155
    2    1    8    4        0.0000000000
    2    1    9    4       -0.0000000009
    2    1   10    4        0.0001020395
    2    1   11    4       -0.0022249694
    2    1   12    4       -0.0000000004
    2    1   13    4        0.0000162943
    2    1   14    4        0.0000001824
    2    1   15    4       -0.0000054700
    2    1   16    4       -0.0003861552
    2    1   17    4       -0.0000000040
    2    1   18    4        0.0000000143
    2    1   19    4       -0.0000017440
    2    1    5    5       -0.0017065781
    2    1    6    5       -0.0000033323
    2    1    7    5        0.0000000020
    2    1    8    5       -0.0000000129
    2    1    9    5        0.0000023331
    2    1   10    5       -0.0022249764
    2    1   11    5       -0.0001020398
    2    1   12    5        0.0000011312
    2    1   13    5        0.0000001825
    2    1   14    5       -0.0000162943
    2    1   15    5       -0.0003861276
    2    1   16    5        0.0000054696
    2    1   17    5        0.0000105183
    2    1   18    5       -0.0000000030
    2    1   19    5       -0.0000000024
    2    1    6    6       -0.0005522297
    2    1    7    6        0.0000000001
    2    1    8    6        0.0000001086
    2    1    9    6       -0.0000164775
    2    1   10    6       -0.0000038257
    2    1   11    6       -0.0000001740
    2    1   12    6        0.0004779735
    2    1   13    6       -0.0000000003
    2    1   14    6       -0.0000000118
    2    1   15    6       -0.0000087678
    2    1   16    6        0.0000001275
    2    1   17    6        0.0000000124
    2    1   18    6       -0.0000000026
    2    1   19    6        0.0000000045
    2    1    7    7       -0.0004994145
    2    1    8    7        0.0000000006
    2    1    9    7        0.0000000009
    2    1   10    7       -0.0000003351
    2    1   11    7        0.0000073693
    2    1   12    7       -0.0000000029
    2    1   13    7       -0.0000000001
    2    1   14    7        0.0000000020
    2    1   15    7       -0.0000000522
    2    1   16    7       -0.0000036339
    2    1   17    7        0.0000000017
    2    1   18    7        0.0000130786
    2    1   19    7        0.0005349897
    2    1    8    8       -0.0038686801
    2    1    9    8        0.0000029532
    2    1   10    8        0.0000000123
    2    1   11    8        0.0000000006
    2    1   12    8       -0.0000040184
    2    1   13    8       -0.0000000956
    2    1   14    8        0.0000088384
    2    1   15    8        0.0000000072
    2    1   16    8       -0.0000000001
    2    1   17    8       -0.0000000002
    2    1   18    8        0.0000000266
    2    1   19    8        0.0000000671
    2    1    9    9       -0.0016068804
    2    1   10    9        0.0000076198
    2    1   11    9        0.0000003466
    2    1   12    9       -0.0000270812
    2    1   13    9       -0.0000000000
    2    1   14    9       -0.0000000057
    2    1   15    9        0.0000011544
    2    1   16    9       -0.0000000167
    2    1   17    9       -0.0000000052
    2    1   18    9       -0.0000000248
    2    1   19    9        0.0000000301
    2    1   10   10       -0.0032800330
    2    1   11   10        0.0000000003
    2    1   12   10        0.0000035439
    2    1   13   10       -0.0000000341
    2    1   14   10       -0.0000009842
    2    1   15   10       -0.0003732230
    2    1   16   10        0.0000224177
    2    1   17   10       -0.0000021849
    2    1   18   10       -0.0000000065
    2    1   19   10        0.0000002200
    2    1   11   11       -0.0032800400
    2    1   12   11        0.0000001612
    2    1   13   11        0.0000009843
    2    1   14   11       -0.0000000341
    2    1   15   11       -0.0000224177
    2    1   16   11       -0.0003732222
    2    1   17   11       -0.0000000994
    2    1   18   11        0.0000000056
    2    1   19   11       -0.0000049121
    2    1   12   12       -0.0006586098
    2    1   13   12       -0.0000000004
    2    1   14   12        0.0000000022
    2    1   15   12       -0.0000026479
    2    1   16   12        0.0000000385
    2    1   17   12        0.0000000015
    2    1   18   12        0.0000000003
    2    1   19   12        0.0000000003
    2    1   13   13       -0.0011505995
    2    1   14   13       -0.0000000002
    2    1   15   13       -0.0000001688
    2    1   16   13       -0.0000066569
    2    1   17   13        0.0000000003
    2    1   18   13        0.0000047324
    2    1   19   13        0.0000000061
    2    1   14   14       -0.0011505822
    2    1   15   14        0.0000066568
    2    1   16   14       -0.0000001689
    2    1   17   14       -0.0000000246
    2    1   18   14        0.0000000510
    2    1   19   14       -0.0000000017
    2    1   15   15       -0.0004383037
    2    1   16   15       -0.0000000003
    2    1   17   15        0.0000035795
    2    1   18   15       -0.0000000008
    2    1   19   15       -0.0000000369
    2    1   16   16       -0.0004383264
    2    1   17   16       -0.0000000520
    2    1   18   16       -0.0000000097
    2    1   19   16       -0.0000025043
    2    1   17   17       -0.0009572989
    2    1   18   17        0.0000000018
    2    1   19   17        0.0000000033
    2    1   18   18       -0.0004274181
    2    1   19   18        0.0000039561
    2    1   19   19       -0.0006045813
    3    1    3    1        0.0909883548
    3    1    4    1       -0.0000000000
    3    1    5    1        0.0000000030
    3    1    6    1       -0.0000026609
    3    1    7    1        0.0000000110
    3    1    8    1       -0.0397960387
    3    1    9    1        0.0000365107
    3    1   10    1        0.0000000020
    3    1   11    1        0.0000000001
    3    1   12    1        0.0000034082
    3    1   13    1       -0.0000000028
    3    1   14    1        0.0000002650
    3    1   15    1        0.0000000008
    3    1   16    1       -0.0000000000
    3    1   17    1       -0.0000000020
    3    1   18    1        0.0000002563
    3    1   19    1        0.0000006438
    3    1    2    2       -0.0002506331
    3    1    3    2        0.0018677991
    3    1    4    2       -0.0000000001
    3    1    5    2        0.0000002245
    3    1    6    2       -0.0002970653
    3    1    7    2       -0.0000000037
    3    1    8    2        0.0129387214
    3    1    9    2        0.0000413423
    3    1   10    2        0.0000000198
    3    1   11    2        0.0000000009
    3    1   12    2        0.0000636788
    3    1   13    2       -0.0000000149
    3    1   14    2        0.0000013750
    3    1   15    2        0.0000000111
    3    1   16    2       -0.0000000002
    3    1   17    2        0.0000000006
    3    1   18    2       -0.0000000789
    3    1   19    2       -0.0000001995
    3    1    3    3       -0.0000069295
    3    1    4    3        0.0000000031
    3    1    5    3       -0.0000083933
    3    1    6    3        0.0114340953
    3    1    7    3       -0.0000000090
    3    1    8    3        0.0000043872
    3    1    9    3        0.0005369736
    3    1   10    3       -0.0000022855
    3    1   11    3       -0.0000001040
    3    1   12    3       -0.0113816422
    3    1   13    3        0.0000000102
    3    1   14    3       -0.0000000801
    3    1   15    3        0.0000010187
    3    1   16    3       -0.0000000151
    3    1   17    3        0.0000000045
    3    1   18    3        0.0000000368
    3    1   19    3       -0.0000000550
    3    1    4    4       -0.0001916210
    3    1    5    4        0.0000000000
    3    1    6    4       -0.0000000001
    3    1    7    4        0.0000000155
    3    1    8    4       -0.0000000006
    3    1    9    4        0.0000000003
    3    1   10    4       -0.0000063761
    3    1   11    4        0.0001390316
    3    1   12    4       -0.0000000156
    3    1   13    4       -0.0191780608
    3    1   14    4       -0.0002147419
    3    1   15    4        0.0000035677
    3    1   16    4        0.0002518646
    3    1   17    4        0.0000000001
    3    1   18    4       -0.0000065821
    3    1   19    4       -0.0000000691
    3    1    5    5       -0.0001916211
    3    1    6    5        0.0000001814
    3    1    7    5       -0.0000000004
    3    1    8    5        0.0000016048
    3    1    9    5        0.0000000781
    3    1   10    5        0.0001390315
    3    1   11    5        0.0000063762
    3    1   12    5       -0.0000003174
    3    1   13    5       -0.0002147419
    3    1   14    5        0.0191780590
    3    1   15    5        0.0002518640
    3    1   16    5       -0.0000035677
    3    1   17    5       -0.0000002805
    3    1   18    5       -0.0000000207
    3    1   19    5       -0.0000000336
    3    1    6    6       -0.0004414385
    3    1    7    6       -0.0000000002
    3    1    8    6       -0.0014040454
    3    1    9    6       -0.0000892495
    3    1   10    6        0.0000001638
    3    1   11    6        0.0000000075
    3    1   12    6        0.0002213039
    3    1   13    6       -0.0000001570
    3    1   14    6        0.0000144772
    3    1   15    6        0.0000001876
    3    1   16    6       -0.0000000027
    3    1   17    6        0.0000000001
    3    1   18    6       -0.0000000622
    3    1   19    6       -0.0000001228
    3    1    7    7       -0.0001819030
    3    1    8    7        0.0000000051
    3    1    9    7        0.0000000048
    3    1   10    7       -0.0000000008
    3    1   11    7       -0.0000000209
    3    1   12    7       -0.0000000434
    3    1   13    7        0.0000104937
    3    1   14    7        0.0000000917
    3    1   15    7       -0.0000000512
    3    1   16    7       -0.0000000835
    3    1   17    7       -0.0000000264
    3    1   18    7       -0.0126485901
    3    1   19    7       -0.0002572206
    3    1    8    8        0.0000065612
    3    1    9    8        0.0043642195
    3    1   10    8        0.0000007419
    3    1   11    8        0.0000000338
    3    1   12    8        0.0050172030
    3    1   13    8       -0.0000000042
    3    1   14    8        0.0000000399
    3    1   15    8       -0.0000007003
    3    1   16    8        0.0000000102
    3    1   17    8        0.0000000042
    3    1   18    8        0.0000000353
    3    1   19    8       -0.0000000453
    3    1    9    9       -0.0002809882
    3    1   10    9        0.0000000404
    3    1   11    9        0.0000000020
    3    1   12    9        0.0002067098
    3    1   13    9        0.0000000025
    3    1   14    9       -0.0000002490
    3    1   15    9       -0.0000000346
    3    1   16    9        0.0000000004
    3    1   17    9        0.0000000009
    3    1   18    9       -0.0000001013
    3    1   19    9       -0.0000002733
    3    1   10   10       -0.0002009988
    3    1   11   10        0.0000000001
    3    1   12   10       -0.0000000986
    3    1   13   10        0.0002589025
    3    1   14   10        0.0074728025
    3    1   15   10       -0.0001041800
    3    1   16   10        0.0000062577
    3    1   17   10        0.0000001246
    3    1   18   10       -0.0000000489
    3    1   19   10        0.0000000307
    3    1   11   11       -0.0002009988
    3    1   12   11       -0.0000000106
    3    1   13   11       -0.0074728022
    3    1   14   11        0.0002589025
    3    1   15   11       -0.0000062576
    3    1   16   11       -0.0001041800
    3    1   17   11        0.0000000057
    3    1   18   11        0.0000013222
    3    1   19   11        0.0000000386
    3    1   12   12       -0.0003584993
    3    1   13   12        0.0000000277
    3    1   14   12       -0.0000025413
    3    1   15   12        0.0000000591
    3    1   16   12        0.0000000038
    3    1   17   12        0.0000000003
    3    1   18   12       -0.0000000146
    3    1   19   12       -0.0000000738
    3    1   13   13       -0.0000016189
    3    1   14   13       -0.0000000000
    3    1   15   13        0.0001428427
    3    1   16   13        0.0056310883
    3    1   17   13       -0.0000000763
    3    1   18   13        0.0000000175
    3    1   19   13       -0.0000015230
    3    1   14   14       -0.0000016191
    3    1   15   14       -0.0056310825
    3    1   16   14        0.0001428426
    3    1   17   14        0.0000070632
    3    1   18   14        0.0000000231
    3    1   19   14       -0.0000000116
    3    1   15   15       -0.0004005290
    3    1   16   15       -0.0000000000
    3    1   17   15        0.0000002176
    3    1   18   15       -0.0000000049
    3    1   19   15       -0.0000000201
    3    1   16   16       -0.0004005295
    3    1   17   16       -0.0000000032
    3    1   18   16       -0.0000000088
    3    1   19   16       -0.0000000195
    3    1   17   17       -0.0002113635
    3    1   18   17        0.0000000099
    3    1   19   17        0.0000000371
    3    1   18   18        0.0000006407
    3    1   19   18       -0.0010200972
    3    1   19   19       -0.0003494869
    4    1    4    1        0.0041282353
    4    1    5    1        0.0000000000
    4    1    6    1       -0.0000000002
    4    1    7    1        0.0000008092
    4    1    8    1        0.0000000000
    4    1    9    1       -0.0000000002
    4    1   10    1       -0.0002668060
    4    1   11    1        0.0058177022
    4    1   12    1       -0.0000000002
    4    1   13    1        0.0000004186
    4    1   14    1        0.0000000047
    4    1   15    1        0.0000081655
    4    1   16    1        0.0005764593
    4    1   17    1        0.0000000001
    4    1   18    1        0.0000000036
    4    1   19    1       -0.0000006526
    4    1    2    2       -0.0000000456
    4    1    3    2       -0.0000000000
    4    1    4    2        0.0051871713
    4    1    5    2        0.0000000000
    4    1    6    2        0.0000000257
    4    1    7    2        0.0001219558
    4    1    8    2        0.0000000001
    4    1    9    2        0.0000000120
    4    1   10    2       -0.0000521686
    4    1   11    2        0.0011375388
    4    1   12    2       -0.0000000041
    4    1   13    2        0.0000042975
    4    1   14    2        0.0000000480
    4    1   15    2        0.0000009368
    4    1   16    2        0.0000661415
    4    1   17    2       -0.0000000011
    4    1   18    2        0.0000000809
    4    1   19    2       -0.0000237802
    4    1    3    3       -0.0000000026
    4    1    4    3       -0.0000001417
    4    1    5    3        0.0000000001
    4    1    6    3        0.0000000000
    4    1    7    3        0.0000000272
    4    1    8    3       -0.0000000114
    4    1    9    3        0.0000000001
    4    1   10    3       -0.0000000103
    4    1   11    3        0.0000002282
    4    1   12    3       -0.0000000045
    4    1   13    3       -0.0053680265
    4    1   14    3       -0.0000601073
    4    1   15    3        0.0000000201
    4    1   16    3        0.0000014247
    4    1   17    3       -0.0000000001
    4    1   18    3       -0.0000339180
    4    1   19    3       -0.0000000308
    4    1    4    4        0.0000000142
    4    1    5    4       -0.0000413887
    4    1    6    4       -0.0011602965
    4    1    7    4       -0.0000017144
    4    1    8    4        0.0000004438
    4    1    9    4        0.0028490004
    4    1   10    4        0.0000526811
    4    1   11    4        0.0000023941
    4    1   12    4        0.0007623004
    4    1   13    4       -0.0000000006
    4    1   14    4        0.0000000212
    4    1   15    4       -0.0000585716
    4    1   16    4        0.0000008509
    4    1   17    4       -0.0062874514
    4    1   18    4        0.0000000453
    4    1   19    4        0.0000008033
    4    1    5    5       -0.0000000494
    4    1    6    5        0.0000000020
    4    1    7    5        0.0022824864
    4    1    8    5        0.0000000012
    4    1    9    5       -0.0000000024
    4    1   10    5       -0.0000022711
    4    1   11    5        0.0000507585
    4    1   12    5        0.0000000054
    4    1   13    5       -0.0000000183
    4    1   14    5       -0.0000000042
    4    1   15    5       -0.0000007152
    4    1   16    5       -0.0000459851
    4    1   17    5       -0.0000047295
    4    1   18    5        0.0000013791
    4    1   19    5       -0.0010856359
    4    1    6    6       -0.0000000428
    4    1    7    6       -0.0000508695
    4    1    8    6       -0.0000000001
    4    1    9    6        0.0000000065
    4    1   10    6        0.0000747045
    4    1   11    6       -0.0016288560
    4    1   12    6       -0.0000000274
    4    1   13    6        0.0000004301
    4    1   14    6        0.0000000052
    4    1   15    6       -0.0000641745
    4    1   16    6       -0.0045302417
    4    1   17    6       -0.0000000030
    4    1   18    6       -0.0000000776
    4    1   19    6        0.0000978321
    4    1    7    7       -0.0000000674
    4    1    8    7       -0.0000000350
    4    1    9    7        0.0000279793
    4    1   10    7        0.0037294257
    4    1   11    7        0.0001682284
    4    1   12    7        0.0000946997
    4    1   13    7        0.0000000132
    4    1   14    7       -0.0000011416
    4    1   15    7       -0.0018907804
    4    1   16    7        0.0000282094
    4    1   17    7        0.0000055503
    4    1   18    7        0.0000000098
    4    1   19    7        0.0000000217
    4    1    8    8       -0.0000000555
    4    1    9    8        0.0000000002
    4    1   10    8       -0.0000002297
    4    1   11    8        0.0000050658
    4    1   12    8       -0.0000000034
    4    1   13    8       -0.0036529758
    4    1   14    8       -0.0000409030
    4    1   15    8        0.0000000257
    4    1   16    8        0.0000018459
    4    1   17    8       -0.0000000003
    4    1   18    8       -0.0001323657
    4    1   19    8       -0.0000001721
    4    1    9    9       -0.0000000522
    4    1   10    9       -0.0001983900
    4    1   11    9        0.0043257857
    4    1   12    9       -0.0000000175
    4    1   13    9        0.0000034206
    4    1   14    9        0.0000000393
    4    1   15    9        0.0000081126
    4    1   16    9        0.0005726735
    4    1   17    9       -0.0000000001
    4    1   18    9        0.0000001474
    4    1   19    9       -0.0000899137
    4    1   10   10        0.0000060445
    4    1   11   10       -0.0000666029
    4    1   12   10       -0.0000844623
    4    1   13   10        0.0000000263
    4    1   14   10       -0.0000000093
    4    1   15   10       -0.0000010329
    4    1   16   10        0.0000363828
    4    1   17   10        0.0000459891
    4    1   18   10        0.0000022580
    4    1   19   10       -0.0027121895
    4    1   11   11       -0.0000060974
    4    1   12   11        0.0018419888
    4    1   13   11        0.0000000001
    4    1   14   11       -0.0000000149
    4    1   15   11        0.0000345748
    4    1   16   11        0.0000011648
    4    1   17   11       -0.0010197246
    4    1   18   11        0.0000001449
    4    1   19   11       -0.0001223747
    4    1   12   12       -0.0000000666
    4    1   13   12        0.0000000093
    4    1   14   12       -0.0000000073
    4    1   15   12       -0.0000005968
    4    1   16   12       -0.0000423599
    4    1   17   12        0.0000000002
    4    1   18   12        0.0000000674
    4    1   19   12        0.0000071363
    4    1   13   13       -0.0000010257
    4    1   14   13        0.0000466052
    4    1   15   13       -0.0000000153
    4    1   16   13        0.0000000001
    4    1   17   13       -0.0000027588
    4    1   18   13        0.0000228622
    4    1   19   13        0.0000000628
    4    1   14   14        0.0000009828
    4    1   15   14       -0.0000000111
    4    1   16   14        0.0000000166
    4    1   17   14       -0.0000000334
    4    1   18   14       -0.0021870215
    4    1   19   14       -0.0000013769
    4    1   15   15       -0.0000025456
    4    1   16   15       -0.0000862922
    4    1   17   15       -0.0000304795
    4    1   18   15       -0.0000011147
    4    1   19   15       -0.0006873385
    4    1   16   16        0.0000024792
    4    1   17   16       -0.0020430895
    4    1   18   16        0.0000000314
    4    1   19   16        0.0000102624
    4    1   17   17        0.0000000014
    4    1   18   17       -0.0000000056
    4    1   19   17        0.0000002418
    4    1   18   18       -0.0000000733
    4    1   19   18       -0.0000000162
    4    1   19   19       -0.0000000768
    5    1    5    1        0.0041282338
    5    1    6    1        0.0000006768
    5    1    7    1        0.0000000002
    5    1    8    1        0.0000000004
    5    1    9    1        0.0000004765
    5    1   10    1        0.0058177002
    5    1   11    1        0.0002668059
    5    1   12    1        0.0000004547
    5    1   13    1        0.0000000047
    5    1   14    1       -0.0000004185
    5    1   15    1        0.0005764604
    5    1   16    1       -0.0000081656
    5    1   17    1       -0.0000002746
    5    1   18    1        0.0000000108
    5    1   19    1        0.0000000054
    5    1    2    2        0.0001213087
    5    1    3    2        0.0000000363
    5    1    4    2        0.0000000000
    5    1    5    2        0.0051871821
    5    1    6    2       -0.0000681145
    5    1    7    2        0.0000000459
    5    1    8    2       -0.0000000838
    5    1    9    2       -0.0000322805
    5    1   10    2        0.0011374835
    5    1   11    2        0.0000521663
    5    1   12    2        0.0000113073
    5    1   13    2        0.0000000481
    5    1   14    2       -0.0000042975
    5    1   15    2        0.0000661940
    5    1   16    2       -0.0000009377
    5    1   17    2        0.0000027909
    5    1   18    2       -0.0000000022
    5    1   19    2       -0.0000000089
    5    1    3    3        0.0000069468
    5    1    4    3        0.0000000001
    5    1    5    3       -0.0000001417
    5    1    6    3       -0.0000000194
    5    1    7    3       -0.0000000001
    5    1    8    3        0.0000302611
    5    1    9    3       -0.0000000252
    5    1   10    3        0.0000002281
    5    1   11    3        0.0000000106
    5    1   12    3       -0.0000000534
    5    1   13    3       -0.0000601073
    5    1   14    3        0.0053680293
    5    1   15    3        0.0000014245
    5    1   16    3       -0.0000000202
    5    1   17    3       -0.0000000025
    5    1   18    3       -0.0000000154
    5    1   19    3       -0.0000000034
    5    1    4    4        0.0000450194
    5    1    5    4       -0.0000000169
    5    1    6    4        0.0000000020
    5    1    7    4        0.0022824750
    5    1    8    4        0.0000000012
    5    1    9    4       -0.0000000024
    5    1   10    4        0.0000020934
    5    1   11    4       -0.0000451970
    5    1   12    4        0.0000000054
    5    1   13    4       -0.0000000007
    5    1   14    4       -0.0000000040
    5    1   15    4        0.0000006613
    5    1   16    4        0.0000486727
    5    1   17    4       -0.0000047295
    5    1   18    4        0.0000013793
    5    1   19    4       -0.0010855916
    5    1    5    5        0.0000486019
    5    1    6    5       -0.0011603123
    5    1    7    5        0.0000017171
    5    1    8    5        0.0000004438
    5    1    9    5        0.0028489606
    5    1   10    5       -0.0000474207
    5    1   11    5       -0.0000021548
    5    1   12    5        0.0007621980
    5    1   13    5       -0.0000000004
    5    1   14    5       -0.0000000031
    5    1   15    5        0.0000622817
    5    1   16    5       -0.0000009048
    5    1   17    5        0.0062874495
    5    1   18    5        0.0000000168
    5    1   19    5       -0.0000008804
    5    1    6    6        0.0001135902
    5    1    7    6       -0.0000000190
    5    1    8    6        0.0000000054
    5    1    9    6       -0.0000169812
    5    1   10    6       -0.0016288599
    5    1   11    6       -0.0000746982
    5    1   12    6        0.0000723251
    5    1   13    6        0.0000000047
    5    1   14    6       -0.0000004295
    5    1   15    6       -0.0045302103
    5    1   16    6        0.0000641708
    5    1   17    6        0.0000084452
    5    1   18    6        0.0000000149
    5    1   19    6        0.0000000397
    5    1    7    7        0.0001797326
    5    1    8    7        0.0000000000
    5    1    9    7        0.0000000105
    5    1   10    7       -0.0001682276
    5    1   11    7        0.0037295105
    5    1   12    7        0.0000000357
    5    1   13    7        0.0000011422
    5    1   14    7        0.0000000111
    5    1   15    7       -0.0000282026
    5    1   16    7       -0.0018908722
    5    1   17    7        0.0000000019
    5    1   18    7        0.0000000919
    5    1   19    7       -0.0000446092
    5    1    8    8        0.0001479248
    5    1    9    8        0.0000000387
    5    1   10    8        0.0000050657
    5    1   11    8        0.0000002349
    5    1   12    8       -0.0000000113
    5    1   13    8       -0.0000409044
    5    1   14    8        0.0036530116
    5    1   15    8        0.0000018454
    5    1   16    8       -0.0000000260
    5    1   17    8       -0.0000000068
    5    1   18    8       -0.0000000566
    5    1   19    8       -0.0000000156
    5    1    9    9        0.0001384133
    5    1   10    9        0.0043258276
    5    1   11    9        0.0001983822
    5    1   12    9        0.0000473586
    5    1   13    9        0.0000000370
    5    1   14    9       -0.0000034203
    5    1   15    9        0.0005726423
    5    1   16    9       -0.0000081109
    5    1   17    9       -0.0000005574
    5    1   18    9       -0.0000000028
    5    1   19    9       -0.0000000334
    5    1   10   10        0.0000705717
    5    1   11   10        0.0000000140
    5    1   12   10        0.0018420120
    5    1   13   10       -0.0000000002
    5    1   14   10        0.0000000434
    5    1   15   10       -0.0000337415
    5    1   16   10        0.0000021263
    5    1   17   10        0.0010197325
    5    1   18   10       -0.0000000683
    5    1   19   10        0.0001222845
    5    1   11   11        0.0000697085
    5    1   12   11        0.0000844899
    5    1   13   11       -0.0000000274
    5    1   14   11       -0.0000000083
    5    1   15   11       -0.0000020440
    5    1   16   11       -0.0000356316
    5    1   17   11        0.0000459895
    5    1   18   11        0.0000022614
    5    1   19   11       -0.0027122133
    5    1   12   12        0.0001770490
    5    1   13   12        0.0000000074
    5    1   14   12       -0.0000000085
    5    1   15   12       -0.0000423955
    5    1   16   12        0.0000006039
    5    1   17   12       -0.0000002907
    5    1   18   12        0.0000000102
    5    1   19   12        0.0000000062
    5    1   13   13        0.0000451098
    5    1   14   13       -0.0000000290
    5    1   15   13        0.0000000091
    5    1   16   13        0.0000000101
    5    1   17   13        0.0000000334
    5    1   18   13        0.0021869982
    5    1   19   13        0.0000013777
    5    1   14   14        0.0000497427
    5    1   15   14       -0.0000000194
    5    1   16   14       -0.0000000021
    5    1   17   14       -0.0000027585
    5    1   18   14        0.0000228361
    5    1   19   14       -0.0000000046
    5    1   15   15        0.0000905051
    5    1   16   15       -0.0000001494
    5    1   17   15        0.0020430848
    5    1   18   15       -0.0000000172
    5    1   19   15       -0.0000102781
    5    1   16   16        0.0000825200
    5    1   17   16       -0.0000304794
    5    1   18   16       -0.0000011150
    5    1   19   16       -0.0006873227
    5    1   17   17       -0.0000039993
    5    1   18   17       -0.0000000074
    5    1   19   17       -0.0000000013
    5    1   18   18        0.0001856715
    5    1   19   18        0.0000000262
    5    1   19   19        0.0001803182
    6    1    6    1        0.0007805400
    6    1    7    1       -0.0000000004
    6    1    8    1        0.0000001805
    6    1    9    1        0.0008554765
    6    1   10    1        0.0000018932
    6    1   11    1        0.0000000862
    6    1   12    1       -0.0008438003
    6    1   13    1        0.0000000009
    6    1   14    1       -0.0000000078
    6    1   15    1        0.0000002384
    6    1   16    1       -0.0000000035
    6    1   17    1        0.0000000006
    6    1   18    1        0.0000000153
    6    1   19    1       -0.0000000196
    6    1    2    2       -0.0001562935
    6    1    3    2       -0.0000091316
    6    1    4    2        0.0000000018
    6    1    5    2       -0.0000046498
    6    1    6    2        0.0015846721
    6    1    7    2       -0.0000000004
    6    1    8    2       -0.0000121346
    6    1    9    2       -0.0002100246
    6    1   10    2        0.0000000181
    6    1   11    2        0.0000000008
    6    1   12    2       -0.0006503796
    6    1   13    2        0.0000000007
    6    1   14    2       -0.0000000185
    6    1   15    2       -0.0000011251
    6    1   16    2        0.0000000163
    6    1   17    2       -0.0000000095
    6    1   18    2       -0.0000000010
    6    1   19    2        0.0000000007
    6    1    3    3        0.0002322444
    6    1    4    3        0.0000000000
    6    1    5    3       -0.0000000014
    6    1    6    3       -0.0000081245
    6    1    7    3       -0.0000000002
    6    1    8    3        0.0001102875
    6    1    9    3       -0.0000064506
    6    1   10    3       -0.0000000000
    6    1   11    3       -0.0000000000
    6    1   12    3        0.0000058766
    6    1   13    3        0.0000000004
    6    1   14    3       -0.0000000375
    6    1   15    3        0.0000000028
    6    1   16    3       -0.0000000000
    6    1   17    3        0.0000000000
    6    1   18    3       -0.0000000065
    6    1   19    3       -0.0000000133
    6    1    4    4       -0.0006003368
    6    1    5    4        0.0000000004
    6    1    6    4       -0.0000000004
    6    1    7    4       -0.0000016765
    6    1    8    4        0.0000000000
    6    1    9    4        0.0000000004
    6    1   10    4        0.0000464609
    6    1   11    4       -0.0010130581
    6    1   12    4       -0.0000000004
    6    1   13    4        0.0000160369
    6    1   14    4        0.0000001796
    6    1   15    4       -0.0000230220
    6    1   16    4       -0.0016251956
    6    1   17    4        0.0000000004
    6    1   18    4        0.0000000083
    6    1   19    4        0.0000012491
    6    1    5    5       -0.0006003565
    6    1    6    5        0.0000011194
    6    1    7    5       -0.0000000006
    6    1    8    5       -0.0000000102
    6    1    9    5       -0.0000010310
    6    1   10    5       -0.0010130519
    6    1   11    5       -0.0000464588
    6    1   12    5        0.0000012267
    6    1   13    5        0.0000001796
    6    1   14    5       -0.0000160369
    6    1   15    5       -0.0016252111
    6    1   16    5        0.0000230214
    6    1   17    5       -0.0000012102
    6    1   18    5        0.0000000040
    6    1   19    5        0.0000000010
    6    1    6    6        0.0005841818
    6    1    7    6       -0.0000000007
    6    1    8    6       -0.0000007948
    6    1    9    6        0.0012958130
    6    1   10    6       -0.0000003881
    6    1   11    6       -0.0000000177
    6    1   12    6       -0.0012991313
    6    1   13    6        0.0000000014
    6    1   14    6       -0.0000000266
    6    1   15    6        0.0000019731
    6    1   16    6       -0.0000000288
    6    1   17    6        0.0000000032
    6    1   18    6        0.0000000109
    6    1   19    6       -0.0000000109
    6    1    7    7       -0.0006278777
    6    1    8    7       -0.0000000009
    6    1    9    7        0.0000000012
    6    1   10    7        0.0000000870
    6    1   11    7       -0.0000019101
    6    1   12    7       -0.0000000048
    6    1   13    7       -0.0000000014
    6    1   14    7        0.0000000050
    6    1   15    7        0.0000000254
    6    1   16    7        0.0000016492
    6    1   17    7        0.0000000042
    6    1   18    7        0.0000136612
    6    1   19    7        0.0013628074
    6    1    8    8       -0.0006059076
    6    1    9    8        0.0000028951
    6    1   10    8        0.0000000003
    6    1   11    8        0.0000000000
    6    1   12    8       -0.0000038360
    6    1   13    8        0.0000000418
    6    1   14    8       -0.0000038652
    6    1   15    8        0.0000000042
    6    1   16    8       -0.0000000001
    6    1   17    8       -0.0000000000
    6    1   18    8       -0.0000000010
    6    1   19    8        0.0000000003
    6    1    9    9       -0.0003285997
    6    1   10    9       -0.0000028423
    6    1   11    9       -0.0000001293
    6    1   12    9       -0.0013222145
    6    1   13    9        0.0000000011
    6    1   14    9       -0.0000000052
    6    1   15    9       -0.0000004039
    6    1   16    9        0.0000000058
    6    1   17    9        0.0000000018
    6    1   18    9       -0.0000000000
    6    1   19    9       -0.0000000027
    6    1   10   10       -0.0014392149
    6    1   11   10        0.0000000005
    6    1   12   10       -0.0000005857
    6    1   13   10        0.0000000689
    6    1   14   10        0.0000019898
    6    1   15   10       -0.0003554726
    6    1   16   10        0.0000213516
    6    1   17   10        0.0000025453
    6    1   18   10       -0.0000000031
    6    1   19   10       -0.0000000598
    6    1   11   11       -0.0014392072
    6    1   12   11       -0.0000000266
    6    1   13   11       -0.0000019898
    6    1   14   11        0.0000000690
    6    1   15   11       -0.0000213515
    6    1   16   11       -0.0003554713
    6    1   17   11        0.0000001158
    6    1   18   11        0.0000000015
    6    1   19   11        0.0000012732
    6    1   12   12        0.0006967638
    6    1   13   12       -0.0000000008
    6    1   14   12        0.0000000045
    6    1   15   12        0.0000023193
    6    1   16   12       -0.0000000337
    6    1   17   12       -0.0000000028
    6    1   18   12       -0.0000000214
    6    1   19   12        0.0000000267
    6    1   13   13       -0.0000316371
    6    1   14   13       -0.0000000001
    6    1   15   13       -0.0000002026
    6    1   16   13       -0.0000079871
    6    1   17   13        0.0000000002
    6    1   18   13       -0.0000015518
    6    1   19   13        0.0000000004
    6    1   14   14       -0.0000316571
    6    1   15   14        0.0000079871
    6    1   16   14       -0.0000002026
    6    1   17   14       -0.0000000220
    6    1   18   14       -0.0000000166
    6    1   19   14       -0.0000000009
    6    1   15   15        0.0000146798
    6    1   16   15        0.0000000002
    6    1   17   15       -0.0000031242
    6    1   18   15        0.0000000014
    6    1   19   15        0.0000000118
    6    1   16   16        0.0000147042
    6    1   17   16        0.0000000454
    6    1   18   16       -0.0000000079
    6    1   19   16        0.0000007634
    6    1   17   17       -0.0005643354
    6    1   18   17        0.0000000015
    6    1   19   17        0.0000000029
    6    1   18   18       -0.0004465709
    6    1   19   18        0.0000057097
    6    1   19   19       -0.0008989204
    7    1    7    1        0.0002908331
    7    1    8    1       -0.0000000047
    7    1    9    1       -0.0000000012
    7    1   10    1       -0.0000000148
    7    1   11    1        0.0000003207
    7    1   12    1        0.0000000021
    7    1   13    1        0.0000000019
    7    1   14    1       -0.0000000011
    7    1   15    1        0.0000000004
    7    1   16    1        0.0000000493
    7    1   17    1       -0.0000000009
    7    1   18    1        0.0000001822
    7    1   19    1       -0.0002883762
    7    1    2    2        0.0000000001
    7    1    3    2       -0.0000000003
    7    1    4    2        0.0000107764
    7    1    5    2        0.0000000040
    7    1    6    2       -0.0000000003
    7    1    7    2        0.0011862607
    7    1    8    2        0.0000000015
    7    1    9    2       -0.0000000010
    7    1   10    2       -0.0000000339
    7    1   11    2        0.0000007449
    7    1   12    2        0.0000000026
    7    1   13    2        0.0000000204
    7    1   14    2       -0.0000000014
    7    1   15    2       -0.0000000040
    7    1   16    2       -0.0000002420
    7    1   17    2       -0.0000000013
    7    1   18    2        0.0000014969
    7    1   19    2       -0.0004215782
    7    1    3    3       -0.0000000012
    7    1    4    3       -0.0000000063
    7    1    5    3       -0.0000000001
    7    1    6    3        0.0000000009
    7    1    7    3       -0.0000000794
    7    1    8    3        0.0000000004
    7    1    9    3       -0.0000000000
    7    1   10    3       -0.0000000001
    7    1   11    3       -0.0000000018
    7    1   12    3       -0.0000000035
    7    1   13    3       -0.0000042766
    7    1   14    3       -0.0000000475
    7    1   15    3       -0.0000000026
    7    1   16    3        0.0000000081
    7    1   17    3       -0.0000000014
    7    1   18    3       -0.0007010078
    7    1   19    3       -0.0000007853
    7    1    4    4       -0.0000003116
    7    1    5    4        0.0004146961
    7    1    6    4       -0.0000024901
    7    1    7    4       -0.0000000022
    7    1    8    4       -0.0000000148
    7    1    9    4        0.0000025521
    7    1   10    4        0.0010475845
    7    1   11    4        0.0000472547
    7    1   12    4        0.0000017170
    7    1   13    4        0.0000000011
    7    1   14    4       -0.0000002252
    7    1   15    4       -0.0005015929
    7    1   16    4        0.0000074837
    7    1   17    4       -0.0000091278
    7    1   18    4        0.0000000035
    7    1   19    4        0.0000000021
    7    1    5    5        0.0000003119
    7    1    6    5       -0.0000000009
    7    1    7    5        0.0000056011
    7    1    8    5       -0.0000000000
    7    1    9    5        0.0000000009
    7    1   10    5       -0.0000472536
    7    1   11    5        0.0010475826
    7    1   12    5        0.0000000006
    7    1   13    5        0.0000002251
    7    1   14    5        0.0000000037
    7    1   15    5       -0.0000074808
    7    1   16    5       -0.0005015737
    7    1   17    5       -0.0000000035
    7    1   18    5        0.0000000097
    7    1   19    5       -0.0000021650
    7    1    6    6       -0.0000000012
    7    1    7    6       -0.0003583433
    7    1    8    6       -0.0000000009
    7    1    9    6        0.0000000008
    7    1   10    6        0.0000000914
    7    1   11    6       -0.0000020077
    7    1   12    6       -0.0000000028
    7    1   13    6        0.0000000049
    7    1   14    6        0.0000000037
    7    1   15    6       -0.0000001278
    7    1   16    6       -0.0000088626
    7    1   17    6        0.0000000031
    7    1   18    6       -0.0000001216
    7    1   19    6        0.0009889420
    7    1    7    7        0.0000000020
    7    1    8    7       -0.0000001805
    7    1    9    7        0.0008893535
    7    1   10    7        0.0000061020
    7    1   11    7        0.0000002775
    7    1   12    7        0.0009458317
    7    1   13    7       -0.0000000006
    7    1   14    7       -0.0000000039
    7    1   15    7       -0.0000037231
    7    1   16    7        0.0000000542
    7    1   17    7        0.0000000115
    7    1   18    7       -0.0000000006
    7    1   19    7       -0.0000000006
    7    1    8    8        0.0000000009
    7    1    9    8        0.0000000021
    7    1   10    8       -0.0000000007
    7    1   11    8        0.0000000132
    7    1   12    8       -0.0000000026
    7    1   13    8       -0.0000096839
    7    1   14    8       -0.0000001066
    7    1   15    8       -0.0000000039
    7    1   16    8        0.0000000114
    7    1   17    8       -0.0000000022
    7    1   18    8       -0.0010418387
    7    1   19    8       -0.0000020321
    7    1    9    9       -0.0000000028
    7    1   10    9       -0.0000003593
    7    1   11    9        0.0000078959
    7    1   12    9        0.0000000047
    7    1   13    9        0.0000000063
    7    1   14    9       -0.0000000035
    7    1   15    9        0.0000000188
    7    1   16    9        0.0000013609
    7    1   17    9       -0.0000000030
    7    1   18    9        0.0000014473
    7    1   19    9       -0.0009596469
    7    1   10   10       -0.0000859068
    7    1   11   10        0.0009424074
    7    1   12   10       -0.0000001343
    7    1   13   10        0.0000005353
    7    1   14   10        0.0000000309
    7    1   15   10       -0.0000033429
    7    1   16   10        0.0001081039
    7    1   17   10       -0.0000001810
    7    1   18   10        0.0000000100
    7    1   19   10       -0.0000042331
    7    1   11   11        0.0000859081
    7    1   12   11        0.0000029504
    7    1   13   11        0.0000000295
    7    1   14   11       -0.0000005353
    7    1   15   11        0.0001081097
    7    1   16   11        0.0000033430
    7    1   17   11        0.0000039779
    7    1   18   11        0.0000000027
    7    1   19   11       -0.0000001914
    7    1   12   12        0.0000000043
    7    1   13   12        0.0000000053
    7    1   14   12       -0.0000000021
    7    1   15   12       -0.0000000489
    7    1   16   12       -0.0000033312
    7    1   17   12       -0.0000000016
    7    1   18   12        0.0000009867
    7    1   19   12       -0.0005084538
    7    1   13   13        0.0000072742
    7    1   14   13       -0.0003360772
    7    1   15   13       -0.0000005705
    7    1   16   13        0.0000000025
    7    1   17   13       -0.0000000180
    7    1   18   13        0.0000000593
    7    1   19   13       -0.0000000023
    7    1   14   14       -0.0000072747
    7    1   15   14        0.0000000017
    7    1   16   14        0.0000005705
    7    1   17   14       -0.0000000003
    7    1   18   14       -0.0000055712
    7    1   19   14       -0.0000000107
    7    1   15   15       -0.0000040023
    7    1   16   15       -0.0001375855
    7    1   17   15       -0.0000000617
    7    1   18   15       -0.0000000118
    7    1   19   15       -0.0000031910
    7    1   16   16        0.0000040021
    7    1   17   16       -0.0000042405
    7    1   18   16        0.0000000029
    7    1   19   16        0.0000000476
    7    1   17   17        0.0000000002
    7    1   18   17       -0.0000000000
    7    1   19   17        0.0000000020
    7    1   18   18        0.0000000170
    7    1   19   18        0.0000000113
    7    1   19   19        0.0000000237
    8    1    8    1        0.0178788036
    8    1    9    1       -0.0000113343
    8    1   10    1        0.0000000016
    8    1   11    1        0.0000000001
    8    1   12    1       -0.0000007062
    8    1   13    1       -0.0000000038
    8    1   14    1        0.0000003507
    8    1   15    1        0.0000000011
    8    1   16    1       -0.0000000000
    8    1   17    1        0.0000000009
    8    1   18    1       -0.0000001179
    8    1   19    1       -0.0000002965
    8    1    2    2        0.0000665934
    8    1    3    2        0.0007579833
    8    1    4    2        0.0000000000
    8    1    5    2       -0.0000001071
    8    1    6    2        0.0000830112
    8    1    7    2        0.0000000020
    8    1    8    2       -0.0040303345
    8    1    9    2       -0.0000084588
    8    1   10    2        0.0000000345
    8    1   11    2        0.0000000016
    8    1   12    2       -0.0000216124
    8    1   13    2       -0.0000000352
    8    1   14    2        0.0000032539
    8    1   15    2        0.0000000605
    8    1   16    2       -0.0000000009
    8    1   17    2       -0.0000000004
    8    1   18    2        0.0000000281
    8    1   19    2        0.0000000706
    8    1    3    3       -0.0000157189
    8    1    4    3       -0.0000000017
    8    1    5    3        0.0000046806
    8    1    6    3       -0.0039919410
    8    1    7    3        0.0000000034
    8    1    8    3        0.0000083930
    8    1    9    3        0.0011814578
    8    1   10    3        0.0000015168
    8    1   11    3        0.0000000690
    8    1   12    3        0.0043112334
    8    1   13    3       -0.0000000038
    8    1   14    3        0.0000000348
    8    1   15    3       -0.0000010329
    8    1   16    3        0.0000000151
    8    1   17    3        0.0000000025
    8    1   18    3        0.0000000037
    8    1   19    3       -0.0000000019
    8    1    4    4        0.0000509735
    8    1    5    4        0.0000000003
    8    1    6    4        0.0000000000
    8    1    7    4       -0.0000000206
    8    1    8    4       -0.0000000010
    8    1    9    4       -0.0000000001
    8    1   10    4        0.0000017546
    8    1   11    4       -0.0000382396
    8    1   12    4        0.0000000046
    8    1   13    4        0.0056359891
    8    1   14    4        0.0000631078
    8    1   15    4       -0.0000009884
    8    1   16    4       -0.0000697511
    8    1   17    4       -0.0000000000
    8    1   18    4       -0.0000005169
    8    1   19    4       -0.0000000126
    8    1    5    5        0.0000509735
    8    1    6    5       -0.0000001017
    8    1    7    5        0.0000000001
    8    1    8    5        0.0000026495
    8    1    9    5        0.0000000054
    8    1   10    5       -0.0000382396
    8    1   11    5       -0.0000017529
    8    1   12    5        0.0000000869
    8    1   13    5        0.0000631075
    8    1   14    5       -0.0056359817
    8    1   15    5       -0.0000697510
    8    1   16    5        0.0000009877
    8    1   17    5        0.0000000394
    8    1   18    5        0.0000000043
    8    1   19    5        0.0000000077
    8    1    6    6        0.0001250591
    8    1    7    6       -0.0000000004
    8    1    8    6        0.0005052528
    8    1    9    6        0.0000280413
    8    1   10    6       -0.0000000247
    8    1   11    6       -0.0000000011
    8    1   12    6       -0.0000666890
    8    1   13    6        0.0000000462
    8    1   14    6       -0.0000042638
    8    1   15    6        0.0000000141
    8    1   16    6       -0.0000000002
    8    1   17    6       -0.0000000002
    8    1   18    6        0.0000000167
    8    1   19    6        0.0000000335
    8    1    7    7        0.0000481324
    8    1    8    7       -0.0000000013
    8    1    9    7       -0.0000000001
    8    1   10    7        0.0000000003
    8    1   11    7        0.0000000044
    8    1   12    7        0.0000000119
    8    1   13    7       -0.0000052199
    8    1   14    7       -0.0000000509
    8    1   15    7        0.0000000138
    8    1   16    7        0.0000000655
    8    1   17    7        0.0000000068
    8    1   18    7        0.0032387357
    8    1   19    7        0.0000681691
    8    1    8    8       -0.0000075539
    8    1    9    8       -0.0021257560
    8    1   10    8       -0.0000006534
    8    1   11    8       -0.0000000298
    8    1   12    8       -0.0016937661
    8    1   13    8        0.0000000013
    8    1   14    8       -0.0000000085
    8    1   15    8       -0.0000001588
    8    1   16    8        0.0000000023
    8    1   17    8        0.0000000030
    8    1   18    8       -0.0000000225
    8    1   19    8        0.0000000271
    8    1    9    9        0.0000751702
    8    1   10    9       -0.0000000573
    8    1   11    9       -0.0000000027
    8    1   12    9       -0.0000583568
    8    1   13    9       -0.0000000031
    8    1   14    9        0.0000002910
    8    1   15    9       -0.0000000060
    8    1   16    9        0.0000000001
    8    1   17    9       -0.0000000002
    8    1   18    9        0.0000000348
    8    1   19    9        0.0000000910
    8    1   10   10        0.0000495640
    8    1   11   10        0.0000000009
    8    1   12   10        0.0000000518
    8    1   13   10       -0.0000984884
    8    1   14   10       -0.0028427100
    8    1   15   10        0.0000275562
    8    1   16   10       -0.0000016550
    8    1   17   10        0.0000000205
    8    1   18   10        0.0000001076
    8    1   19   10       -0.0000000074
    8    1   11   11        0.0000495643
    8    1   12   11        0.0000000047
    8    1   13   11        0.0028427052
    8    1   14   11       -0.0000984883
    8    1   15   11        0.0000016553
    8    1   16   11        0.0000275562
    8    1   17   11        0.0000000009
    8    1   18   11       -0.0000024265
    8    1   19   11       -0.0000000253
    8    1   12   12        0.0001029942
    8    1   13   12       -0.0000000160
    8    1   14   12        0.0000014712
    8    1   15   12       -0.0000000142
    8    1   16   12       -0.0000000012
    8    1   17   12       -0.0000000001
    8    1   18   12        0.0000000030
    8    1   19   12        0.0000000176
    8    1   13   13       -0.0000003195
    8    1   14   13       -0.0000000002
    8    1   15   13       -0.0000449828
    8    1   16   13       -0.0017732959
    8    1   17   13       -0.0000000154
    8    1   18   13       -0.0000000025
    8    1   19   13        0.0000005621
    8    1   14   14       -0.0000003194
    8    1   15   14        0.0017733002
    8    1   16   14       -0.0000449830
[...]
   16   13   16   16       -0.0003564517
   16   13   17   16        0.0000000114
   16   13   18   16       -0.0000107901
   16   13   19   16       -0.0000008610
   16   13   17   17       -0.0001704799
   16   13   18   17       -0.0000231299
   16   13   19   17       -0.0000001532
   16   13   18   18        0.0000030503
   16   13   19   18       -0.0029660453
   16   13   19   19       -0.0002751137
   17   13   17   13        0.0162326839
   17   13   18   13       -0.0000000504
   17   13   19   13        0.0000000047
   17   13   14   14        0.0000000024
   17   13   15   14       -0.0000010553
   17   13   16   14       -0.0000776905
   17   13   17   14       -0.0000000002
   17   13   18   14        0.0000001993
   17   13   19   14        0.0002788095
   17   13   15   15        0.0000000423
   17   13   16   15       -0.0000001010
   17   13   17   15       -0.0000041106
   17   13   18   15        0.0054013731
   17   13   19   15        0.0001296375
   17   13   16   16        0.0000000072
   17   13   17   16       -0.0001627187
   17   13   18   16       -0.0001369755
   17   13   19   16       -0.0000031852
   17   13   17   17        0.0000000058
   17   13   18   17       -0.0000088695
   17   13   19   17       -0.0000002410
   17   13   18   18       -0.0000000254
   17   13   19   18        0.0000005475
   17   13   19   19        0.0000001087
   18   13   18   13        0.0087428780
   18   13   19   13        0.0000035317
   18   13   14   14       -0.0000812234
   18   13   15   14       -0.0000000008
   18   13   16   14       -0.0000000127
   18   13   17   14       -0.0000002020
   18   13   18   14       -0.0000000427
   18   13   19   14       -0.0000000670
   18   13   15   15        0.0000549393
   18   13   16   15        0.0000012756
   18   13   17   15        0.0025195774
   18   13   18   15        0.0000000719
   18   13   19   15       -0.0001136359
   18   13   16   16        0.0002589256
   18   13   17   16       -0.0000639223
   18   13   18   16        0.0000027014
   18   13   19   16       -0.0044778880
   18   13   17   17       -0.0000068597
   18   13   18   17       -0.0000000118
   18   13   19   17        0.0000000022
   18   13   18   18        0.0004865939
   18   13   19   18       -0.0000000056
   18   13   19   19        0.0004119877
   19   13   19   13        0.0013135669
   19   13   14   14       -0.0000000354
   19   13   15   14       -0.0000096733
   19   13   16   14        0.0000000160
   19   13   17   14       -0.0002787613
   19   13   18   14       -0.0000000932
   19   13   19   14       -0.0000000084
   19   13   15   15       -0.0000003904
   19   13   16   15        0.0000000095
   19   13   17   15       -0.0000057068
   19   13   18   15       -0.0000299978
   19   13   19   15       -0.0000013182
   19   13   16   16        0.0000004750
   19   13   17   16        0.0000001466
   19   13   18   16       -0.0011819819
   19   13   19   16       -0.0000492517
   19   13   17   17       -0.0000000306
   19   13   18   17        0.0000000364
   19   13   19   17        0.0000000050
   19   13   18   18        0.0000001823
   19   13   19   18        0.0000358334
   19   13   19   19        0.0000024088
   14   14   14   14        0.1538026317
   14   14   15   14       -0.0000004295
   14   14   16   14       -0.0000000112
   14   14   17   14        0.0000000324
   14   14   18   14       -0.0000030741
   14   14   19   14       -0.0000000721
   14   14   15   15        0.1352931829
   14   14   16   15       -0.0002499658
   14   14   17   15        0.0000907382
   14   14   18   15       -0.0000000167
   14   14   19   15        0.0000000441
   14   14   16   16        0.1200552283
   14   14   17   16       -0.0000032351
   14   14   18   16       -0.0000000540
   14   14   19   16        0.0000866520
   14   14   17   17        0.1354036265
   14   14   18   17        0.0000000169
   14   14   19   17       -0.0000001102
   14   14   18   18        0.1291380008
   14   14   19   18        0.0000032937
   14   14   19   19        0.1222647707
   15   14   15   14        0.0072929785
   15   14   16   14       -0.0001293572
   15   14   17   14        0.0000895404
   15   14   18   14        0.0000000348
   15   14   19   14       -0.0000001176
   15   14   15   15        0.0003564503
   15   14   16   15       -0.0000009430
   15   14   17   15        0.0000006911
   15   14   18   15        0.0000011561
   15   14   19   15        0.0000000547
   15   14   16   16        0.0002792509
   15   14   17   16       -0.0000000026
   15   14   18   16        0.0000538556
   15   14   19   16        0.0000011435
   15   14   17   17        0.0001704792
   15   14   18   17        0.0000231452
   15   14   19   17        0.0000001903
   15   14   18   18       -0.0000030540
   15   14   19   18        0.0029659853
   15   14   19   19        0.0002750999
   16   14   16   14        0.0026558098
   16   14   17   14       -0.0000029426
   16   14   18   14        0.0000000062
   16   14   19   14       -0.0000000949
   16   14   15   15       -0.0000068095
   16   14   16   15        0.0000480232
   16   14   17   15        0.0000000004
   16   14   18   15       -0.0000136357
   16   14   19   15       -0.0000009817
   16   14   16   16       -0.0000093169
   16   14   17   16        0.0000007025
   16   14   18   16       -0.0000006991
   16   14   19   16        0.0000000029
   16   14   17   17       -0.0000043206
   16   14   18   17        0.0009119787
   16   14   19   17        0.0000070301
   16   14   18   18        0.0000000252
   16   14   19   18       -0.0000752079
   16   14   19   19       -0.0000069518
   17   14   17   14        0.0162327028
   17   14   18   14        0.0000000200
   17   14   19   14       -0.0000000929
   17   14   15   15       -0.0000000977
   17   14   16   15        0.0000000158
   17   14   17   15        0.0001627177
   17   14   18   15        0.0001370621
   17   14   19   15        0.0000034084
   17   14   16   16       -0.0000004403
   17   14   17   16       -0.0000041106
   17   14   18   16        0.0054013869
   17   14   19   16        0.0001296376
   17   14   17   17       -0.0000005376
   17   14   18   17       -0.0000001229
   17   14   19   17       -0.0000000637
   17   14   18   18        0.0000001025
   17   14   19   18       -0.0000510444
   17   14   19   19       -0.0000096739
   18   14   18   14        0.0087407916
   18   14   19   14        0.0000035270
   18   14   15   15        0.0000051279
   18   14   16   15        0.0001559335
   18   14   17   15        0.0000639365
   18   14   18   15       -0.0000027020
   18   14   19   15        0.0044760527
   18   14   16   16       -0.0000017180
   18   14   17   16        0.0025194515
   18   14   18   16        0.0000000275
   18   14   19   16       -0.0001135359
   18   14   17   17       -0.0000000782
   18   14   18   17        0.0000000149
   18   14   19   17       -0.0000003146
   18   14   18   18        0.0000052670
   18   14   19   18       -0.0000000143
   18   14   19   19        0.0000044690
   19   14   19   14        0.0013135131
   19   14   15   15       -0.0000000157
   19   14   16   15        0.0000000742
   19   14   17   15       -0.0000001153
   19   14   18   15        0.0011820416
   19   14   19   15        0.0000492497
   19   14   16   16        0.0000000402
   19   14   17   16       -0.0000057080
   19   14   18   16       -0.0000300005
   19   14   19   16       -0.0000011937
   19   14   17   17       -0.0000000155
   19   14   18   17       -0.0000033644
   19   14   19   17       -0.0000003447
   19   14   18   18        0.0000000056
   19   14   19   18        0.0000003915
   19   14   19   19        0.0000000649
   15   15   15   15        0.1362262894
   15   15   16   15       -0.0000372242
   15   15   17   15        0.0002254141
   15   15   18   15       -0.0000000347
   15   15   19   15        0.0000028468
   15   15   16   16        0.1220795509
   15   15   17   16        0.0000029964
   15   15   18   16       -0.0000004241
   15   15   19   16        0.0000573599
   15   15   17   17        0.1288926841
   15   15   18   17       -0.0000000046
   15   15   19   17       -0.0000000670
   15   15   18   18        0.1219710592
   15   15   19   18        0.0002453930
   15   15   19   19        0.1212517186
   16   15   16   15        0.0057947599
   16   15   17   15        0.0000030479
   16   15   18   15       -0.0000000817
   16   15   19   15        0.0000691722
   16   15   16   16        0.0000372107
   16   15   17   16        0.0002157287
   16   15   18   16        0.0000000072
   16   15   19   16       -0.0000046990
   16   15   17   17        0.0000000002
   16   15   18   17        0.0000000000
   16   15   19   17       -0.0000000542
   16   15   18   18        0.0000000028
   16   15   19   18       -0.0000000061
   16   15   19   19        0.0000000579
   17   15   17   15        0.0093502874
   17   15   18   15       -0.0000000128
   17   15   19   15       -0.0000000259
   17   15   16   16        0.0002190267
   17   15   17   16        0.0000000003
   17   15   18   16        0.0000642262
   17   15   19   16        0.0008743453
   17   15   17   17       -0.0000111885
   17   15   18   17       -0.0000000310
   17   15   19   17        0.0000000389
   17   15   18   18        0.0003028783
   17   15   19   18       -0.0000016124
   17   15   19   19        0.0002967285
   18   15   18   15        0.0041353291
   18   15   19   15        0.0001005097
   18   15   16   16        0.0000000207
   18   15   17   16       -0.0000642258
   18   15   18   16        0.0000000554
   18   15   19   16        0.0000000338
   18   15   17   17       -0.0000000111
   18   15   18   17        0.0000328918
   18   15   19   17        0.0000000230
   18   15   18   18        0.0000000378
   18   15   19   18       -0.0000007570
   18   15   19   19       -0.0000000808
   19   15   19   15        0.0063537052
   19   15   16   16       -0.0000048679
   19   15   17   16       -0.0008745031
   19   15   18   16        0.0000000346
   19   15   19   16        0.0000001027
   19   15   17   17       -0.0000000033
   19   15   18   17       -0.0000002146
   19   15   19   17        0.0000300706
   19   15   18   18       -0.0000039838
   19   15   19   18       -0.0000000547
   19   15   19   19       -0.0000041278
   16   16   16   16        0.1362253612
   16   16   17   16       -0.0000094623
   16   16   18   16        0.0000005252
   16   16   19   16       -0.0001964252
   16   16   17   17        0.1288926974
   16   16   18   17       -0.0000000366
   16   16   19   17       -0.0000000195
   16   16   18   18        0.1219704047
   16   16   19   18        0.0002453966
   16   16   19   19        0.1212510088
   17   16   17   16        0.0093503067
   17   16   18   16       -0.0000000170
   17   16   19   16       -0.0000000161
   17   16   17   17        0.0000001630
   17   16   18   17        0.0000001107
   17   16   19   17        0.0000033370
   17   16   18   18       -0.0000044056
   17   16   19   18        0.0000000370
   17   16   19   19       -0.0000043058
   18   16   18   16        0.0041357424
   18   16   19   16        0.0001005063
   18   16   17   17       -0.0000001366
   18   16   18   17       -0.0000004906
   18   16   19   17       -0.0000000240
   18   16   18   18        0.0000001800
   18   16   19   18       -0.0000518524
   18   16   19   19       -0.0000062914
   19   16   19   16        0.0063556216
   19   16   17   17        0.0000000251
   19   16   18   17       -0.0000000060
   19   16   19   17       -0.0000004406
   19   16   18   18       -0.0002731699
   19   16   19   18       -0.0000031156
   19   16   19   19       -0.0002832733
   17   17   17   17        0.1372948815
   17   17   18   17       -0.0000000218
   17   17   19   17       -0.0000000572
   17   17   18   18        0.1254162840
   17   17   19   18        0.0001448730
   17   17   19   19        0.1223439330
   18   17   18   17        0.0021492512
   18   17   19   17        0.0000161259
   18   17   18   18        0.0000000045
   18   17   19   18        0.0000000067
   18   17   19   19       -0.0000000020
   19   17   19   17        0.0017848884
   19   17   18   18       -0.0000000208
   19   17   19   18       -0.0000000008
   19   17   19   19       -0.0000000158
   18   18   18   18        0.1351470922
   18   18   19   18        0.0000000058
   18   18   19   19        0.1246546485
   19   18   19   18        0.0052233228
   19   18   19   19        0.0003216177
   19   19   19   19        0.1281573846
 end_two_electron_integrals


 output epsi filename:./pspw_hf_H2.emovecs

 Total PSPW energy     :  -0.1004261037E+01


=== Spin Contamination ===

 <Sexact^2> =    0.0000000000000000     
 <S^2>      =    0.0000000000000000     



== Center of Charge ==

spin up     (    0.0000,    0.0000,    0.0000 )
spin down   (    0.0000,    0.0000,    0.0000 )
     total  (    0.0000,    0.0000,    0.0000 )
ionic       (    0.0000,    0.0000,    0.0000 )


== Molecular Dipole wrt Center of Mass ==

mu   =  (   -0.0000,   -0.0000,   -0.0000 ) au
|mu| =     0.0000 au,       0.0000 Debye

 output psi filename:./pspw_hf_H2.movecs

 Writing Crystallographic Information File:./H2.cif
   - cell not shifted (nwpw:cif_shift_cell .false.)


== Timing ==

cputime in seconds
  prologue    :   0.554368E+01
  main loop   :   0.532287E+03
  epilogue    :   0.601304E-02
  total       :   0.537837E+03
  cputime/step:   0.412626E+01       (     129 evalulations,      53 linesearches)


Time spent doing                        total          step       percent
  total time                 :   0.537837E+03  0.416928E+01       100.0 %
  i/o time                   :   0.132154E+00  0.102445E-02         0.0 %
  FFTs                       :   0.466038E+03  0.361270E+01        86.7 %
  dot products               :   0.539784E+00  0.418437E-02         0.1 %
  geodesic                   :   0.567590E-01  0.439992E-03         0.0 %
  ffm_dgemm                  :   0.690403E-02  0.535196E-04         0.0 %
  fmf_dgemm                  :   0.291961E-01  0.226326E-03         0.0 %
  mmm_dgemm                  :   0.120231E-02  0.932022E-05         0.0 %
  m_diagonalize              :   0.730168E-03  0.566022E-05         0.0 %
  local pseudopotentials     :   0.108953E-01  0.844599E-04         0.0 %
  non-local pseudopotentials :   0.997998E+00  0.773642E-02         0.2 %
  structure factors          :   0.471717E+00  0.365672E-02         0.1 %
  phase factors              :   0.573800E-05  0.444806E-07         0.0 %
  masking and packing        :   0.179123E+02  0.138855E+00         3.3 %
  queue fft                  :   0.122244E+01  0.947628E-02         0.2 %
  queue fft (serial)         :   0.721352E+00  0.559188E-02         0.1 %
  queue fft (message passing):   0.455297E+00  0.352943E-02         0.1 %
  HFX potential              :   0.266373E+03  0.206490E+01        49.5 %
  non-local psp FFM          :   0.537103E+00  0.416359E-02         0.1 %
  non-local psp FMF          :   0.119374E+00  0.925378E-03         0.0 %
  non-local psp FFM A        :   0.143280E+00  0.111070E-02         0.0 %
  non-local psp FFM B        :   0.989314E-01  0.766910E-03         0.0 %

== HFX Counters ==
  HFX Evalulations         =   129
  Lin ACE HFX Evalulations =     0


     >>>  JOB COMPLETED     AT Thu May  1 20:47:06 2025  <<<

 Task  times  cpu:      537.7s     wall:      537.8s
 Summary of allocated global arrays
-----------------------------------
  No active global arrays


MA_summarize_allocated_blocks: starting scan ...
MA_summarize_allocated_blocks: scan completed: 0 heap blocks, 0 stack blocks
MA usage statistics:

	allocation statistics:
					      heap	     stack
					      ----	     -----
	current number of blocks	         0	         0
	maximum number of blocks	       313	        17
	current total bytes		         0	         0
	maximum total bytes		 375254968	  89294088
	maximum total K-bytes		    375255	     89295
	maximum total M-bytes		       376	        90


                                NWChem Input Module
                                -------------------




                                     CITATION
                                     --------
                Please cite the following reference when publishing
                           results obtained with NWChem:

          E. Apra, E. J. Bylaska, W. A. de Jong, N. Govind, K. Kowalski,
       T. P. Straatsma, M. Valiev, H. J. J. van Dam, Y. Alexeev, J. Anchell,
       V. Anisimov, F. W. Aquino, R. Atta-Fynn, J. Autschbach, N. P. Bauman,
     J. C. Becca, D. E. Bernholdt, K. Bhaskaran-Nair, S. Bogatko, P. Borowski,
         J. Boschen, J. Brabec, A. Bruner, E. Cauet, Y. Chen, G. N. Chuev,
      C. J. Cramer, J. Daily, M. J. O. Deegan, T. H. Dunning Jr., M. Dupuis,
   K. G. Dyall, G. I. Fann, S. A. Fischer, A. Fonari, H. Fruchtl, L. Gagliardi,
      J. Garza, N. Gawande, S. Ghosh, K. Glaesemann, A. W. Gotz, J. Hammond,
       V. Helms, E. D. Hermes, K. Hirao, S. Hirata, M. Jacquelin, L. Jensen,
   B. G. Johnson, H. Jonsson, R. A. Kendall, M. Klemm, R. Kobayashi, V. Konkov,
      S. Krishnamoorthy, M. Krishnan, Z. Lin, R. D. Lins, R. J. Littlefield,
      A. J. Logsdail, K. Lopata, W. Ma, A. V. Marenich, J. Martin del Campo,
   D. Mejia-Rodriguez, J. E. Moore, J. M. Mullin, T. Nakajima, D. R. Nascimento,
    J. A. Nichols, P. J. Nichols, J. Nieplocha, A. Otero-de-la-Roza, B. Palmer,
    A. Panyala, T. Pirojsirikul, B. Peng, R. Peverati, J. Pittner, L. Pollack,
   R. M. Richard, P. Sadayappan, G. C. Schatz, W. A. Shelton, D. W. Silverstein,
   D. M. A. Smith, T. A. Soares, D. Song, M. Swart, H. L. Taylor, G. S. Thomas,
            V. Tipparaju, D. G. Truhlar, K. Tsemekhman, T. Van Voorhis,
      A. Vazquez-Mayagoitia, P. Verma, O. Villa, A. Vishnu, K. D. Vogiatzis,
        D. Wang, J. H. Weare, M. J. Williamson, T. L. Windus, K. Wolinski,
        A. T. Wong, Q. Wu, C. Yang, Q. Yu, M. Zacharias, Z. Zhang, Y. Zhao,
                                and R. J. Harrison
                        "NWChem: Past, present, and future
                         J. Chem. Phys. 152, 184102 (2020)
                               doi:10.1063/5.0004997

                                      AUTHORS
                                      -------
  E. Apra, E. J. Bylaska, N. Govind, K. Kowalski, M. Valiev, D. Mejia-Rodriguez,
       A. Kunitsa, N. P. Bauman, A. Panyala, W. A. de Jong, T. P. Straatsma,
   H. J. J. van Dam, D. Wang, T. L. Windus, J. Hammond, J. Autschbach, A. Woods,
    K. Bhaskaran-Nair, J. Brabec, K. Lopata, S. A. Fischer, S. Krishnamoorthy,
     M. Jacquelin, W. Ma, M. Klemm, O. Villa, Y. Chen, V. Anisimov, F. Aquino,
     S. Hirata, M. T. Hackler, E. Hermes, L. Jensen, J. E. Moore, J. C. Becca,
      V. Konjkov, T. Risthaus, M. Malagoli, A. Marenich, A. Otero-de-la-Roza,
        J. Mullin, P. Nichols, R. Peverati, J. Pittner, Y. Zhao, P.-D. Fan,
        A. Fonari, M. J. Williamson, R. J. Harrison, J. R. Rehr, M. Dupuis,
     D. Silverstein, D. M. A. Smith, J. Nieplocha, V. Tipparaju, M. Krishnan,
     B. E. Van Kuiken, A. Vazquez-Mayagoitia, M. Swart, Q. Wu, T. Van Voorhis,
     A. A. Auer, M. Nooijen, L. D. Crosby, E. Brown, G. Cisneros, G. I. Fann,
   H. Fruchtl, J. Garza, K. Hirao, R. A. Kendall, J. A. Nichols, K. Tsemekhman,
    K. Wolinski, J. Anchell, D. E. Bernholdt, P. Borowski, T. Clark, D. Clerc,
   H. Dachsel, M. J. O. Deegan, K. Dyall, D. Elwood, E. Glendening, M. Gutowski,
   A. C. Hess, J. Jaffe, B. G. Johnson, J. Ju, R. Kobayashi, R. Kutteh, Z. Lin,
   R. Littlefield, X. Long, B. Meng, T. Nakajima, S. Niu, L. Pollack, M. Rosing,
   K. Glaesemann, G. Sandrone, M. Stave, H. Taylor, G. Thomas, J. H. van Lenthe,
                               A. T. Wong, Z. Zhang.

 Total times  cpu:      537.7s     wall:      537.9s
