 argument  1 = H2-2.5.nw



============================== echo of input deck ==============================
title "swnc: e theory=pspw4 xc=hf formula=H2 charge=0 mult=1"
#machinejob:expert

echo

start pspw_hf_H2

memory heap 1200 mb stack 1200 mb global 10 mb

charge 0

geometry
H    0.00000    0.00000   -1.25000
H    0.00000    0.00000    1.25000
end

nwpw
  ### pseudopotential block begin ###
  ### pseudopotential block end   ###
  simulation_cell
     SC 15.0000
     boundary_conditions aperiodic
  end

  cutoff 50.0
  mult 1
  xc hf
  lmbfgs
  tolerances 1.0e-9 1.0e-9

  virtual 18
end
set nwpw:cif_filename H2

#set nwpw:CI_maxit_orb 15
#set nwpw:CI_maxit_linesearch 15
set pspw:HFX_screening_radius 14.0


set nwpw:2qintegrals .true.
#set nwpw:3x3_virtual .true.

task pspw energy

================================================================================


                                         
                                         


             Northwest Computational Chemistry Package (NWChem) 7.2.2
             --------------------------------------------------------


                    Environmental Molecular Sciences Laboratory
                       Pacific Northwest National Laboratory
                                Richland, WA 99352

                              Copyright (c) 1994-2022
                       Pacific Northwest National Laboratory
                            Battelle Memorial Institute

             NWChem is an open-source computational chemistry package
                        distributed under the terms of the
                      Educational Community License (ECL) 2.0
             A copy of the license is included with this distribution
                              in the LICENSE.TXT file

                                  ACKNOWLEDGMENT
                                  --------------

            This software and its documentation were developed at the
            EMSL at Pacific Northwest National Laboratory, a multiprogram
            national laboratory, operated for the U.S. Department of Energy
            by Battelle under Contract Number DE-AC05-76RL01830. Support
            for this work was provided by the Department of Energy Office
            of Biological and Environmental Research, Office of Basic
            Energy Sciences, and the Office of Advanced Scientific Computing.


           Job information
           ---------------

    hostname        = LAPTOP-JJQSTSEL
    program         = nwchem
    date            = Thu May  1 20:57:21 2025

    compiled        = Fri_Jun_07_07:50:04_2024
    source          = /home/conda/feedstock_root/build_artifacts/nwchem_1717738148552/work
    nwchem branch   = 7.2.2
    nwchem revision = 64ba0f0
    ga revision     = 5.8.0
    use scalapack   = T
    input           = H2-2.5.nw
    prefix          = pspw_hf_H2.
    data base       = ./pspw_hf_H2.db
    status          = startup
    nproc           =        1
    time left       =     -1s



           Memory information
           ------------------

    heap     =  157286400 doubles =   1200.0 Mbytes
    stack    =  157286397 doubles =   1200.0 Mbytes
    global   =    1310720 doubles =     10.0 Mbytes (distinct from heap & stack)
    total    =  315883517 doubles =   2410.0 Mbytes
    verify   = yes
    hardfail = no 


           Directory information
           ---------------------

  0 permanent = .
  0 scratch   = .




                                NWChem Input Module
                                -------------------


               swnc: e theory=pspw4 xc=hf formula=H2 charge=0 mult=1
               -----------------------------------------------------

 Scaling coordinates for geometry "geometry" by  1.889725989
 (inverse scale =  0.529177249)

 ORDER OF PRIMARY AXIS IS BEING SET TO 4
 D4H symmetry detected

          ------
          auto-z
          ------
     1 autoz failed with cvr_scaling = 1.2 changing to 1.3
     2 autoz failed with cvr_scaling = 1.3 changing to 1.4
     3 autoz failed with cvr_scaling = 1.4 changing to 1.5
     4 autoz failed with cvr_scaling = 1.5 changing to 1.6
     5 autoz failed with cvr_scaling = 1.6 changing to 1.7

 AUTOZ failed to generate good internal coordinates.
 Cartesian coordinates will be used in optimizations.



                             Geometry "geometry" -> ""
                             -------------------------

 Output coordinates in angstroms (scale by  1.889725989 to convert to a.u.)

  No.       Tag          Charge          X              Y              Z
 ---- ---------------- ---------- -------------- -------------- --------------
    1 H                    1.0000     0.00000000     0.00000000    -1.25000000
    2 H                    1.0000     0.00000000     0.00000000     1.25000000

      Atomic Mass 
      ----------- 

      H                  1.007825


 Effective nuclear repulsion energy (a.u.)       0.2116708996

            Nuclear Dipole moment (a.u.) 
            ----------------------------
        X                 Y               Z
 ---------------- ---------------- ----------------
     0.0000000000     0.0000000000     0.0000000000

      Symmetry information
      --------------------

 Group name             D4h       
 Group number             28
 Group order              16
 No. of unique centers     1

      Symmetry unique atoms

     1


            XYZ format geometry
            -------------------
     2
 geometry
 H                     0.00000000     0.00000000    -1.25000000
 H                     0.00000000     0.00000000     1.25000000

          ****************************************************
          *                                                  *
          *               NWPW PSPW Calculation              *
          *                                                  *
          * [ (Grassmann/Stiefel manifold implementation)  ] *
          *                                                  *
          *      [ NorthWest Chemistry implementation ]      *
          *                                                  *
          *            version #5.10   06/12/02              *
          *                                                  *
          *    This code was developed by Eric J. Bylaska,   *
          *    and was based upon algorithms and code        *
          *    developed by the group of Prof. John H. Weare *
          *                                                  *
          ****************************************************
     >>>  JOB STARTED       AT Thu May  1 20:57:21 2025  <<<
          ================ input data ========================

 input psi filename:./pspw_hf_H2.movecs

 number of processors used:         1
 processor grid           :   1 x   1
 parallel mapping         :2d-hilbert
 parallel mapping         :  balanced
 number of threads        :         1
 parallel io              :       off

 options:
      boundary conditions  = aperiodic   (version4)
      electron spin        = restricted
      exchange-correlation = Hartree-Fock
      - HFX relaxed
      - HFX restricted orbitals :    1
      - HFX free-space coulomb solver


 elements involved in the cluster:
      1: H   valence charge:  1.0000  lmax=  1
             comment    : Parameterized (Chem.Phys.Lett., vol 322, page 447) Hamman psp
             pseudpotential type            :   0
             highest angular component      :   1
             local potential used           :   1
             number of non-local projections:   1
             aperiodic cutoff radius        :  1.000
             cutoff =   0.800   0.800


 total charge:   0.000

 atomic composition:
     H   :    2

 number of electrons: spin up=     1 (   1 per task)  down=     1 (   1 per task) (Fourier space)
 number of orbitals : spin up=     1 (   1 per task)  down=     1 (   1 per task) (Fourier space)

 supercell:
      cell_name:  cell_default                                      
      lattice:    a1=<  15.000   0.000   0.000 >
                  a2=<   0.000  15.000   0.000 >
                  a3=<   0.000   0.000  15.000 >
      reciprocal: b1=<   0.419   0.000   0.000 >
                  b2=<   0.000   0.419   0.000 >
                  b3=<   0.000   0.000   0.419 >
      lattice:    a=      15.000 b=     15.000 c=      15.000
                  alpha=  90.000 beta=  90.000 gamma=  90.000
                  omega=      3375.0

      density cutoff=100.000  fft= 70x 70x 70(    80618 waves    80618 per task)
      wavefnc cutoff= 50.000  fft= 70x 70x 70(    28526 waves    28526 per task)

 technical parameters:
      time step=      5.80     fictitious mass=  400000.0
      tolerance=0.100E-08 (energy)   0.100E-08 (density)
      maximum iterations =      1000 (   10 inner    100 outer )





== Energy Calculation ==


          ============ Grassmann lmbfgs iteration ============
     >>>  ITERATION STARTED AT Thu May  1 20:57:27 2025  <<<
    iter.           Energy         DeltaE       DeltaRho 
    ------------------------------------------------------
      10   -0.8678258394E+00   -0.16149E-02    0.88138E-02
     -  10 steepest descent iterations performed
      20   -0.8716483911E+00   -0.78182E-04    0.35373E-04
      30   -0.8718162559E+00   -0.39089E-05    0.29466E-05
      40   -0.8718273354E+00   -0.15716E-06    0.17658E-06
      50   -0.8718278348E+00   -0.11264E-07    0.22536E-08
      60   -0.8718278715E+00   -0.91039E-09    0.15477E-09
  *** tolerance ok. iteration terminated
     >>>  ITERATION ENDED   AT Thu May  1 20:58:09 2025  <<<


==  Summary Of Results  ==

 number of electrons: spin up=    1.00000  down=    1.00000 (real space)

 total     energy    :  -0.8718278715E+00 (   -0.43591E+00/ion)
 total orbital energy:  -0.7133853798E+00 (   -0.71339E+00/electron)
 hartree   energy    :   0.7402267825E+00 (    0.74023E+00/electron)
 exc-corr  energy    :   0.0000000000E+00 (    0.00000E+00/electron)
 HF exchange energy  :  -0.3701133912E+00 (   -0.37011E+00/electron)
 ion-ion   energy    :   0.2116708996E+00 (    0.10584E+00/ion)

 kinetic (planewave) :   0.6112860691E+00 (    0.61129E+00/electron)
 V_local (planewave) :  -0.1917596319E+01 (   -0.19176E+01/electron)
 V_nl    (planewave) :  -0.1473019119E+00 (   -0.14730E+00/electron)
 V_Coul  (planewave) :   0.1480453565E+01 (    0.14805E+01/electron)
 V_xc.   (planewave) :   0.0000000000E+00 (    0.00000E+00/electron)
 K.S. HFX energy     :  -0.7402267825E+00 (   -0.74023E+00/electron)
 Virial Coefficient  :  -0.9560902759E+00

 orbital energies:
    -0.3566927E+00 (  -9.706eV)


== Virtual Orbital Calculation ==


 input epsi filename:./pspw_hf_H2.emovecs
     orbital   1 current e=-0.921E-01 (error=0.733E-09) iterations  58(  41 preconditioned, Ep,Sp= 20.0  200.0)
     orbital   2 current e= 0.145E-01 (error=0.969E-09) iterations  67(  39 preconditioned, Ep,Sp= 20.0  200.0)
     orbital   3 current e= 0.822E-01 (error=0.973E-09) iterations  49(  18 preconditioned, Ep,Sp= 20.0  200.0)
     orbital   4 current e= 0.822E-01 (error=0.973E-09) iterations  49(  18 preconditioned, Ep,Sp= 20.0  200.0)
     orbital   5 current e= 0.836E-01 (error=0.935E-09) iterations  76(  27 preconditioned, Ep,Sp= 20.0  200.0)
     orbital   6 current e= 0.881E-01 (error=0.775E-09) iterations  24(   2 preconditioned, Ep,Sp= 20.0  200.0)
     orbital   7 current e= 0.105E+00 (error=0.970E-09) iterations  55(  33 preconditioned, Ep,Sp= 20.0  200.0)
     orbital   8 current e= 0.127E+00 (error=0.856E-09) iterations  92(  43 preconditioned, Ep,Sp= 20.0  200.0)
     orbital   9 current e= 0.167E+00 (error=0.837E-09) iterations  58(  31 preconditioned, Ep,Sp= 20.0  200.0)
     orbital  10 current e= 0.167E+00 (error=0.836E-09) iterations  58(  31 preconditioned, Ep,Sp= 20.0  200.0)
     orbital  11 current e= 0.168E+00 (error=0.916E-09) iterations  75(  45 preconditioned, Ep,Sp= 20.0  200.0)
     orbital  12 current e= 0.170E+00 (error=0.738E-09) iterations  55(  34 preconditioned, Ep,Sp= 20.0  200.0)
     orbital  13 current e= 0.170E+00 (error=0.736E-09) iterations  55(  34 preconditioned, Ep,Sp= 20.0  200.0)
     orbital  14 current e= 0.175E+00 (error=0.991E-09) iterations  53(  17 preconditioned, Ep,Sp= 20.0  200.0)
     orbital  15 current e= 0.175E+00 (error=0.991E-09) iterations  53(  17 preconditioned, Ep,Sp= 20.0  200.0)
     orbital  16 current e= 0.175E+00 (error=0.704E-09) iterations  43(   6 preconditioned, Ep,Sp= 20.0  200.0)
     orbital  17 current e= 0.176E+00 (error=0.969E-09) iterations  24(   4 preconditioned, Ep,Sp= 20.0  200.0)
     orbital  18 current e= 0.177E+00 (error=0.844E-09) iterations  25(   1 preconditioned, Ep,Sp= 20.0  200.0)

 virtual orbital energies:
     0.1765404E+00 (   4.804eV)
     0.1755991E+00 (   4.778eV)
     0.1749389E+00 (   4.760eV)
     0.1747713E+00 (   4.756eV)
     0.1747713E+00 (   4.756eV)
     0.1701603E+00 (   4.630eV)
     0.1701603E+00 (   4.630eV)
     0.1680827E+00 (   4.574eV)
     0.1674288E+00 (   4.556eV)
     0.1674288E+00 (   4.556eV)
     0.1269422E+00 (   3.454eV)
     0.1052057E+00 (   2.863eV)
     0.8813878E-01 (   2.398eV)
     0.8355416E-01 (   2.274eV)
     0.8220085E-01 (   2.237eV)
     0.8220085E-01 (   2.237eV)
     0.1451991E-01 (   0.395eV)
    -0.9207043E-01 (  -2.505eV)


 == Generating One-Electron and Two-Electron Integrals ==

 begin_one_electron_integrals
    1    1        -0.7268060811
    2    1         0.0000148803
    3    1         0.0330963765
    4    1         0.0000205984
    5    1        -0.0000000046
    6    1         0.0074852487
    7    1         0.0000000010
    8    1         0.0000009105
    9    1         0.0334983074
   10    1         0.0000121924
   11    1        -0.0000000002
   12    1         0.0048676328
   13    1         0.0000000001
   14    1        -0.0000000480
   15    1         0.0000004682
   16    1        -0.0000000000
   17    1        -0.0000000006
   18    1        -0.0000001559
   19    1         0.0000001493
    2    2        -0.6526373562
    3    2         0.0001287124
    4    2         0.0000003461
    5    2        -0.0000000001
    6    2         0.0001465918
    7    2        -0.0000000005
    8    2        -0.0529434399
    9    2         0.0000598877
   10    2         0.0000001325
   11    2         0.0000000000
   12    2         0.0000863842
   13    2        -0.0000000057
   14    2         0.0000016372
   15    2        -0.0000000194
   16    2        -0.0000000000
   17    2        -0.0000000005
   18    2        -0.0000002408
   19    2        -0.0000005725
    3    3        -0.2482894841
    4    3        -0.0000011776
    5    3         0.0000000003
    6    3        -0.0021294105
    7    3         0.0000000001
    8    3         0.0000197629
    9    3        -0.0550141474
   10    3        -0.0000050676
   11    3         0.0000000001
   12    3        -0.0026253464
   13    3        -0.0000000001
   14    3         0.0000000297
   15    3         0.0000006582
   16    3         0.0000000000
   17    3        -0.0000000002
   18    3         0.0000001497
   19    3        -0.0000001431
    4    4        -0.2317168636
    5    4        -0.0000000000
    6    4         0.0000517222
    7    4         0.0000000126
    8    4         0.0000000935
    9    4        -0.0000162281
   10    4        -0.0757348179
   11    4        -0.0000157543
   12    4        -0.0000201352
   13    4         0.0000000469
   14    4        -0.0000145349
   15    4        -0.0168887485
   16    4         0.0000037375
   17    4        -0.0000253103
   18    4        -0.0000000459
   19    4        -0.0000000171
    5    5        -0.2317169192
    6    5        -0.0000000117
    7    5         0.0000558667
    8    5        -0.0000000000
    9    5         0.0000000037
   10    5         0.0000157543
   11    5        -0.0757348728
   12    5         0.0000000050
   13    5        -0.0000145357
   14    5        -0.0000000469
   15    5         0.0000037375
   16    5         0.0168887698
   17    5         0.0000000057
   18    5        -0.0000002415
   19    5        -0.0000041301
    6    6        -0.2086192670
    7    6        -0.0000000008
    8    6         0.0000282577
    9    6        -0.0042868542
   10    6         0.0000959751
   11    6        -0.0000000020
   12    6        -0.0576602951
   13    6        -0.0000000015
   14    6         0.0000006107
   15    6         0.0000457083
   16    6         0.0000000003
   17    6         0.0000001249
   18    6         0.0000001151
   19    6        -0.0000001041
    7    7        -0.1830513227
    8    7        -0.0000000134
    9    7        -0.0000000038
   10    7        -0.0000000009
   11    7         0.0000874603
   12    7        -0.0000000674
   13    7         0.0000001381
   14    7        -0.0000000125
   15    7        -0.0000000036
   16    7        -0.0000096221
   17    7        -0.0000000050
   18    7        -0.0001109744
   19    7         0.0327165295
    8    8        -0.1666662118
    9    8         0.0000146936
   10    8         0.0000000686
   11    8         0.0000000000
   12    8         0.0000279889
   13    8         0.0000000012
   14    8        -0.0000003532
   15    8        -0.0000000085
   16    8        -0.0000000001
   17    8        -0.0000000004
   18    8        -0.0000002572
   19    8        -0.0000006159
    9    9        -0.1370716169
   10    9        -0.0000114635
   11    9         0.0000000002
   12    9        -0.0035372991
   13    9         0.0000000000
   14    9         0.0000000137
   15    9        -0.0000005192
   16    9         0.0000000001
   17    9         0.0000000027
   18    9         0.0000003122
   19    9        -0.0000002989
   10   10        -0.1495367853
   11   10         0.0000000000
   12   10         0.0000486356
   13   10         0.0000000084
   14   10        -0.0000024323
   15   10        -0.0132016910
   16   10         0.0000001753
   17   10        -0.0000224707
   18   10        -0.0000000743
   19   10        -0.0000000288
   11   11        -0.1495368652
   12   11        -0.0000000006
   13   11        -0.0000024319
   14   11        -0.0000000083
   15   11         0.0000001753
   16   11         0.0132016891
   17   11         0.0000000004
   18   11        -0.0000000803
   19   11        -0.0000366727
   12   12        -0.1206269781
   13   12         0.0000000007
   14   12        -0.0000002904
   15   12         0.0000219398
   16   12         0.0000000000
   17   12         0.0000000296
   18   12         0.0000000756
   19   12        -0.0000000802
   13   13        -0.1488146275
   14   13         0.0000000000
   15   13        -0.0000000142
   16   13        -0.0000041179
   17   13        -0.0000000000
   18   13         0.0000115835
   19   13         0.0000002149
   14   14        -0.1488146281
   15   14         0.0000041181
   16   14        -0.0000000142
   17   14         0.0000000109
   18   14         0.0000000554
   19   14         0.0000000323
   15   15        -0.1099370953
   16   15        -0.0000000000
   17   15         0.0000278775
   18   15        -0.0000000336
   19   15        -0.0000000129
   16   16        -0.1099370230
   17   16         0.0000000001
   18   16         0.0000001061
   19   16         0.0000140138
   17   17        -0.1252786345
   18   17        -0.0000000102
   19   17        -0.0000000236
   18   18        -0.1003674756
   19   18        -0.0000194632
   19   19        -0.0931548496
 end_one_electron_integrals

 begin_two_electron_integrals
    1    1    1    1        0.3701133912
    1    1    2    1       -0.0000149011
    1    1    3    1       -0.0331049685
    1    1    4    1       -0.0000205700
    1    1    5    1        0.0000000046
    1    1    6    1       -0.0074715922
    1    1    7    1       -0.0000000010
    1    1    8    1       -0.0000009544
    1    1    9    1       -0.0335026650
    1    1   10    1       -0.0000122052
    1    1   11    1        0.0000000002
    1    1   12    1       -0.0048738506
    1    1   13    1       -0.0000000001
    1    1   14    1        0.0000000481
    1    1   15    1       -0.0000004679
    1    1   16    1        0.0000000000
    1    1   17    1        0.0000000006
    1    1   18    1        0.0000001560
    1    1   19    1       -0.0000001493
    1    1    2    2        0.3576164395
    1    1    3    2       -0.0000685965
    1    1    4    2       -0.0000001438
    1    1    5    2        0.0000000000
    1    1    6    2       -0.0000621932
    1    1    7    2        0.0000000005
    1    1    8    2        0.0401905262
    1    1    9    2       -0.0000233176
    1    1   10    2       -0.0000000478
    1    1   11    2       -0.0000000000
    1    1   12    2       -0.0000309576
    1    1   13    2        0.0000000041
    1    1   14    2       -0.0000011934
    1    1   15    2        0.0000000118
    1    1   16    2        0.0000000000
    1    1   17    2        0.0000000003
    1    1   18    2        0.0000001863
    1    1   19    2        0.0000004437
    1    1    3    3        0.1340199405
    1    1    4    3       -0.0000013265
    1    1    5    3        0.0000000003
    1    1    6    3        0.0017492711
    1    1    7    3       -0.0000000000
    1    1    8    3       -0.0000137826
    1    1    9    3        0.0303514206
    1    1   10    3        0.0000000723
    1    1   11    3        0.0000000000
    1    1   12    3        0.0018099421
    1    1   13    3        0.0000000001
    1    1   14    3       -0.0000000279
    1    1   15    3       -0.0000009834
    1    1   16    3       -0.0000000000
    1    1   17    3        0.0000000010
    1    1   18    3       -0.0000000892
    1    1   19    3        0.0000000852
    1    1    4    4        0.1598683696
    1    1    5    4        0.0000000000
    1    1    6    4       -0.0000269153
    1    1    7    4       -0.0000000060
    1    1    8    4       -0.0000000501
    1    1    9    4        0.0000089237
    1    1   10    4        0.0411555076
    1    1   11    4        0.0000085612
    1    1   12    4        0.0000103824
    1    1   13    4       -0.0000000293
    1    1   14    4        0.0000090919
    1    1   15    4        0.0090526438
    1    1   16    4       -0.0000020033
    1    1   17    4        0.0000131040
    1    1   18    4        0.0000000256
    1    1   19    4        0.0000000093
    1    1    5    5        0.1598684018
    1    1    6    5        0.0000000061
    1    1    7    5       -0.0000264461
    1    1    8    5        0.0000000000
    1    1    9    5       -0.0000000020
    1    1   10    5       -0.0000085612
    1    1   11    5        0.0411555406
    1    1   12    5       -0.0000000026
    1    1   13    5        0.0000090924
    1    1   14    5        0.0000000293
    1    1   15    5       -0.0000020033
    1    1   16    5       -0.0090526524
    1    1   17    5       -0.0000000030
    1    1   18    5        0.0000001375
    1    1   19    5        0.0000011563
    1    1    6    6        0.1476627133
    1    1    7    6        0.0000000003
    1    1    8    6       -0.0000171008
    1    1    9    6        0.0029455931
    1    1   10    6       -0.0000509344
    1    1   11    6        0.0000000011
    1    1   12    6        0.0306129111
    1    1   13    6        0.0000000008
    1    1   14    6       -0.0000003326
    1    1   15    6       -0.0000238967
    1    1   16    6       -0.0000000002
    1    1   17    6       -0.0000000667
    1    1   18    6       -0.0000000648
    1    1   19    6        0.0000000586
    1    1    7    7        0.1358734097
    1    1    8    7        0.0000000066
    1    1    9    7        0.0000000014
    1    1   10    7        0.0000000005
    1    1   11    7       -0.0000431713
    1    1   12    7        0.0000000339
    1    1   13    7       -0.0000000623
    1    1   14    7        0.0000000064
    1    1   15    7        0.0000000018
    1    1   16    7        0.0000046517
    1    1   17    7        0.0000000025
    1    1   18    7        0.0000563680
    1    1   19    7       -0.0165591882
    1    1    8    8        0.1388975897
    1    1    9    8       -0.0000081363
    1    1   10    8       -0.0000000388
    1    1   11    8       -0.0000000000
    1    1   12    8       -0.0000155184
    1    1   13    8       -0.0000000038
    1    1   14    8        0.0000011057
    1    1   15    8       -0.0000000014
    1    1   16    8        0.0000000000
    1    1   17    8        0.0000000002
    1    1   18    8        0.0000001388
    1    1   19    8        0.0000003318
    1    1    9    9        0.1351846264
    1    1   10    9        0.0000055847
    1    1   11    9       -0.0000000001
    1    1   12    9        0.0024017918
    1    1   13    9       -0.0000000000
    1    1   14    9       -0.0000000073
    1    1   15    9       -0.0000000866
    1    1   16    9       -0.0000000000
    1    1   17    9       -0.0000000048
    1    1   18    9       -0.0000001732
    1    1   19    9        0.0000001659
    1    1   10   10        0.1624350446
    1    1   11   10       -0.0000000000
    1    1   12   10       -0.0000263348
    1    1   13   10       -0.0000000052
    1    1   14   10        0.0000015166
    1    1   15   10        0.0073852030
    1    1   16   10       -0.0000000981
    1    1   17   10        0.0000130302
    1    1   18   10        0.0000000398
    1    1   19   10        0.0000000153
    1    1   11   11        0.1624350881
    1    1   12   11        0.0000000003
    1    1   13   11        0.0000015164
    1    1   14   11        0.0000000052
    1    1   15   11       -0.0000000981
    1    1   16   11       -0.0073852055
    1    1   17   11       -0.0000000002
    1    1   18   11        0.0000000529
    1    1   19   11        0.0000178859
    1    1   12   12        0.1464721275
    1    1   13   12       -0.0000000004
    1    1   14   12        0.0000001516
    1    1   15   12       -0.0000122605
    1    1   16   12       -0.0000000000
    1    1   17   12       -0.0000000157
    1    1   18   12       -0.0000000365
    1    1   19   12        0.0000000377
    1    1   13   13        0.1612303428
    1    1   14   13       -0.0000000000
    1    1   15   13        0.0000000164
    1    1   16   13        0.0000047465
    1    1   17   13        0.0000000000
    1    1   18   13       -0.0000048713
    1    1   19   13       -0.0000000982
    1    1   14   14        0.1612303433
    1    1   15   14       -0.0000047466
    1    1   16   14        0.0000000164
    1    1   17   14       -0.0000000113
    1    1   18   14       -0.0000000255
    1    1   19   14       -0.0000000183
    1    1   15   15        0.1428067013
    1    1   16   15        0.0000000000
    1    1   17   15       -0.0000147934
    1    1   18   15        0.0000000175
    1    1   19   15        0.0000000067
    1    1   16   16        0.1428066614
    1    1   17   16       -0.0000000001
    1    1   18   16       -0.0000000507
    1    1   19   16       -0.0000067197
    1    1   17   17        0.1506912309
    1    1   18   17        0.0000000052
    1    1   19   17        0.0000000119
    1    1   18   18        0.1381766767
    1    1   19   18        0.0000099914
    1    1   19   19        0.1350662082
    2    1    2    1        0.1546659541
    2    1    3    1       -0.0000108635
    2    1    4    1        0.0000000581
    2    1    5    1       -0.0000000000
    2    1    6    1        0.0000220037
    2    1    7    1        0.0000000004
    2    1    8    1        0.0274387258
    2    1    9    1        0.0000132768
    2    1   10    1        0.0000000371
    2    1   11    1       -0.0000000000
    2    1   12    1        0.0000245520
    2    1   13    1        0.0000000026
    2    1   14    1       -0.0000007470
    2    1   15    1        0.0000000042
    2    1   16    1        0.0000000000
    2    1   17    1        0.0000000002
    2    1   18    1        0.0000001308
    2    1   19    1        0.0000003124
    2    1    2    2       -0.0000190432
    2    1    3    2       -0.0168978228
    2    1    4    2        0.0000303576
    2    1    5    2       -0.0000000069
    2    1    6    2        0.0133063497
    2    1    7    2        0.0000000004
    2    1    8    2       -0.0000148491
    2    1    9    2       -0.0172862509
    2    1   10    2        0.0000230689
    2    1   11    2       -0.0000000003
    2    1   12    2        0.0178164545
    2    1   13    2        0.0000000004
    2    1   14    2       -0.0000001800
    2    1   15    2       -0.0000026713
    2    1   16    2       -0.0000000000
    2    1   17    2       -0.0000000244
    2    1   18    2        0.0000000460
    2    1   19    2       -0.0000000497
    2    1    3    3        0.0004000946
    2    1    4    3        0.0000011431
    2    1    5    3       -0.0000000003
    2    1    6    3        0.0004760497
    2    1    7    3       -0.0000000001
    2    1    8    3       -0.0219455305
    2    1    9    3       -0.0000119326
    2    1   10    3        0.0000000808
    2    1   11    3        0.0000000000
    2    1   12    3        0.0000522784
    2    1   13    3        0.0000000110
    2    1   14    3       -0.0000031853
    2    1   15    3        0.0000000281
    2    1   16    3       -0.0000000000
    2    1   17    3       -0.0000000001
    2    1   18    3       -0.0000000717
    2    1   19    3       -0.0000001710
    2    1    4    4        0.0003094390
    2    1    5    4        0.0000000000
    2    1    6    4        0.0000010567
    2    1    7    4       -0.0000000000
    2    1    8    4       -0.0000070404
    2    1    9    4        0.0000006102
    2    1   10    4       -0.0001451006
    2    1   11    4       -0.0000000302
    2    1   12    4        0.0000013090
    2    1   13    4       -0.0000985416
    2    1   14    4        0.0305341775
    2    1   15    4       -0.0004566001
    2    1   16    4        0.0000001010
    2    1   17    4       -0.0000008318
    2    1   18    4        0.0000000036
    2    1   19    4       -0.0000000013
    2    1    5    5        0.0003094363
    2    1    6    5       -0.0000000002
    2    1    7    5       -0.0000000572
    2    1    8    5        0.0000000016
    2    1    9    5       -0.0000000001
    2    1   10    5        0.0000000302
    2    1   11    5       -0.0001451030
    2    1   12    5        0.0000000001
    2    1   13    5        0.0305342448
    2    1   14    5        0.0000985419
    2    1   15    5        0.0000001010
    2    1   16    5        0.0004566020
    2    1   17    5        0.0000000002
    2    1   18    5        0.0000180871
    2    1   19    5        0.0000002377
    2    1    6    6        0.0007437971
    2    1    7    6       -0.0000000004
    2    1    8    6       -0.0025656136
    2    1    9    6        0.0002467609
    2    1   10    6        0.0000008872
    2    1   11    6       -0.0000000000
    2    1   12    6        0.0003466411
    2    1   13    6        0.0000002504
    2    1   14    6       -0.0000725107
    2    1   15    6        0.0000010873
    2    1   16    6       -0.0000000000
    2    1   17    6        0.0000000016
    2    1   18    6       -0.0000000545
    2    1   19    6       -0.0000001232
    2    1    7    7        0.0002900756
    2    1    8    7       -0.0000000031
    2    1    9    7       -0.0000000013
    2    1   10    7       -0.0000000038
    2    1   11    7        0.0000000088
    2    1   12    7        0.0000000389
    2    1   13    7       -0.0000341081
    2    1   14    7       -0.0000001218
    2    1   15    7       -0.0000000111
    2    1   16    7       -0.0000001689
    2    1   17    7       -0.0000000024
    2    1   18    7        0.0191558969
    2    1   19    7        0.0004653605
    2    1    8    8        0.0000015769
    2    1    9    8       -0.0103814072
    2    1   10    8        0.0000040754
    2    1   11    8       -0.0000000001
    2    1   12    8        0.0037375767
    2    1   13    8        0.0000000001
    2    1   14    8       -0.0000000455
    2    1   15    8       -0.0000010170
    2    1   16    8       -0.0000000000
    2    1   17    8       -0.0000000069
    2    1   18    8        0.0000000314
    2    1   19    8       -0.0000000314
    2    1    9    9        0.0004685069
    2    1   10    9        0.0000005907
    2    1   11    9        0.0000000000
    2    1   12    9        0.0003904938
    2    1   13    9       -0.0000000030
    2    1   14    9        0.0000008771
    2    1   15    9       -0.0000000776
    2    1   16    9       -0.0000000000
    2    1   17    9       -0.0000000006
    2    1   18    9       -0.0000001055
    2    1   19    9       -0.0000002507
    2    1   10   10        0.0002725137
    2    1   11   10        0.0000000000
    2    1   12   10        0.0000006375
    2    1   13   10       -0.0000470599
    2    1   14   10        0.0136990121
    2    1   15   10        0.0000926017
    2    1   16   10       -0.0000000012
    2    1   17   10        0.0000001710
    2    1   18   10       -0.0000000084
    2    1   19   10       -0.0000000179
    2    1   11   11        0.0002725129
    2    1   12   11        0.0000000001
    2    1   13   11        0.0136990231
    2    1   14   11        0.0000470600
    2    1   15   11       -0.0000000012
    2    1   16   11       -0.0000926024
    2    1   17   11       -0.0000000000
    2    1   18   11       -0.0000057168
    2    1   19   11       -0.0000001892
    2    1   12   12        0.0005857878
    2    1   13   12        0.0000000768
    2    1   14   12       -0.0000222674
    2    1   15   12       -0.0000001934
    2    1   16   12        0.0000000001
    2    1   17   12       -0.0000000005
    2    1   18   12       -0.0000000064
    2    1   19   12        0.0000000085
    2    1   13   13        0.0000013582
    2    1   14   13       -0.0000000000
    2    1   15   13        0.0000252149
    2    1   16   13        0.0073117528
    2    1   17   13        0.0000000493
    2    1   18   13       -0.0000001279
    2    1   19   13        0.0000050644
    2    1   14   14        0.0000013583
    2    1   15   14       -0.0073117287
    2    1   16   14        0.0000252150
    2    1   17   14       -0.0000142694
    2    1   18   14       -0.0000000008
    2    1   19   14        0.0000000178
    2    1   15   15        0.0006905521
    2    1   16   15        0.0000000000
    2    1   17   15        0.0000006393
    2    1   18   15        0.0000000031
    2    1   19   15        0.0000000047
    2    1   16   16        0.0006905531
    2    1   17   16        0.0000000000
    2    1   18   16       -0.0000002864
    2    1   19   16       -0.0000000467
    2    1   17   17        0.0003392152
    2    1   18   17        0.0000000046
    2    1   19   17        0.0000000119
    2    1   18   18       -0.0000103257
    2    1   19   18        0.0020038761
    2    1   19   19        0.0005643429
    3    1    3    1        0.0052304850
    3    1    4    1       -0.0000038817
    3    1    5    1        0.0000000009
    3    1    6    1        0.0013468693
    3    1    7    1        0.0000000002
    3    1    8    1       -0.0000079505
    3    1    9    1        0.0056839118
    3    1   10    1       -0.0000049199
    3    1   11    1        0.0000000001
    3    1   12    1        0.0009989325
    3    1   13    1        0.0000000001
    3    1   14    1       -0.0000000261
    3    1   15    1       -0.0000013099
    3    1   16    1       -0.0000000000
    3    1   17    1        0.0000000019
    3    1   18    1       -0.0000000282
    3    1   19    1        0.0000000268
    3    1    2    2       -0.0306633099
    3    1    3    2        0.0000198187
    3    1    4    2        0.0000000200
    3    1    5    2       -0.0000000000
    3    1    6    2        0.0000186445
    3    1    7    2       -0.0000000001
    3    1    8    2       -0.0061581725
    3    1    9    2        0.0000150027
    3    1   10    2        0.0000000107
    3    1   11    2        0.0000000000
    3    1   12    2        0.0000123936
    3    1   13    2        0.0000000277
    3    1   14    2       -0.0000080131
    3    1   15    2        0.0000000134
    3    1   16    2       -0.0000000000
    3    1   17    2       -0.0000000000
    3    1   18    2       -0.0000000314
    3    1   19    2       -0.0000000745
    3    1    3    3       -0.0016303279
    3    1    4    3       -0.0000224539
    3    1    5    3        0.0000000051
    3    1    6    3       -0.0000400235
    3    1    7    3       -0.0000000000
    3    1    8    3       -0.0000227419
    3    1    9    3       -0.0019579854
    3    1   10    3        0.0000013553
    3    1   11    3       -0.0000000000
    3    1   12    3       -0.0001787331
    3    1   13    3        0.0000000002
    3    1   14    3       -0.0000000653
    3    1   15    3       -0.0000005768
    3    1   16    3       -0.0000000000
    3    1   17    3        0.0000000326
    3    1   18    3        0.0000000093
    3    1   19    3       -0.0000000090
    3    1    4    4       -0.0029875044
    3    1    5    4       -0.0000000000
    3    1    6    4        0.0000079793
    3    1    7    4        0.0000000030
    3    1    8    4        0.0000000496
    3    1    9    4       -0.0000057411
    3    1   10    4       -0.0032481583
    3    1   11    4       -0.0000006757
    3    1   12    4        0.0000026189
    3    1   13    4       -0.0000000880
    3    1   14    4        0.0000272825
    3    1   15    4       -0.0010068062
    3    1   16    4        0.0000002228
    3    1   17    4       -0.0000256113
    3    1   18    4       -0.0000000029
    3    1   19    4       -0.0000000018
    3    1    5    5       -0.0029875576
    3    1    6    5       -0.0000000018
    3    1    7    5        0.0000132552
    3    1    8    5       -0.0000000000
    3    1    9    5        0.0000000013
    3    1   10    5        0.0000006757
    3    1   11    5       -0.0032481306
    3    1   12    5       -0.0000000006
    3    1   13    5        0.0000272824
    3    1   14    5        0.0000000881
    3    1   15    5        0.0000002228
    3    1   16    5        0.0010069303
    3    1   17    5        0.0000000058
    3    1   18    5        0.0000000553
    3    1   19    5       -0.0000033683
    3    1    6    6       -0.0018591113
    3    1    7    6       -0.0000000000
    3    1    8    6       -0.0000055849
    3    1    9    6       -0.0001446141
    3    1   10    6        0.0000084588
    3    1   11    6       -0.0000000002
    3    1   12    6       -0.0018177391
    3    1   13    6        0.0000000002
    3    1   14    6       -0.0000000527
    3    1   15    6        0.0000241755
    3    1   16    6        0.0000000001
    3    1   17    6        0.0000000903
    3    1   18    6        0.0000000042
    3    1   19    6       -0.0000000039
    3    1    7    7       -0.0009754957
    3    1    8    7       -0.0000000004
    3    1    9    7       -0.0000000001
    3    1   10    7        0.0000000003
    3    1   11    7        0.0000190502
    3    1   12    7       -0.0000000018
    3    1   13    7        0.0000000040
    3    1   14    7       -0.0000000004
    3    1   15    7       -0.0000000001
    3    1   16    7        0.0000051759
    3    1   17    7       -0.0000000001
    3    1   18    7        0.0000238094
    3    1   19    7        0.0009269895
    3    1    8    8       -0.0021462230
    3    1    9    8        0.0000034770
    3    1   10    8       -0.0000000125
    3    1   11    8        0.0000000000
    3    1   12    8        0.0000049107
    3    1   13    8       -0.0000000811
    3    1   14    8        0.0000234903
    3    1   15    8       -0.0000000373
    3    1   16    8       -0.0000000000
    3    1   17    8       -0.0000000002
    3    1   18    8       -0.0000000108
    3    1   19    8       -0.0000000257
    3    1    9    9       -0.0023846534
    3    1   10    9       -0.0000169519
    3    1   11    9        0.0000000003
    3    1   12    9       -0.0001264632
    3    1   13    9        0.0000000000
    3    1   14    9       -0.0000000002
    3    1   15    9       -0.0000038037
    3    1   16    9       -0.0000000000
    3    1   17    9       -0.0000000126
    3    1   18    9        0.0000000124
    3    1   19    9       -0.0000000122
    3    1   10   10       -0.0042554597
    3    1   11   10        0.0000000000
    3    1   12   10        0.0000101314
    3    1   13   10        0.0000000135
    3    1   14   10       -0.0000039263
    3    1   15   10       -0.0009709264
    3    1   16   10        0.0000000129
    3    1   17   10        0.0000070516
    3    1   18   10       -0.0000000039
    3    1   19   10       -0.0000000016
    3    1   11   11       -0.0042555037
    3    1   12   11       -0.0000000001
    3    1   13   11       -0.0000039261
    3    1   14   11       -0.0000000135
    3    1   15   11        0.0000000129
    3    1   16   11        0.0009709032
    3    1   17   11       -0.0000000001
    3    1   18   11        0.0000000432
    3    1   19   11       -0.0000094656
    3    1   12   12       -0.0023649128
    3    1   13   12       -0.0000000000
    3    1   14   12        0.0000000089
    3    1   15   12       -0.0000045114
    3    1   16   12       -0.0000000000
    3    1   17   12       -0.0000000152
    3    1   18   12        0.0000000029
    3    1   19   12       -0.0000000021
    3    1   13   13       -0.0027888867
    3    1   14   13       -0.0000000002
    3    1   15   13        0.0000000501
    3    1   16   13        0.0000145214
    3    1   17   13        0.0000000003
    3    1   18   13        0.0000117004
    3    1   19   13        0.0000000509
    3    1   14   14       -0.0027888354
    3    1   15   14       -0.0000145210
    3    1   16   14        0.0000000501
    3    1   17   14       -0.0000000941
    3    1   18   14        0.0000000410
    3    1   19   14        0.0000000015
    3    1   15   15       -0.0013059626
    3    1   16   15        0.0000000000
    3    1   17   15       -0.0000070704
    3    1   18   15       -0.0000000012
    3    1   19   15       -0.0000000005
    3    1   16   16       -0.0013060370
    3    1   17   16       -0.0000000000
    3    1   18   16        0.0000000180
    3    1   19   16        0.0000083528
    3    1   17   17       -0.0018055516
    3    1   18   17       -0.0000000004
    3    1   19   17       -0.0000000008
    3    1   18   18       -0.0009558845
    3    1   19   18        0.0000117236
    3    1   19   19       -0.0010779921
    4    1    4    1        0.0058190301
    4    1    5    1        0.0000000000
    4    1    6    1       -0.0000017232
    4    1    7    1        0.0000000007
    4    1    8    1       -0.0000000122
    4    1    9    1        0.0000014276
    4    1   10    1        0.0065967609
    4    1   11    1        0.0000013723
    4    1   12    1        0.0000007798
    4    1   13    1       -0.0000000118
    4    1   14    1        0.0000036457
    4    1   15    1        0.0012178734
    4    1   16    1       -0.0000002695
    4    1   17    1        0.0000008988
    4    1   18    1        0.0000000055
    4    1   19    1        0.0000000016
    4    1    2    2       -0.0000077024
    4    1    3    2       -0.0000000015
    4    1    4    2        0.0000052424
    4    1    5    2        0.0000000000
    4    1    6    2        0.0000000544
    4    1    7    2        0.0000000000
    4    1    8    2        0.0000090917
    4    1    9    2        0.0000000551
    4    1   10    2        0.0000010464
    4    1   11    2        0.0000000002
    4    1   12    2        0.0000001320
    4    1   13    2       -0.0000189027
    4    1   14    2        0.0058572134
    4    1   15    2       -0.0000057410
    4    1   16    2        0.0000000013
    4    1   17    2       -0.0000000157
    4    1   18    2        0.0000000019
    4    1   19    2       -0.0000000022
    4    1    3    3       -0.0001892229
    4    1    4    3        0.0067324745
    4    1    5    3       -0.0000000000
    4    1    6    3        0.0000765742
    4    1    7    3        0.0000000393
    4    1    8    3        0.0000001084
    4    1    9    3        0.0000497959
    4    1   10    3        0.0003362397
    4    1   11    3        0.0000000700
    4    1   12    3        0.0000008409
    4    1   13    3       -0.0000000250
    4    1   14    3        0.0000077646
    4    1   15    3        0.0000741882
    4    1   16    3       -0.0000000164
    4    1   17    3       -0.0000066768
    4    1   18    3       -0.0000000009
    4    1   19    3       -0.0000000061
    4    1    4    4       -0.0000746478
    4    1    5    4        0.0000000134
    4    1    6    4       -0.0015411442
    4    1    7    4       -0.0000014261
    4    1    8    4       -0.0000081520
    4    1    9    4        0.0033872892
    4    1   10    4        0.0000729616
    4    1   11    4       -0.0000000056
    4    1   12    4       -0.0011176309
    4    1   13    4       -0.0000000001
    4    1   14    4        0.0000000544
    4    1   15    4       -0.0000964396
    4    1   16    4        0.0000000048
    4    1   17    4        0.0086422892
    4    1   18    4       -0.0000000125
    4    1   19    4        0.0000005241
    4    1    5    5       -0.0000655944
    4    1    6    5        0.0000000002
    4    1    7    5       -0.0031587293
    4    1    8    5       -0.0000000005
    4    1    9    5       -0.0000000000
    4    1   10    5       -0.0000000363
    4    1   11    5        0.0000676809
    4    1   12    5       -0.0000000023
    4    1   13    5        0.0000000760
    4    1   14    5       -0.0000000002
    4    1   15    5        0.0000000375
    4    1   16    5        0.0000574498
    4    1   17    5       -0.0000039017
    4    1   18    5       -0.0000069285
    4    1   19    5        0.0011316468
    4    1    6    6       -0.0001362609
    4    1    7    6       -0.0000000126
    4    1    8    6       -0.0000000583
    4    1    9    6        0.0000272617
    4    1   10    6       -0.0017873881
    4    1   11    6       -0.0000003714
    4    1   12    6        0.0001170052
    4    1   13    6       -0.0000000001
    4    1   14    6        0.0000000319
    4    1   15    6       -0.0073038076
    4    1   16    6        0.0000016165
    4    1   17    6       -0.0000314337
    4    1   18    6       -0.0000000069
    4    1   19    6        0.0000000297
    4    1    7    7       -0.0002518390
    4    1    8    7       -0.0000000001
    4    1    9    7        0.0000000121
    4    1   10    7       -0.0000012982
    4    1   11    7       -0.0053329040
    4    1   12    7       -0.0000000223
    4    1   13    7       -0.0000033628
    4    1   14    7       -0.0000000123
    4    1   15    7        0.0000004030
    4    1   16    7       -0.0017533103
    4    1   17    7        0.0000000030
    4    1   18    7       -0.0000003484
    4    1   19    7        0.0000576349
    4    1    8    8       -0.0002128899
    4    1    9    8       -0.0000001551
    4    1   10    8        0.0000034240
    4    1   11    8       -0.0000000004
    4    1   12    8       -0.0000001522
    4    1   13    8        0.0000224434
    4    1   14    8       -0.0069541833
    4    1   15    8        0.0000080095
    4    1   16    8       -0.0000000012
    4    1   17    8        0.0000000318
    4    1   18    8       -0.0000000446
    4    1   19    8       -0.0000000020
    4    1    9    9       -0.0002157665
    4    1   10    9        0.0048112448
    4    1   11    9        0.0000010007
    4    1   12    9        0.0000631074
    4    1   13    9       -0.0000000082
    4    1   14    9        0.0000025683
    4    1   15    9        0.0009389303
    4    1   16    9       -0.0000002079
    4    1   17    9        0.0000017369
    4    1   18    9        0.0000000007
    4    1   19    9       -0.0000000250
    4    1   10   10       -0.0001381350
    4    1   11   10        0.0000000263
    4    1   12   10       -0.0026037842
    4    1   13   10        0.0000000001
    4    1   14   10        0.0000001531
    4    1   15   10        0.0000443914
    4    1   16   10        0.0000000111
    4    1   17   10        0.0001939578
    4    1   18   10       -0.0000000122
    4    1   19   10        0.0000007050
    4    1   11   11       -0.0001301223
    4    1   12   11       -0.0000005472
    4    1   13   11        0.0000001194
    4    1   14   11       -0.0000000007
    4    1   15   11       -0.0000000121
    4    1   16   11       -0.0000454769
    4    1   17   11       -0.0000000477
    4    1   18   11       -0.0000138489
    4    1   19   11        0.0028508965
    4    1   12   12       -0.0002242342
    4    1   13   12       -0.0000000051
    4    1   14   12       -0.0000005006
    4    1   15   12       -0.0004767315
    4    1   16   12        0.0000001089
    4    1   17   12       -0.0000015176
    4    1   18   12       -0.0000000049
    4    1   19   12       -0.0000000111
    4    1   13   13       -0.0000579870
    4    1   14   13        0.0000000463
    4    1   15   13        0.0000000023
    4    1   16   13        0.0000000511
    4    1   17   13       -0.0000000379
    4    1   18   13       -0.0032434058
    4    1   19   13       -0.0000113647
    4    1   14   14       -0.0000674116
    4    1   15   14       -0.0000001144
    4    1   16   14        0.0000000009
    4    1   17   14        0.0000104017
    4    1   18   14       -0.0000119451
    4    1   19   14       -0.0000000742
    4    1   15   15       -0.0001127444
    4    1   16   15       -0.0000000227
    4    1   17   15        0.0024596143
    4    1   18   15       -0.0000000029
    4    1   19   15        0.0000004201
    4    1   16   16       -0.0000954920
    4    1   17   16        0.0000005664
    4    1   18   16        0.0000004876
    4    1   19   16       -0.0017892502
    4    1   17   17        0.0000048260
    4    1   18   17        0.0000000016
    4    1   19   17        0.0000000009
    4    1   18   18       -0.0002637803
    4    1   19   18       -0.0000000515
    4    1   19   19       -0.0002559587
    5    1    5    1        0.0058190383
    5    1    6    1        0.0000000004
    5    1    7    1        0.0000029035
    5    1    8    1        0.0000000000
    5    1    9    1       -0.0000000003
    5    1   10    1       -0.0000013723
    5    1   11    1        0.0065967731
    5    1   12    1       -0.0000000002
    5    1   13    1        0.0000036458
    5    1   14    1        0.0000000118
    5    1   15    1       -0.0000002695
    5    1   16    1       -0.0012178695
    5    1   17    1       -0.0000000002
    5    1   18    1        0.0000000334
    5    1   19    1       -0.0000018111
    5    1    2    2        0.0000000017
    5    1    3    2        0.0000000000
    5    1    4    2        0.0000000000
    5    1    5    2        0.0000052424
    5    1    6    2       -0.0000000000
    5    1    7    2        0.0000000407
    5    1    8    2       -0.0000000021
    5    1    9    2       -0.0000000000
    5    1   10    2       -0.0000000002
    5    1   11    2        0.0000010463
    5    1   12    2        0.0000000001
    5    1   13    2        0.0058572272
    5    1   14    2        0.0000189028
    5    1   15    2        0.0000000013
    5    1   16    2        0.0000057413
    5    1   17    2        0.0000000000
    5    1   18    2        0.0000129040
    5    1   19    2        0.0000000382
    5    1    3    3        0.0000000427
    5    1    4    3       -0.0000000000
    5    1    5    3        0.0067324285
    5    1    6    3       -0.0000000173
    5    1    7    3        0.0001739943
    5    1    8    3       -0.0000000000
    5    1    9    3       -0.0000000112
    5    1   10    3       -0.0000000699
    5    1   11    3        0.0003364018
    5    1   12    3       -0.0000000001
    5    1   13    3        0.0000077644
    5    1   14    3        0.0000000251
    5    1   15    3       -0.0000000164
    5    1   16    3       -0.0000740745
    5    1   17    3        0.0000000015
    5    1   18    3        0.0000003144
    5    1   19    3       -0.0000269063
    5    1    4    4        0.0000000395
    5    1    5    4        0.0000502568
    5    1    6    4        0.0000000002
    5    1    7    4       -0.0031587745
    5    1    8    4       -0.0000000005
    5    1    9    4       -0.0000000000
    5    1   10    4       -0.0000000390
    5    1   11    4       -0.0000865701
    5    1   12    4       -0.0000000023
    5    1   13    4        0.0000000784
    5    1   14    4       -0.0000000002
    5    1   15    4        0.0000000379
    5    1   16    4       -0.0000342599
    5    1   17    4       -0.0000039017
    5    1   18    4       -0.0000069281
    5    1   19    4        0.0011318910
    5    1    5    5       -0.0000000079
    5    1    6    5       -0.0015411364
    5    1    7    5        0.0000014260
    5    1    8    5       -0.0000081520
    5    1    9    5        0.0033873714
    5    1   10    5       -0.0000926500
    5    1   11    5        0.0000000059
    5    1   12    5       -0.0011178520
    5    1   13    5       -0.0000000003
    5    1   14    5        0.0000000807
    5    1   15    5        0.0000712929
    5    1   16    5       -0.0000000049
    5    1   17    5       -0.0086423706
    5    1   18    5       -0.0000000094
    5    1   19    5       -0.0000005030
    5    1    6    6        0.0000000308
    5    1    7    6       -0.0000559118
    5    1    8    6       -0.0000000000
    5    1    9    6       -0.0000000062
    5    1   10    6        0.0000003722
    5    1   11    6       -0.0017873136
    5    1   12    6       -0.0000000266
    5    1   13    6        0.0000000337
    5    1   14    6        0.0000000001
    5    1   15    6        0.0000016162
    5    1   16    6        0.0073040652
    5    1   17    6        0.0000000071
    5    1   18    6       -0.0000005876
    5    1   19    6        0.0001390208
    5    1    7    7        0.0000000568
    5    1    8    7       -0.0000002069
    5    1    9    7        0.0000536585
    5    1   10    7       -0.0053327462
    5    1   11    7        0.0000012981
    5    1   12    7       -0.0000986503
    5    1   13    7        0.0000000124
    5    1   14    7       -0.0000033623
    5    1   15    7        0.0017531063
    5    1   16    7        0.0000004039
    5    1   17    7        0.0000131810
    5    1   18    7       -0.0000000003
    5    1   19    7       -0.0000000142
    5    1    8    8        0.0000000481
    5    1    9    8        0.0000000001
    5    1   10    8       -0.0000000018
    5    1   11    8        0.0000034237
    5    1   12    8       -0.0000000004
    5    1   13    8       -0.0069541333
    5    1   14    8       -0.0000224423
    5    1   15    8       -0.0000000022
    5    1   16    8       -0.0000080127
    5    1   17    8        0.0000000000
    5    1   18    8       -0.0001929987
    5    1   19    8       -0.0000007225
    5    1    9    9        0.0000000487
    5    1   10    9       -0.0000010009
    5    1   11    9        0.0048110582
    5    1   12    9       -0.0000000141
    5    1   13    9        0.0000025688
    5    1   14    9        0.0000000084
    5    1   15    9       -0.0000002076
    5    1   16    9       -0.0009389872
    5    1   17    9       -0.0000000004
    5    1   18    9        0.0000003934
    5    1   19    9       -0.0001137295
    5    1   10   10        0.0000000349
    5    1   11   10        0.0001169327
    5    1   12   10        0.0000005361
    5    1   13   10       -0.0000001166
    5    1   14   10       -0.0000000009
    5    1   15   10       -0.0000000116
    5    1   16   10        0.0000513366
    5    1   17   10       -0.0000000477
    5    1   18   10       -0.0000138501
    5    1   19   10        0.0028507969
    5    1   11   11        0.0000000252
    5    1   12   11       -0.0026037542
    5    1   13   11        0.0000000003
    5    1   14   11       -0.0000000938
    5    1   15   11       -0.0000495436
    5    1   16   11        0.0000000091
    5    1   17   11       -0.0001939583
    5    1   18   11       -0.0000000068
    5    1   19   11       -0.0000006862
    5    1   12   12        0.0000000508
    5    1   13   12       -0.0000005015
    5    1   14   12       -0.0000000083
    5    1   15   12        0.0000001021
    5    1   16   12        0.0004767121
    5    1   17   12        0.0000000004
    5    1   18   12       -0.0000000783
    5    1   19   12       -0.0000430116
    5    1   13   13       -0.0000003886
    5    1   14   13        0.0000581627
    5    1   15   13        0.0000000610
    5    1   16   13        0.0000000003
    5    1   17   13       -0.0000104021
    5    1   18   13        0.0000119148
    5    1   19   13        0.0000000010
    5    1   14   14        0.0000004182
    5    1   15   14        0.0000000014
    5    1   16   14       -0.0000000867
    5    1   17   14       -0.0000000379
    5    1   18   14       -0.0032434569
    5    1   19   14       -0.0000113643
    5    1   15   15        0.0000000259
    5    1   16   15       -0.0001011251
    5    1   17   15       -0.0000005664
    5    1   18   15       -0.0000004888
    5    1   19   15        0.0017892806
    5    1   16   16        0.0000000207
    5    1   17   16        0.0024596329
    5    1   18   16        0.0000000060
    5    1   19   16        0.0000004109
    5    1   17   17       -0.0000000011
    5    1   18   17       -0.0000000358
    5    1   19   17        0.0000021746
    5    1   18   18        0.0000000621
    5    1   19   18        0.0000000097
    5    1   19   19        0.0000000611
    6    1    6    1        0.0031520015
    6    1    7    1        0.0000000001
    6    1    8    1       -0.0000071852
    6    1    9    1        0.0015906146
    6    1   10    1       -0.0000059080
    6    1   11    1        0.0000000001
    6    1   12    1        0.0035456564
    6    1   13    1        0.0000000001
    6    1   14    1       -0.0000000542
    6    1   15    1       -0.0000020814
    6    1   16    1       -0.0000000000
    6    1   17    1       -0.0000000084
    6    1   18    1       -0.0000000140
    6    1   19    1        0.0000000125
    6    1    2    2       -0.0020014503
    6    1    3    2        0.0000159493
    6    1    4    2        0.0000000397
    6    1    5    2       -0.0000000000
    6    1    6    2        0.0000259271
    6    1    7    2       -0.0000000000
    6    1    8    2       -0.0006471361
    6    1    9    2        0.0000172876
    6    1   10    2        0.0000000239
    6    1   11    2        0.0000000000
    6    1   12    2        0.0000225389
    6    1   13    2        0.0000000320
    6    1   14    2       -0.0000092766
    6    1   15    2        0.0000000149
    6    1   16    2       -0.0000000000
    6    1   17    2        0.0000000000
    6    1   18    2       -0.0000000075
    6    1   19    2       -0.0000000171
    6    1    3    3       -0.0008394537
    6    1    4    3        0.0000042294
    6    1    5    3       -0.0000000010
    6    1    6    3        0.0029188269
    6    1    7    3        0.0000000001
    6    1    8    3       -0.0000475792
    6    1    9    3       -0.0005722602
    6    1   10    3       -0.0000000101
    6    1   11    3        0.0000000000
    6    1   12    3        0.0006000253
    6    1   13    3        0.0000000003
    6    1   14    3       -0.0000000749
    6    1   15    3        0.0000035007
    6    1   16    3        0.0000000000
    6    1   17    3       -0.0000000087
    6    1   18    3        0.0000000012
    6    1   19    3       -0.0000000014
    6    1    4    4       -0.0017730287
    6    1    5    4        0.0000000000
    6    1    6    4        0.0000035060
    6    1    7    4        0.0000000003
    6    1    8    4        0.0000000269
    6    1    9    4        0.0000024895
    6    1   10    4       -0.0018823884
    6    1   11    4       -0.0000003915
    6    1   12    4        0.0000099365
    6    1   13    4       -0.0000001793
    6    1   14    4        0.0000555536
    6    1   15    4       -0.0039621009
    6    1   16    4        0.0000008768
    6    1   17    4       -0.0000135667
    6    1   18    4       -0.0000000045
    6    1   19    4       -0.0000000007
    6    1    5    5       -0.0017730021
    6    1    6    5       -0.0000000008
    6    1    7    5        0.0000012147
    6    1    8    5       -0.0000000000
    6    1    9    5       -0.0000000006
    6    1   10    5        0.0000003917
    6    1   11    5       -0.0018824191
    6    1   12    5       -0.0000000022
    6    1   13    5        0.0000555539
    6    1   14    5        0.0000001793
    6    1   15    5        0.0000008768
    6    1   16    5        0.0039621245
    6    1   17    5        0.0000000031
    6    1   18    5        0.0000000147
    6    1   19    5        0.0000024222
    6    1    6    6        0.0005815454
    6    1    7    6        0.0000000002
    6    1    8    6       -0.0000148296
    6    1    9    6        0.0026805258
    6    1   10    6        0.0000095904
    6    1   11    6       -0.0000000002
    6    1   12    6        0.0021829326
    6    1   13    6        0.0000000006
    6    1   14    6       -0.0000001787
    6    1   15    6        0.0000137940
    6    1   16    6        0.0000000001
    6    1   17    6        0.0000000476
    6    1   18    6       -0.0000000126
    6    1   19    6        0.0000000114
    6    1    7    7       -0.0016065339
    6    1    8    7       -0.0000000010
    6    1    9    7        0.0000000001
    6    1   10    7       -0.0000000002
    6    1   11    7        0.0000038279
    6    1   12    7       -0.0000000055
    6    1   13    7       -0.0000000202
    6    1   14    7       -0.0000000013
    6    1   15    7       -0.0000000004
    6    1   16    7       -0.0000014987
    6    1   17    7       -0.0000000005
    6    1   18    7        0.0000404276
    6    1   19    7        0.0030405450
    6    1    8    8       -0.0014460292
    6    1    9    8       -0.0000008299
    6    1   10    8       -0.0000000059
    6    1   11    8        0.0000000000
    6    1   12    8        0.0000053399
    6    1   13    8       -0.0000000104
    6    1   14    8        0.0000030045
    6    1   15    8       -0.0000000323
    6    1   16    8       -0.0000000000
    6    1   17    8       -0.0000000001
    6    1   18    8        0.0000000009
    6    1   19    8        0.0000000023
    6    1    9    9       -0.0008873161
    6    1   10    9        0.0000019261
    6    1   11    9       -0.0000000000
    6    1   12    9        0.0024514947
    6    1   13    9        0.0000000001
    6    1   14    9       -0.0000000265
    6    1   15    9        0.0000001912
    6    1   16    9       -0.0000000000
    6    1   17    9        0.0000000008
    6    1   18    9       -0.0000000015
    6    1   19    9        0.0000000008
    6    1   10   10       -0.0031642117
    6    1   11   10        0.0000000001
    6    1   12   10        0.0000069311
    6    1   13   10        0.0000000037
    6    1   14   10       -0.0000010695
    6    1   15   10       -0.0013251000
    6    1   16   10        0.0000000176
    6    1   17   10       -0.0000068448
    6    1   18   10       -0.0000000044
    6    1   19   10       -0.0000000015
    6    1   11   11       -0.0031642124
    6    1   12   11       -0.0000000001
    6    1   13   11       -0.0000010694
    6    1   14   11       -0.0000000037
    6    1   15   11        0.0000000176
    6    1   16   11        0.0013251160
    6    1   17   11        0.0000000001
    6    1   18   11        0.0000000086
    6    1   19   11       -0.0000019640
    6    1   12   12        0.0007556366
    6    1   13   12        0.0000000000
    6    1   14   12       -0.0000000105
    6    1   15   12        0.0000071619
    6    1   16   12        0.0000000000
    6    1   17   12        0.0000000106
    6    1   18   12       -0.0000000199
    6    1   19   12        0.0000000207
    6    1   13   13       -0.0008621928
    6    1   14   13        0.0000000001
    6    1   15   13        0.0000001000
    6    1   16   13        0.0000290101
    6    1   17   13        0.0000000004
    6    1   18   13        0.0000016146
    6    1   19   13        0.0000000106
    6    1   14   14       -0.0008622205
    6    1   15   14       -0.0000290099
    6    1   16   14        0.0000001000
    6    1   17   14       -0.0000001215
    6    1   18   14        0.0000000054
    6    1   19   14       -0.0000000000
    6    1   15   15       -0.0006478761
    6    1   16   15        0.0000000000
    6    1   17   15        0.0000033086
    6    1   18   15        0.0000000014
    6    1   19   15        0.0000000005
    6    1   16   16       -0.0006478326
    6    1   17   16        0.0000000000
    6    1   18   16        0.0000000236
    6    1   19   16        0.0000010845
    6    1   17   17       -0.0015926763
    6    1   18   17       -0.0000000007
    6    1   19   17       -0.0000000017
    6    1   18   18       -0.0013964316
    6    1   19   18        0.0000217429
    6    1   19   19       -0.0021096108
    7    1    7    1        0.0005567161
    7    1    8    1        0.0000000003
    7    1    9    1        0.0000000002
    7    1   10    1        0.0000000000
    7    1   11    1        0.0000010434
    7    1   12    1        0.0000000010
    7    1   13    1        0.0000000135
    7    1   14    1        0.0000000002
    7    1   15    1        0.0000000000
    7    1   16    1       -0.0000003054
    7    1   17    1        0.0000000001
    7    1   18    1        0.0000017585
    7    1   19    1       -0.0004019718
    7    1    2    2       -0.0000000006
    7    1    3    2       -0.0000000001
    7    1    4    2        0.0000000000
    7    1    5    2        0.0000000242
    7    1    6    2       -0.0000000000
    7    1    7    2        0.0000011004
    7    1    8    2       -0.0000000003
    7    1    9    2       -0.0000000001
    7    1   10    2       -0.0000000001
    7    1   11    2        0.0000000104
    7    1   12    2        0.0000000013
    7    1   13    2        0.0000030718
    7    1   14    2        0.0000000105
    7    1   15    2       -0.0000000004
    7    1   16    2        0.0000000218
    7    1   17    2       -0.0000000001
    7    1   18    2        0.0006149650
    7    1   19    2        0.0000025971
    7    1    3    3       -0.0000000001
    7    1    4    3        0.0000000050
    7    1    5    3        0.0000223647
    7    1    6    3        0.0000000000
    7    1    7    3        0.0018987297
    7    1    8    3        0.0000000002
    7    1    9    3       -0.0000000000
    7    1   10    3        0.0000000000
    7    1   11    3        0.0000000303
    7    1   12    3        0.0000000009
    7    1   13    3        0.0000000624
    7    1   14    3        0.0000000004
    7    1   15    3        0.0000000000
    7    1   16    3       -0.0000000895
    7    1   17    3        0.0000000001
    7    1   18    3        0.0000050373
    7    1   19    3       -0.0004123732
    7    1    4    4       -0.0000002883
    7    1    5    4       -0.0006383606
    7    1    6    4       -0.0000000009
    7    1    7    4       -0.0000120551
    7    1    8    4       -0.0000000000
    7    1    9    4        0.0000000013
    7    1   10    4       -0.0000004055
    7    1   11    4       -0.0016652876
    7    1   12    4       -0.0000000004
    7    1   13    4       -0.0000006822
    7    1   14    4       -0.0000000025
    7    1   15    4        0.0000001248
    7    1   16    4       -0.0005429774
    7    1   17    4       -0.0000000040
    7    1   18    4       -0.0000000460
    7    1   19    4        0.0000063651
    7    1    5    5        0.0000002881
    7    1    6    5       -0.0000039495
    7    1    7    5        0.0000000027
    7    1    8    5       -0.0000000650
    7    1    9    5        0.0000058684
    7    1   10    5       -0.0016653011
    7    1   11    5        0.0000004053
    7    1   12    5       -0.0000015422
    7    1   13    5        0.0000000025
    7    1   14    5       -0.0000006823
    7    1   15    5        0.0005430597
    7    1   16    5        0.0000001252
    7    1   17    5       -0.0000177383
    7    1   18    5       -0.0000000005
    7    1   19    5       -0.0000000017
    7    1    6    6        0.0000000001
    7    1    7    6       -0.0005070989
    7    1    8    6       -0.0000000006
    7    1    9    6        0.0000000001
    7    1   10    6       -0.0000000001
    7    1   11    6        0.0000000331
    7    1   12    6       -0.0000000032
    7    1   13    6        0.0000000146
    7    1   14    6       -0.0000000006
    7    1   15    6       -0.0000000003
    7    1   16    6        0.0000193405
    7    1   17    6       -0.0000000003
    7    1   18    6       -0.0000043215
    7    1   19    6        0.0017524616
    7    1    7    7       -0.0000000002
    7    1    8    7       -0.0000034869
    7    1    9    7        0.0014516858
    7    1   10    7       -0.0000137170
    7    1   11    7        0.0000000002
    7    1   12    7       -0.0013177887
    7    1   13    7        0.0000000001
    7    1   14    7       -0.0000000234
    7    1   15    7        0.0000045836
    7    1   16    7        0.0000000000
    7    1   17    7        0.0000000389
    7    1   18    7        0.0000000022
    7    1   19    7       -0.0000000019
    7    1    8    8        0.0000000005
    7    1    9    8        0.0000000005
    7    1   10    8        0.0000000004
    7    1   11    8        0.0000000155
    7    1   12    8       -0.0000000044
    7    1   13    8       -0.0000209314
    7    1   14    8       -0.0000000719
    7    1   15    8        0.0000000012
    7    1   16    8       -0.0000000668
    7    1   17    8        0.0000000003
    7    1   18    8       -0.0020299302
    7    1   19    8       -0.0000092764
    7    1    9    9       -0.0000000001
    7    1   10    9        0.0000000004
    7    1   11    9        0.0000150849
    7    1   12    9        0.0000000025
    7    1   13    9        0.0000000005
    7    1   14    9        0.0000000005
    7    1   15    9        0.0000000002
    7    1   16    9       -0.0000040550
    7    1   17    9        0.0000000002
    7    1   18    9        0.0000052381
    7    1   19    9       -0.0012335097
    7    1   10   10       -0.0000000339
    7    1   11   10       -0.0009508607
    7    1   12   10       -0.0000000001
    7    1   13   10       -0.0000022696
    7    1   14   10       -0.0000000079
    7    1   15   10       -0.0000000080
    7    1   16   10        0.0003575777
    7    1   17   10        0.0000000002
    7    1   18   10       -0.0000000642
    7    1   19   10        0.0000070035
    7    1   11   11        0.0000000335
    7    1   12   11       -0.0000047761
    7    1   13   11        0.0000000079
    7    1   14   11       -0.0000022696
    7    1   15   11       -0.0003576119
    7    1   16   11       -0.0000000078
    7    1   17   11        0.0000104476
    7    1   18   11       -0.0000000012
    7    1   19   11       -0.0000000005
    7    1   12   12       -0.0000000020
    7    1   13   12       -0.0000000133
    7    1   14   12       -0.0000000003
    7    1   15   12       -0.0000000000
    7    1   16   12       -0.0000076567
    7    1   17   12       -0.0000000001
    7    1   18   12       -0.0000041159
    7    1   19   12        0.0005169543
    7    1   13   13        0.0000044207
    7    1   14   13       -0.0006401261
    7    1   15   13        0.0000018261
    7    1   16   13        0.0000000063
    7    1   17   13       -0.0000000595
    7    1   18   13        0.0000000409
    7    1   19   13        0.0000000014
    7    1   14   14       -0.0000044208
    7    1   15   14        0.0000000063
    7    1   16   14       -0.0000018261
    7    1   17   14       -0.0000000002
    7    1   18   14       -0.0000116721
    7    1   19   14       -0.0000000544
    7    1   15   15       -0.0000000001
    7    1   16   15        0.0000029644
    7    1   17   15       -0.0000000000
    7    1   18   15        0.0000000122
    7    1   19   15        0.0000085913
    7    1   16   16       -0.0000000000
    7    1   17   16        0.0000071361
    7    1   18   16        0.0000000013
    7    1   19   16        0.0000000005
    7    1   17   17       -0.0000000001
    7    1   18   17       -0.0000000001
    7    1   19   17        0.0000000152
    7    1   18   18       -0.0000000151
    7    1   19   18       -0.0000000111
    7    1   19   19       -0.0000000138
    8    1    8    1        0.0059232769
    8    1    9    1       -0.0000029359
    8    1   10    1       -0.0000000105
    8    1   11    1       -0.0000000000
    8    1   12    1       -0.0000039737
    8    1   13    1       -0.0000000064
    8    1   14    1        0.0000018414
    8    1   15    1       -0.0000000111
    8    1   16    1        0.0000000000
    8    1   17    1        0.0000000000
    8    1   18    1        0.0000000301
    8    1   19    1        0.0000000718
    8    1    2    2       -0.0000039770
    8    1    3    2       -0.0043505340
    8    1    4    2        0.0000049407
    8    1    5    2       -0.0000000011
    8    1    6    2        0.0012346948
    8    1    7    2       -0.0000000001
    8    1    8    2       -0.0000012509
    8    1    9    2       -0.0046230237
    8    1   10    2        0.0000041612
    8    1   11    2       -0.0000000001
    8    1   12    2        0.0022805417
    8    1   13    2        0.0000000001
    8    1   14    2       -0.0000000236
    8    1   15    2       -0.0000010984
    8    1   16    2       -0.0000000000
    8    1   17    2       -0.0000000067
    8    1   18    2        0.0000000174
    8    1   19    2       -0.0000000174
    8    1    3    3        0.0000027389
    8    1    4    3        0.0000001307
    8    1    5    3       -0.0000000000
    8    1    6    3        0.0000053029
    8    1    7    3        0.0000000003
    8    1    8    3       -0.0007353621
    8    1    9    3        0.0000105854
    8    1   10    3       -0.0000000621
    8    1   11    3        0.0000000000
    8    1   12    3        0.0000093507
    8    1   13    3       -0.0000000286
    8    1   14    3        0.0000082807
    8    1   15    3       -0.0000001745
    8    1   16    3       -0.0000000000
    8    1   17    3       -0.0000000005
    8    1   18    3       -0.0000000077
    8    1   19    3       -0.0000000182
    8    1    4    4        0.0000015876
    8    1    5    4       -0.0000000001
    8    1    6    4        0.0000001545
    8    1    7    4       -0.0000000000
    8    1    8    4       -0.0000087900
    8    1    9    4       -0.0000000205
    8    1   10    4        0.0000033633
    8    1   11    4        0.0000000003
    8    1   12    4        0.0000000171
    8    1   13    4       -0.0000033131
    8    1   14    4        0.0010266175
    8    1   15    4       -0.0000028197
    8    1   16    4        0.0000000006
    8    1   17    4        0.0000000972
    8    1   18    4       -0.0000000018
    8    1   19    4       -0.0000000011
    8    1    5    5        0.0000015870
    8    1    6    5       -0.0000000000
    8    1    7    5       -0.0000000506
    8    1    8    5        0.0000000020
    8    1    9    5        0.0000000000
    8    1   10    5       -0.0000000011
    8    1   11    5        0.0000033631
    8    1   12    5       -0.0000000000
    8    1   13    5        0.0010266342
    8    1   14    5        0.0000033133
    8    1   15    5        0.0000000007
    8    1   16    5        0.0000028192
    8    1   17    5       -0.0000000000
    8    1   18    5       -0.0000057010
    8    1   19    5       -0.0000000958
    8    1    6    6        0.0000141468
    8    1    7    6       -0.0000000003
    8    1    8    6       -0.0001795627
    8    1    9    6        0.0000125983
    8    1   10    6       -0.0000000166
    8    1   11    6        0.0000000000
    8    1   12    6        0.0000169921
    8    1   13    6        0.0000000073
    8    1   14    6       -0.0000021191
    8    1   15    6       -0.0000001778
    8    1   16    6        0.0000000000
    8    1   17    6       -0.0000000007
    8    1   18    6       -0.0000000017
    8    1   19    6       -0.0000000033
    8    1    7    7       -0.0000016877
    8    1    8    7        0.0000000002
    8    1    9    7        0.0000000004
    8    1   10    7        0.0000000001
    8    1   11    7       -0.0000000331
    8    1   12    7       -0.0000000010
    8    1   13    7       -0.0000062103
    8    1   14    7       -0.0000000214
    8    1   15    7        0.0000000002
    8    1   16    7       -0.0000001111
    8    1   17    7        0.0000000000
    8    1   18    7       -0.0003540989
    8    1   19    7       -0.0000049189
    8    1    8    8        0.0000000761
    8    1    9    8       -0.0015155980
    8    1   10    8        0.0000005446
    8    1   11    8       -0.0000000000
    8    1   12    8        0.0001330429
    8    1   13    8       -0.0000000000
    8    1   14    8        0.0000000021
    8    1   15    8        0.0000012161
    8    1   16    8        0.0000000000
    8    1   17    8        0.0000000167
    8    1   18    8        0.0000000068
    8    1   19    8       -0.0000000070
    8    1    9    9        0.0000015371
    8    1   10    9        0.0000001244
    8    1   11    9        0.0000000000
    8    1   12    9        0.0000084181
    8    1   13    9       -0.0000000031
    8    1   14    9        0.0000008884
    8    1   15    9        0.0000000254
    8    1   16    9       -0.0000000000
    8    1   17    9        0.0000000002
    8    1   18    9       -0.0000000078
    8    1   19    9       -0.0000000185
    8    1   10   10       -0.0000038678
    8    1   11   10       -0.0000000004
    8    1   12   10        0.0000000959
    8    1   13   10       -0.0000058991
    8    1   14   10        0.0017172614
    8    1   15   10       -0.0000034570
    8    1   16   10        0.0000000003
    8    1   17   10       -0.0000001237
    8    1   18   10       -0.0000000003
    8    1   19   10       -0.0000000005
    8    1   11   11       -0.0000038676
    8    1   12   11        0.0000000000
    8    1   13   11        0.0017172494
    8    1   14   11        0.0000058994
    8    1   15   11       -0.0000000002
    8    1   16   11        0.0000034569
    8    1   17   11        0.0000000000
    8    1   18   11       -0.0000056107
    8    1   19   11       -0.0000000766
    8    1   12   12        0.0000150144
    8    1   13   12        0.0000000132
    8    1   14   12       -0.0000038247
    8    1   15   12        0.0000000294
    8    1   16   12       -0.0000000000
    8    1   17   12        0.0000000004
    8    1   18   12       -0.0000000021
    8    1   19   12       -0.0000000050
    8    1   13   13        0.0000003646
    8    1   14   13       -0.0000000001
    8    1   15   13        0.0000010057
    8    1   16   13        0.0002916277
    8    1   17   13       -0.0000000268
    8    1   18   13       -0.0000000042
    8    1   19   13        0.0000004592
    8    1   14   14        0.0000003646
    8    1   15   14       -0.0002916445
    8    1   16   14        0.0000010058
[...]
   16   13   16   16        0.0004064571
   16   13   17   16       -0.0000000013
   16   13   18   16        0.0000042583
   16   13   19   16       -0.0000000464
   16   13   17   17        0.0001852077
   16   13   18   17        0.0000022257
   16   13   19   17        0.0000000332
   16   13   18   18       -0.0000187092
   16   13   19   18        0.0032493570
   16   13   19   19        0.0003106328
   17   13   17   13        0.0159575631
   17   13   18   13        0.0000000119
   17   13   19   13       -0.0000000092
   17   13   14   14       -0.0000000004
   17   13   15   14       -0.0000000394
   17   13   16   14        0.0000471485
   17   13   17   14       -0.0000000001
   17   13   18   14       -0.0000008212
   17   13   19   14        0.0002794790
   17   13   15   15        0.0000000064
   17   13   16   15        0.0000001117
   17   13   17   15        0.0000006592
   17   13   18   15       -0.0039287572
   17   13   19   15       -0.0001215041
   17   13   16   16        0.0000000042
   17   13   17   16        0.0001909225
   17   13   18   16        0.0000135686
   17   13   19   16        0.0000004670
   17   13   17   17        0.0000000035
   17   13   18   17       -0.0000122280
   17   13   19   17       -0.0000004264
   17   13   18   18       -0.0000000079
   17   13   19   18        0.0000001784
   17   13   19   19        0.0000000337
   18   13   18   13        0.0088851113
   18   13   19   13        0.0000225210
   18   13   14   14       -0.0000705475
   18   13   15   14        0.0000000222
   18   13   16   14       -0.0000000032
   18   13   17   14        0.0000008183
   18   13   18   14        0.0000000497
   18   13   19   14        0.0000000479
   18   13   15   15        0.0000176082
   18   13   16   15       -0.0000004688
   18   13   17   15       -0.0020673289
   18   13   18   15       -0.0000000593
   18   13   19   15        0.0000181713
   18   13   16   16        0.0002576639
   18   13   17   16        0.0000071288
   18   13   18   16       -0.0000192891
   18   13   19   16        0.0052786530
   18   13   17   17       -0.0000103697
   18   13   18   17       -0.0000000011
   18   13   19   17        0.0000000182
   18   13   18   18        0.0004971432
   18   13   19   18       -0.0000000302
   18   13   19   19        0.0004229782
   19   13   19   13        0.0013023234
   19   13   14   14       -0.0000001980
   19   13   15   14        0.0000088504
   19   13   16   14        0.0000000532
   19   13   17   14       -0.0002793941
   19   13   18   14        0.0000000537
   19   13   19   14        0.0000000023
   19   13   15   15       -0.0000004367
   19   13   16   15       -0.0000000021
   19   13   17   15        0.0000049528
   19   13   18   15        0.0000044040
   19   13   19   15        0.0000001924
   19   13   16   16        0.0000013319
   19   13   17   16       -0.0000000152
   19   13   18   16        0.0012780403
   19   13   19   16        0.0000681338
   19   13   17   17       -0.0000000739
   19   13   18   17        0.0000000146
   19   13   19   17        0.0000000012
   19   13   18   18        0.0000012201
   19   13   19   18        0.0000354495
   19   13   19   19        0.0000036534
   14   14   14   14        0.1553388096
   14   14   15   14       -0.0000003763
   14   14   16   14        0.0000000023
   14   14   17   14        0.0000000033
   14   14   18   14       -0.0000008891
   14   14   19   14       -0.0000000001
   14   14   15   15        0.1380790855
   14   14   16   15       -0.0000073933
   14   14   17   15       -0.0000624381
   14   14   18   15        0.0000000085
   14   14   19   15        0.0000004322
   14   14   16   16        0.1193377320
   14   14   17   16        0.0000004399
   14   14   18   16        0.0000004264
   14   14   19   16       -0.0000838104
   14   14   17   17        0.1361587735
   14   14   18   17       -0.0000000111
   14   14   19   17        0.0000000199
   14   14   18   18        0.1298204207
   14   14   19   18        0.0000200480
   14   14   19   19        0.1229496383
   15   14   15   14        0.0071407734
   15   14   16   14       -0.0000155512
   15   14   17   14       -0.0000649722
   15   14   18   14        0.0000000030
   15   14   19   14        0.0000000397
   15   14   15   15       -0.0004064495
   15   14   16   15        0.0000001202
   15   14   17   15        0.0000003645
   15   14   18   15        0.0000000953
   15   14   19   15        0.0000000048
   15   14   16   16       -0.0002947214
   15   14   17   16       -0.0000000012
   15   14   18   16        0.0000321990
   15   14   19   16        0.0000008895
   15   14   17   17       -0.0001852068
   15   14   18   17       -0.0000022182
   15   14   19   17       -0.0000000161
   15   14   18   18        0.0000187187
   15   14   19   18       -0.0032492600
   15   14   19   19       -0.0003106055
   16   14   16   14        0.0015314061
   16   14   17   14        0.0000003085
   16   14   18   14        0.0000001162
   16   14   19   14       -0.0000016129
   16   14   15   15        0.0000010162
   16   14   16   15       -0.0000349235
   16   14   17   15       -0.0000000007
   16   14   18   15       -0.0000027545
   16   14   19   15       -0.0000005838
   16   14   16   16        0.0000014018
   16   14   17   16        0.0000003713
   16   14   18   16        0.0000000144
   16   14   19   16       -0.0000000024
   16   14   17   17        0.0000006389
   16   14   18   17       -0.0006441825
   16   14   19   17       -0.0000065065
   16   14   18   18       -0.0000000807
   16   14   19   18        0.0000112155
   16   14   19   19        0.0000010849
   17   14   17   14        0.0159575881
   17   14   18   14       -0.0000000106
   17   14   19   14        0.0000000128
   17   14   15   15       -0.0000005493
   17   14   16   15        0.0000000027
   17   14   17   15       -0.0001909227
   17   14   18   15       -0.0000135285
   17   14   19   15       -0.0000003702
   17   14   16   16       -0.0000012297
   17   14   17   16        0.0000006592
   17   14   18   16       -0.0039287972
   17   14   19   16       -0.0001215061
   17   14   17   17       -0.0000010128
   17   14   18   17       -0.0000000385
   17   14   19   17        0.0000000065
   17   14   18   18        0.0000003820
   17   14   19   18       -0.0000516436
   17   14   19   19       -0.0000099664
   18   14   18   14        0.0088832216
   18   14   19   14        0.0000225153
   18   14   15   15        0.0000000606
   18   14   16   15        0.0001353021
   18   14   17   15       -0.0000071258
   18   14   18   15        0.0000192860
   18   14   19   15       -0.0052767671
   18   14   16   16        0.0000008867
   18   14   17   16       -0.0020671043
   18   14   18   16       -0.0000000771
   18   14   19   16        0.0000182231
   18   14   17   17       -0.0000000374
   18   14   18   17        0.0000000611
   18   14   19   17       -0.0000053216
   18   14   18   18        0.0000017148
   18   14   19   18       -0.0000000119
   18   14   19   19        0.0000014556
   19   14   19   14        0.0013022841
   19   14   15   15       -0.0000000004
   19   14   16   15        0.0000004327
   19   14   17   15        0.0000000234
   19   14   18   15       -0.0012780585
   19   14   19   15       -0.0000681245
   19   14   16   16       -0.0000000036
   19   14   17   16        0.0000049558
   19   14   18   16        0.0000044101
   19   14   19   16        0.0000002742
   19   14   17   17       -0.0000000023
   19   14   18   17       -0.0000042674
   19   14   19   17       -0.0000004052
   19   14   18   18       -0.0000000007
   19   14   19   18        0.0000001207
   19   14   19   19        0.0000000071
   15   15   15   15        0.1398373678
   15   15   16   15        0.0000000552
   15   15   17   15       -0.0001810863
   15   15   18   15        0.0000000091
   15   15   19   15        0.0000000020
   15   15   16   16        0.1192314937
   15   15   17   16        0.0000000009
   15   15   18   16        0.0000006308
   15   15   19   16       -0.0000673127
   15   15   17   17        0.1297597258
   15   15   18   17       -0.0000000077
   15   15   19   17        0.0000000148
   15   15   18   18        0.1218373267
   15   15   19   18        0.0002620092
   15   15   19   19        0.1218599206
   16   15   16   15        0.0040641955
   16   15   17   15        0.0000000007
   16   15   18   15        0.0000001441
   16   15   19   15       -0.0000849297
   16   15   16   16       -0.0000000552
   16   15   17   16       -0.0001728992
   16   15   18   16       -0.0000000001
   16   15   19   16       -0.0000000022
   16   15   17   17        0.0000000000
   16   15   18   17        0.0000000025
   16   15   19   17       -0.0000001185
   16   15   18   18       -0.0000000076
   16   15   19   18       -0.0000000033
   16   15   19   19       -0.0000000148
   17   15   17   15        0.0103459715
   17   15   18   15       -0.0000000058
   17   15   19   15        0.0000000093
   17   15   16   16       -0.0001801411
   17   15   17   16        0.0000000000
   17   15   18   16        0.0000585193
   17   15   19   16        0.0004524170
   17   15   17   17        0.0000238442
   17   15   18   17        0.0000000040
   17   15   19   17        0.0000000007
   17   15   18   18       -0.0002506972
   17   15   19   18        0.0000021188
   17   15   19   19       -0.0002471458
   18   15   18   15        0.0028359983
   18   15   19   15        0.0000731311
   18   15   16   16        0.0000000029
   18   15   17   16       -0.0000585157
   18   15   18   16       -0.0000000193
   18   15   19   16       -0.0000000163
   18   15   17   17        0.0000000062
   18   15   18   17       -0.0000226719
   18   15   19   17        0.0000001548
   18   15   18   18        0.0000000007
   18   15   19   18       -0.0000000009
   18   15   19   19        0.0000000009
   19   15   19   15        0.0068250897
   19   15   16   16       -0.0000000012
   19   15   17   16       -0.0004527173
   19   15   18   16       -0.0000000149
   19   15   19   16       -0.0000000186
   19   15   17   17        0.0000000023
   19   15   18   17        0.0000004212
   19   15   19   17       -0.0000182930
   19   15   18   18       -0.0000000031
   19   15   19   18        0.0000000034
   19   15   19   19       -0.0000000016
   16   16   16   16        0.1398363809
   16   16   17   16       -0.0000000023
   16   16   18   16       -0.0000009083
   16   16   19   16        0.0002405522
   16   16   17   17        0.1297597733
   16   16   18   17        0.0000000127
   16   16   19   17       -0.0000000041
   16   16   18   18        0.1218365480
   16   16   19   18        0.0002620130
   16   16   19   19        0.1218590254
   17   16   17   16        0.0103460369
   17   16   18   16        0.0000000098
   17   16   19   16       -0.0000000033
   17   16   17   17        0.0000000001
   17   16   18   17       -0.0000002633
   17   16   19   17       -0.0000056203
   17   16   18   18       -0.0000000005
   17   16   19   18        0.0000000043
   17   16   19   19        0.0000000010
   18   16   18   16        0.0028361843
   18   16   19   16        0.0000731260
   18   16   17   17        0.0000001749
   18   16   18   17       -0.0000000014
   18   16   19   17       -0.0000000020
   18   16   18   18       -0.0000011143
   18   16   19   18        0.0000490289
   18   16   19   19        0.0000046311
   19   16   19   16        0.0068271341
   19   16   17   17       -0.0000028639
   19   16   18   17        0.0000000005
   19   16   19   17        0.0000000000
   19   16   18   18        0.0003307301
   19   16   19   18        0.0000029771
   19   16   19   19        0.0003459916
   17   17   17   17        0.1371108565
   17   17   18   17        0.0000000025
   17   17   19   17        0.0000000059
   17   17   18   18        0.1253784442
   17   17   19   18        0.0001520419
   17   17   19   19        0.1223050005
   18   17   18   17        0.0021507232
   18   17   19   17        0.0000172890
   18   17   18   18        0.0000000006
   18   17   19   18        0.0000000002
   18   17   19   19        0.0000000012
   19   17   19   17        0.0017740809
   19   17   18   18        0.0000000036
   19   17   19   18        0.0000000012
   19   17   19   19        0.0000000042
   18   18   18   18        0.1351606705
   18   18   19   18        0.0000000644
   18   18   19   19        0.1247339649
   19   18   19   18        0.0051785882
   19   18   19   19        0.0003329400
   19   19   19   19        0.1283300867
 end_two_electron_integrals


 output epsi filename:./pspw_hf_H2.emovecs

 Total PSPW energy     :  -0.8718278715E+00


=== Spin Contamination ===

 <Sexact^2> =    0.0000000000000000     
 <S^2>      =    0.0000000000000000     



== Center of Charge ==

spin up     (    0.0000,    0.0000,    0.0001 )
spin down   (    0.0000,    0.0000,    0.0001 )
     total  (    0.0000,    0.0000,    0.0001 )
ionic       (    0.0000,    0.0000,    0.0000 )


== Molecular Dipole wrt Center of Mass ==

mu   =  (   -0.0000,   -0.0000,   -0.0002 ) au
|mu| =     0.0002 au,       0.0006 Debye

 output psi filename:./pspw_hf_H2.movecs

 Writing Crystallographic Information File:./H2.cif
   - cell not shifted (nwpw:cif_shift_cell .false.)


== Timing ==

cputime in seconds
  prologue    :   0.606413E+01
  main loop   :   0.580012E+03
  epilogue    :   0.551085E-02
  total       :   0.586082E+03
  cputime/step:   0.411356E+01       (     141 evalulations,      59 linesearches)


Time spent doing                        total          step       percent
  total time                 :   0.586082E+03  0.415661E+01       100.0 %
  i/o time                   :   0.130499E+00  0.925527E-03         0.0 %
  FFTs                       :   0.508483E+03  0.360626E+01        86.8 %
  dot products               :   0.601366E+00  0.426501E-02         0.1 %
  geodesic                   :   0.678022E-01  0.480867E-03         0.0 %
  ffm_dgemm                  :   0.772921E-02  0.548171E-04         0.0 %
  fmf_dgemm                  :   0.344157E-01  0.244083E-03         0.0 %
  mmm_dgemm                  :   0.155741E-02  0.110454E-04         0.0 %
  m_diagonalize              :   0.858842E-03  0.609108E-05         0.0 %
  local pseudopotentials     :   0.970574E-02  0.688350E-04         0.0 %
  non-local pseudopotentials :   0.110520E+01  0.783827E-02         0.2 %
  structure factors          :   0.516835E+00  0.366549E-02         0.1 %
  phase factors              :   0.593000E-05  0.420567E-07         0.0 %
  masking and packing        :   0.196026E+02  0.139025E+00         3.3 %
  queue fft                  :   0.142870E+01  0.101326E-01         0.2 %
  queue fft (serial)         :   0.838122E+00  0.594413E-02         0.1 %
  queue fft (message passing):   0.535858E+00  0.380041E-02         0.1 %
  HFX potential              :   0.293283E+03  0.208002E+01        50.0 %
  non-local psp FFM          :   0.588693E+00  0.417513E-02         0.1 %
  non-local psp FMF          :   0.133991E+00  0.950293E-03         0.0 %
  non-local psp FFM A        :   0.154966E+00  0.109905E-02         0.0 %
  non-local psp FFM B        :   0.110436E+00  0.783231E-03         0.0 %

== HFX Counters ==
  HFX Evalulations         =   141
  Lin ACE HFX Evalulations =     0


     >>>  JOB COMPLETED     AT Thu May  1 21:07:07 2025  <<<

 Task  times  cpu:      586.0s     wall:      586.1s
 Summary of allocated global arrays
-----------------------------------
  No active global arrays


MA_summarize_allocated_blocks: starting scan ...
MA_summarize_allocated_blocks: scan completed: 0 heap blocks, 0 stack blocks
MA usage statistics:

	allocation statistics:
					      heap	     stack
					      ----	     -----
	current number of blocks	         0	         0
	maximum number of blocks	       313	        17
	current total bytes		         0	         0
	maximum total bytes		 375254968	  89294088
	maximum total K-bytes		    375255	     89295
	maximum total M-bytes		       376	        90


                                NWChem Input Module
                                -------------------




                                     CITATION
                                     --------
                Please cite the following reference when publishing
                           results obtained with NWChem:

          E. Apra, E. J. Bylaska, W. A. de Jong, N. Govind, K. Kowalski,
       T. P. Straatsma, M. Valiev, H. J. J. van Dam, Y. Alexeev, J. Anchell,
       V. Anisimov, F. W. Aquino, R. Atta-Fynn, J. Autschbach, N. P. Bauman,
     J. C. Becca, D. E. Bernholdt, K. Bhaskaran-Nair, S. Bogatko, P. Borowski,
         J. Boschen, J. Brabec, A. Bruner, E. Cauet, Y. Chen, G. N. Chuev,
      C. J. Cramer, J. Daily, M. J. O. Deegan, T. H. Dunning Jr., M. Dupuis,
   K. G. Dyall, G. I. Fann, S. A. Fischer, A. Fonari, H. Fruchtl, L. Gagliardi,
      J. Garza, N. Gawande, S. Ghosh, K. Glaesemann, A. W. Gotz, J. Hammond,
       V. Helms, E. D. Hermes, K. Hirao, S. Hirata, M. Jacquelin, L. Jensen,
   B. G. Johnson, H. Jonsson, R. A. Kendall, M. Klemm, R. Kobayashi, V. Konkov,
      S. Krishnamoorthy, M. Krishnan, Z. Lin, R. D. Lins, R. J. Littlefield,
      A. J. Logsdail, K. Lopata, W. Ma, A. V. Marenich, J. Martin del Campo,
   D. Mejia-Rodriguez, J. E. Moore, J. M. Mullin, T. Nakajima, D. R. Nascimento,
    J. A. Nichols, P. J. Nichols, J. Nieplocha, A. Otero-de-la-Roza, B. Palmer,
    A. Panyala, T. Pirojsirikul, B. Peng, R. Peverati, J. Pittner, L. Pollack,
   R. M. Richard, P. Sadayappan, G. C. Schatz, W. A. Shelton, D. W. Silverstein,
   D. M. A. Smith, T. A. Soares, D. Song, M. Swart, H. L. Taylor, G. S. Thomas,
            V. Tipparaju, D. G. Truhlar, K. Tsemekhman, T. Van Voorhis,
      A. Vazquez-Mayagoitia, P. Verma, O. Villa, A. Vishnu, K. D. Vogiatzis,
        D. Wang, J. H. Weare, M. J. Williamson, T. L. Windus, K. Wolinski,
        A. T. Wong, Q. Wu, C. Yang, Q. Yu, M. Zacharias, Z. Zhang, Y. Zhao,
                                and R. J. Harrison
                        "NWChem: Past, present, and future
                         J. Chem. Phys. 152, 184102 (2020)
                               doi:10.1063/5.0004997

                                      AUTHORS
                                      -------
  E. Apra, E. J. Bylaska, N. Govind, K. Kowalski, M. Valiev, D. Mejia-Rodriguez,
       A. Kunitsa, N. P. Bauman, A. Panyala, W. A. de Jong, T. P. Straatsma,
   H. J. J. van Dam, D. Wang, T. L. Windus, J. Hammond, J. Autschbach, A. Woods,
    K. Bhaskaran-Nair, J. Brabec, K. Lopata, S. A. Fischer, S. Krishnamoorthy,
     M. Jacquelin, W. Ma, M. Klemm, O. Villa, Y. Chen, V. Anisimov, F. Aquino,
     S. Hirata, M. T. Hackler, E. Hermes, L. Jensen, J. E. Moore, J. C. Becca,
      V. Konjkov, T. Risthaus, M. Malagoli, A. Marenich, A. Otero-de-la-Roza,
        J. Mullin, P. Nichols, R. Peverati, J. Pittner, Y. Zhao, P.-D. Fan,
        A. Fonari, M. J. Williamson, R. J. Harrison, J. R. Rehr, M. Dupuis,
     D. Silverstein, D. M. A. Smith, J. Nieplocha, V. Tipparaju, M. Krishnan,
     B. E. Van Kuiken, A. Vazquez-Mayagoitia, M. Swart, Q. Wu, T. Van Voorhis,
     A. A. Auer, M. Nooijen, L. D. Crosby, E. Brown, G. Cisneros, G. I. Fann,
   H. Fruchtl, J. Garza, K. Hirao, R. A. Kendall, J. A. Nichols, K. Tsemekhman,
    K. Wolinski, J. Anchell, D. E. Bernholdt, P. Borowski, T. Clark, D. Clerc,
   H. Dachsel, M. J. O. Deegan, K. Dyall, D. Elwood, E. Glendening, M. Gutowski,
   A. C. Hess, J. Jaffe, B. G. Johnson, J. Ju, R. Kobayashi, R. Kutteh, Z. Lin,
   R. Littlefield, X. Long, B. Meng, T. Nakajima, S. Niu, L. Pollack, M. Rosing,
   K. Glaesemann, G. Sandrone, M. Stave, H. Taylor, G. Thomas, J. H. van Lenthe,
                               A. T. Wong, Z. Zhang.

 Total times  cpu:      586.2s     wall:      586.1s
