 argument  1 = H2-3.0.nw



============================== echo of input deck ==============================
title "swnc: e theory=pspw4 xc=hf formula=H2 charge=0 mult=1"
#machinejob:expert

echo

start pspw_hf_H2

memory heap 1200 mb stack 1200 mb global 10 mb

charge 0

geometry
H    0.00000    0.00000   -1.50000
H    0.00000    0.00000    1.50000
end

nwpw
  ### pseudopotential block begin ###
  ### pseudopotential block end   ###
  simulation_cell
     SC 20.0000
     boundary_conditions aperiodic
  end

  cutoff 50.0
  mult 1
  xc hf
  lmbfgs
  tolerances 1.0e-9 1.0e-9

  virtual 18
end
set nwpw:cif_filename H2

#set nwpw:CI_maxit_orb 15
#set nwpw:CI_maxit_linesearch 15
set pspw:HFX_screening_radius 14.0


set nwpw:2qintegrals .true.
#set nwpw:3x3_virtual .true.

task pspw energy

================================================================================


                                         
                                         


             Northwest Computational Chemistry Package (NWChem) 7.2.2
             --------------------------------------------------------


                    Environmental Molecular Sciences Laboratory
                       Pacific Northwest National Laboratory
                                Richland, WA 99352

                              Copyright (c) 1994-2022
                       Pacific Northwest National Laboratory
                            Battelle Memorial Institute

             NWChem is an open-source computational chemistry package
                        distributed under the terms of the
                      Educational Community License (ECL) 2.0
             A copy of the license is included with this distribution
                              in the LICENSE.TXT file

                                  ACKNOWLEDGMENT
                                  --------------

            This software and its documentation were developed at the
            EMSL at Pacific Northwest National Laboratory, a multiprogram
            national laboratory, operated for the U.S. Department of Energy
            by Battelle under Contract Number DE-AC05-76RL01830. Support
            for this work was provided by the Department of Energy Office
            of Biological and Environmental Research, Office of Basic
            Energy Sciences, and the Office of Advanced Scientific Computing.


           Job information
           ---------------

    hostname        = LAPTOP-JJQSTSEL
    program         = nwchem
    date            = Thu May  1 21:28:10 2025

    compiled        = Fri_Jun_07_07:50:04_2024
    source          = /home/conda/feedstock_root/build_artifacts/nwchem_1717738148552/work
    nwchem branch   = 7.2.2
    nwchem revision = 64ba0f0
    ga revision     = 5.8.0
    use scalapack   = T
    input           = H2-3.0.nw
    prefix          = pspw_hf_H2.
    data base       = ./pspw_hf_H2.db
    status          = startup
    nproc           =        1
    time left       =     -1s



           Memory information
           ------------------

    heap     =  157286400 doubles =   1200.0 Mbytes
    stack    =  157286397 doubles =   1200.0 Mbytes
    global   =    1310720 doubles =     10.0 Mbytes (distinct from heap & stack)
    total    =  315883517 doubles =   2410.0 Mbytes
    verify   = yes
    hardfail = no 


           Directory information
           ---------------------

  0 permanent = .
  0 scratch   = .




                                NWChem Input Module
                                -------------------


               swnc: e theory=pspw4 xc=hf formula=H2 charge=0 mult=1
               -----------------------------------------------------

 Scaling coordinates for geometry "geometry" by  1.889725989
 (inverse scale =  0.529177249)

 ORDER OF PRIMARY AXIS IS BEING SET TO 4
 D4H symmetry detected

          ------
          auto-z
          ------
     1 autoz failed with cvr_scaling = 1.2 changing to 1.3
     2 autoz failed with cvr_scaling = 1.3 changing to 1.4
     3 autoz failed with cvr_scaling = 1.4 changing to 1.5
     4 autoz failed with cvr_scaling = 1.5 changing to 1.6
     5 autoz failed with cvr_scaling = 1.6 changing to 1.7

 AUTOZ failed to generate good internal coordinates.
 Cartesian coordinates will be used in optimizations.



                             Geometry "geometry" -> ""
                             -------------------------

 Output coordinates in angstroms (scale by  1.889725989 to convert to a.u.)

  No.       Tag          Charge          X              Y              Z
 ---- ---------------- ---------- -------------- -------------- --------------
    1 H                    1.0000     0.00000000     0.00000000    -1.50000000
    2 H                    1.0000     0.00000000     0.00000000     1.50000000

      Atomic Mass 
      ----------- 

      H                  1.007825


 Effective nuclear repulsion energy (a.u.)       0.1763924163

            Nuclear Dipole moment (a.u.) 
            ----------------------------
        X                 Y               Z
 ---------------- ---------------- ----------------
     0.0000000000     0.0000000000     0.0000000000

      Symmetry information
      --------------------

 Group name             D4h       
 Group number             28
 Group order              16
 No. of unique centers     1

      Symmetry unique atoms

     1


            XYZ format geometry
            -------------------
     2
 geometry
 H                     0.00000000     0.00000000    -1.50000000
 H                     0.00000000     0.00000000     1.50000000

          ****************************************************
          *                                                  *
          *               NWPW PSPW Calculation              *
          *                                                  *
          * [ (Grassmann/Stiefel manifold implementation)  ] *
          *                                                  *
          *      [ NorthWest Chemistry implementation ]      *
          *                                                  *
          *            version #5.10   06/12/02              *
          *                                                  *
          *    This code was developed by Eric J. Bylaska,   *
          *    and was based upon algorithms and code        *
          *    developed by the group of Prof. John H. Weare *
          *                                                  *
          ****************************************************
     >>>  JOB STARTED       AT Thu May  1 21:28:10 2025  <<<
          ================ input data ========================
 pseudopotential is not correctly formatted:H.vpp                                             

 Generated formatted_filename: ./H.vpp
 Error reading psi - bad grid
 nfft :                   70                   70                   70
 ngrid:                   96                   96                   96
 Error reading psi - bad unitcell
  - Ignored if the following  parameter is set
  - set nwpw:psi_nolattice .true.
 Error reading psi - bad grid
 nfft :                   70                   70                   70
 ngrid:                   96                   96                   96
 Error reading psi - bad unitcell
  - Ignored if the following  parameter is set
  - set nwpw:psi_nolattice .true.
 Error reading psi - bad grid
 Error reading psi - bad unitcell
  - Ignored if the following  parameter is set
  - set nwpw:psi_nolattice .true.

 Grid is being converted:
 ------------------------

 To turn off automatic grid conversion:

 set nwpw:psi_nogrid .false.

 old_filename: pspw_hf_H2.movecs                                 
 new_filename: pspw_hf_H2.movecs                                 
 converting  :  70x 70x 70 -->  96x 96x 96
converting .... psi:    1 spin: 1

 input psi filename:./pspw_hf_H2.movecs

 number of processors used:         1
 processor grid           :   1 x   1
 parallel mapping         :2d-hilbert
 parallel mapping         :  balanced
 number of threads        :         1
 parallel io              :       off

 options:
      boundary conditions  = aperiodic   (version4)
      electron spin        = restricted
      exchange-correlation = Hartree-Fock
      - HFX relaxed
      - HFX restricted orbitals :    1
      - HFX free-space coulomb solver


 elements involved in the cluster:
      1: H   valence charge:  1.0000  lmax=  1
             comment    : Parameterized (Chem.Phys.Lett., vol 322, page 447) Hamman psp
             pseudpotential type            :   0
             highest angular component      :   1
             local potential used           :   1
             number of non-local projections:   1
             aperiodic cutoff radius        :  1.000
             cutoff =   0.800   0.800


 total charge:   0.000

 atomic composition:
     H   :    2

 number of electrons: spin up=     1 (   1 per task)  down=     1 (   1 per task) (Fourier space)
 number of orbitals : spin up=     1 (   1 per task)  down=     1 (   1 per task) (Fourier space)

 supercell:
      cell_name:  cell_default                                      
      lattice:    a1=<  20.000   0.000   0.000 >
                  a2=<   0.000  20.000   0.000 >
                  a3=<   0.000   0.000  20.000 >
      reciprocal: b1=<   0.314   0.000   0.000 >
                  b2=<   0.000   0.314   0.000 >
                  b3=<   0.000   0.000   0.314 >
      lattice:    a=      20.000 b=     20.000 c=      20.000
                  alpha=  90.000 beta=  90.000 gamma=  90.000
                  omega=      8000.0

      density cutoff=100.000  fft= 96x 96x 96(   191162 waves   191162 per task)
      wavefnc cutoff= 50.000  fft= 96x 96x 96(    67522 waves    67522 per task)

 technical parameters:
      time step=      5.80     fictitious mass=  400000.0
      tolerance=0.100E-08 (energy)   0.100E-08 (density)
      maximum iterations =      1000 (   10 inner    100 outer )





== Energy Calculation ==


          ============ Grassmann lmbfgs iteration ============
     >>>  ITERATION STARTED AT Thu May  1 21:28:24 2025  <<<
    iter.           Energy         DeltaE       DeltaRho 
    ------------------------------------------------------
      10   -0.8286731010E+00   -0.14652E-02    0.74684E-02
     -  10 steepest descent iterations performed
      20   -0.8337021467E+00   -0.20756E-03    0.36251E-04
      30   -0.8340178698E+00   -0.49795E-05    0.13028E-04
      40   -0.8340334558E+00   -0.44386E-06    0.53185E-07
      50   -0.8340344534E+00   -0.18429E-07    0.11156E-07
      60   -0.8340345072E+00   -0.10684E-08    0.18255E-09
      70   -0.8340345079E+00   -0.68065E-09    0.36423E-12
  *** tolerance ok. iteration terminated
     >>>  ITERATION ENDED   AT Thu May  1 21:30:11 2025  <<<


==  Summary Of Results  ==

 number of electrons: spin up=    1.00000  down=    1.00000 (real space)

 total     energy    :  -0.8340345079E+00 (   -0.41702E+00/ion)
 total orbital energy:  -0.6643988011E+00 (   -0.66440E+00/electron)
 hartree   energy    :   0.6920562463E+00 (    0.69206E+00/electron)
 exc-corr  energy    :   0.0000000000E+00 (    0.00000E+00/electron)
 HF exchange energy  :  -0.3460281232E+00 (   -0.34603E+00/electron)
 ion-ion   energy    :   0.1763924163E+00 (    0.88196E-01/ion)

 kinetic (planewave) :   0.6216737048E+00 (    0.62167E+00/electron)
 V_local (planewave) :  -0.1830687992E+01 (   -0.18307E+01/electron)
 V_nl    (planewave) :  -0.1474407599E+00 (   -0.14744E+00/electron)
 V_Coul  (planewave) :   0.1384112493E+01 (    0.13841E+01/electron)
 V_xc.   (planewave) :   0.0000000000E+00 (    0.00000E+00/electron)
 K.S. HFX energy     :  -0.6920562463E+00 (   -0.69206E+00/electron)
 Virial Coefficient  :  -0.9555113156E+00

 orbital energies:
    -0.3321994E+00 (  -9.040eV)


== Virtual Orbital Calculation ==

 Error reading psi - bad grid
 Error reading psi - bad unitcell
  - Ignored if the following  parameter is set
  - set nwpw:psi_nolattice .true.
 Error reading psi - bad grid
 Error reading psi - bad unitcell
  - Ignored if the following  parameter is set
  - set nwpw:psi_nolattice .true.
 Error reading psi - bad grid
 Error reading psi - bad unitcell
  - Ignored if the following  parameter is set
  - set nwpw:psi_nolattice .true.

 Grid is being converted:
 ------------------------

 To turn off automatic grid conversion:

 set nwpw:psi_nogrid .false.

 old_filename: pspw_hf_H2.emovecs                                
 new_filename: pspw_hf_H2.emovecs                                
 converting  :  70x 70x 70 -->  96x 96x 96
converting .... psi:    1 spin: 1
converting .... psi:    2 spin: 1
converting .... psi:    3 spin: 1
converting .... psi:    4 spin: 1
converting .... psi:    5 spin: 1
converting .... psi:    6 spin: 1
converting .... psi:    7 spin: 1
converting .... psi:    8 spin: 1
converting .... psi:    9 spin: 1
converting .... psi:   10 spin: 1
converting .... psi:   11 spin: 1
converting .... psi:   12 spin: 1
converting .... psi:   13 spin: 1
converting .... psi:   14 spin: 1
converting .... psi:   15 spin: 1
converting .... psi:   16 spin: 1
converting .... psi:   17 spin: 1
converting .... psi:   18 spin: 1

 input epsi filename:./pspw_hf_H2.emovecs
     orbital   1 current e=-0.124E+00 (error=0.839E-09) iterations  70(  46 preconditioned, Ep,Sp= 20.0  200.0)
     orbital   2 current e= 0.564E-02 (error=0.962E-09) iterations  87(  51 preconditioned, Ep,Sp= 20.0  200.0)
     orbital   3 current e= 0.478E-01 (error=0.847E-09) iterations  54(  20 preconditioned, Ep,Sp= 20.0  200.0)
     orbital   4 current e= 0.478E-01 (error=0.847E-09) iterations  54(  20 preconditioned, Ep,Sp= 20.0  200.0)
     orbital   5 current e= 0.480E-01 (error=0.853E-09) iterations  98(  29 preconditioned, Ep,Sp= 20.0  200.0)
     orbital   6 current e= 0.498E-01 (error=0.863E-09) iterations  30(   5 preconditioned, Ep,Sp= 20.0  200.0)
     orbital   7 current e= 0.560E-01 (error=0.966E-09) iterations  85(  57 preconditioned, Ep,Sp= 20.0  200.0)
     orbital   8 current e= 0.674E-01 (error=0.933E-09) iterations 103(  57 preconditioned, Ep,Sp= 20.0  200.0)
     orbital   9 current e= 0.957E-01 (error=0.842E-09) iterations  76(  28 preconditioned, Ep,Sp= 20.0  200.0)
     orbital  10 current e= 0.957E-01 (error=0.842E-09) iterations  76(  28 preconditioned, Ep,Sp= 20.0  200.0)
     orbital  11 current e= 0.961E-01 (error=0.863E-09) iterations  91(  38 preconditioned, Ep,Sp= 20.0  200.0)
     orbital  12 current e= 0.970E-01 (error=0.994E-09) iterations  68(  40 preconditioned, Ep,Sp= 20.0  200.0)
     orbital  13 current e= 0.970E-01 (error=0.994E-09) iterations  68(  40 preconditioned, Ep,Sp= 20.0  200.0)
     orbital  14 current e= 0.987E-01 (error=0.956E-09) iterations  57(  15 preconditioned, Ep,Sp= 20.0  200.0)
     orbital  15 current e= 0.987E-01 (error=0.956E-09) iterations  57(  15 preconditioned, Ep,Sp= 20.0  200.0)
     orbital  16 current e= 0.989E-01 (error=0.977E-09) iterations  54(   9 preconditioned, Ep,Sp= 20.0  200.0)
     orbital  17 current e= 0.989E-01 (error=0.955E-09) iterations  30(   5 preconditioned, Ep,Sp= 20.0  200.0)
     orbital  18 current e= 0.994E-01 (error=0.992E-09) iterations  35(   5 preconditioned, Ep,Sp= 20.0  200.0)

 virtual orbital energies:
     0.9939248E-01 (   2.705eV)
     0.9893983E-01 (   2.692eV)
     0.9890642E-01 (   2.691eV)
     0.9866441E-01 (   2.685eV)
     0.9866441E-01 (   2.685eV)
     0.9701818E-01 (   2.640eV)
     0.9701818E-01 (   2.640eV)
     0.9611155E-01 (   2.615eV)
     0.9572520E-01 (   2.605eV)
     0.9572520E-01 (   2.605eV)
     0.6741672E-01 (   1.835eV)
     0.5597136E-01 (   1.523eV)
     0.4976899E-01 (   1.354eV)
     0.4803341E-01 (   1.307eV)
     0.4776298E-01 (   1.300eV)
     0.4776298E-01 (   1.300eV)
     0.5636619E-02 (   0.153eV)
    -0.1238464E+00 (  -3.370eV)


 == Generating One-Electron and Two-Electron Integrals ==

 begin_one_electron_integrals
    1    1        -0.6782275237
    2    1         0.0000009466
    3    1        -0.0190208901
    4    1        -0.0000038144
    5    1         0.0000000035
    6    1        -0.0041620750
    7    1        -0.0000000005
    8    1         0.0000001884
    9    1         0.0237460758
   10    1        -0.0000023919
   11    1         0.0000000011
   12    1         0.0027868793
   13    1         0.0000000001
   14    1        -0.0000000006
   15    1         0.0000000129
   16    1        -0.0000000000
   17    1         0.0000000003
   18    1        -0.0000000740
   19    1        -0.0000000624
    2    2        -0.6396657493
    3    2        -0.0000162541
    4    2        -0.0000000220
    5    2         0.0000000000
    6    2        -0.0000244592
    7    2         0.0000000011
    8    2        -0.0328660351
    9    2         0.0000113727
   10    2        -0.0000000127
   11    2        -0.0000000000
   12    2         0.0000190795
   13    2        -0.0000000082
   14    2         0.0000000922
   15    2        -0.0000000003
   16    2         0.0000000000
   17    2         0.0000000001
   18    2        -0.0000001392
   19    2         0.0000003104
    3    3        -0.1950993217
    4    3        -0.0000006671
    5    3         0.0000000006
    6    3        -0.0016357637
    7    3        -0.0000000008
    8    3        -0.0000010128
    9    3         0.0434769675
   10    3        -0.0000010613
   11    3         0.0000000005
   12    3         0.0015039315
   13    3         0.0000000000
   14    3        -0.0000000003
   15    3        -0.0000000971
   16    3         0.0000000001
   17    3         0.0000000001
   18    3        -0.0000000709
   19    3        -0.0000000595
    4    4        -0.1871643688
    5    4        -0.0000000000
    6    4         0.0000166371
    7    4        -0.0000000068
    8    4        -0.0000000027
    9    4         0.0000020380
   10    4        -0.0593305036
   11    4        -0.0000284688
   12    4        -0.0000003808
   13    4         0.0000005689
   14    4        -0.0000065004
   15    4         0.0158611101
   16    4        -0.0000083225
   17    4        -0.0000016287
   18    4         0.0000000399
   19    4        -0.0000000060
    5    5        -0.1871643821
    6    5        -0.0000000154
    7    5        -0.0000073155
    8    5         0.0000000000
    9    5        -0.0000000019
   10    5         0.0000284688
   11    5        -0.0593305153
   12    5         0.0000000004
   13    5        -0.0000065004
   14    5        -0.0000005689
   15    5         0.0000083225
   16    5         0.0158611151
   17    5         0.0000000015
   18    5        -0.0000000117
   19    5         0.0000030793
    6    6        -0.1685734657
    7    6         0.0000000001
    8    6        -0.0000024805
    9    6         0.0014238851
   10    6         0.0000272262
   11    6        -0.0000000120
   12    6         0.0417941254
   13    6         0.0000000009
   14    6        -0.0000000104
   15    6        -0.0000160623
   16    6         0.0000000233
   17    6         0.0000000056
   18    6         0.0000000216
   19    6         0.0000000210
    7    7        -0.1543132859
    8    7        -0.0000000005
    9    7        -0.0000000003
   10    7        -0.0000000066
   11    7        -0.0000120106
   12    7        -0.0000000089
   13    7         0.0000000019
   14    7        -0.0000000114
   15    7         0.0000000050
   16    7         0.0000000647
   17    7        -0.0000000033
   18    7         0.0000082725
   19    7         0.0255128618
    8    8        -0.1514093398
    9    8         0.0000013238
   10    8        -0.0000000031
   11    8        -0.0000000000
   12    8         0.0000032159
   13    8         0.0000000020
   14    8        -0.0000000232
   15    8         0.0000000003
   16    8         0.0000000000
   17    8         0.0000000001
   18    8        -0.0000001523
   19    8         0.0000003358
    9    9        -0.1343334733
   10    9         0.0000015379
   11    9        -0.0000000007
   12    9        -0.0005897227
   13    9         0.0000000001
   14    9        -0.0000000016
   15    9        -0.0000002288
   16    9         0.0000000004
   17    9        -0.0000000002
   18    9         0.0000001560
   19    9         0.0000001308
   10   10        -0.1484773396
   11   10        -0.0000000000
   12   10        -0.0000187197
   13   10         0.0000001266
   14   10        -0.0000014387
   15   10         0.0121473638
   16   10        -0.0000122026
   17   10        -0.0000015454
   18   10         0.0000000470
   19   10        -0.0000000086
   11   11        -0.1484773522
   12   11         0.0000000083
   13   11        -0.0000014387
   14   11        -0.0000001266
   15   11         0.0000122026
   16   11         0.0121473643
   17   11         0.0000000007
   18   11        -0.0000000066
   19   11         0.0000073314
   12   12        -0.1203053612
   13   12         0.0000000008
   14   12        -0.0000000095
   15   12         0.0000082477
   16   12        -0.0000000119
   17   12        -0.0000000002
   18   12         0.0000000015
   19   12        -0.0000000025
   13   13        -0.1411595527
   14   13         0.0000000000
   15   13        -0.0000000247
   16   13         0.0000002839
   17   13         0.0000000000
   18   13        -0.0000012938
   19   13         0.0000000036
   14   14        -0.1411595528
   15   14         0.0000002838
   16   14         0.0000000247
   17   14        -0.0000000006
   18   14        -0.0000000952
   19   14        -0.0000000336
   15   15        -0.1157968974
   16   15         0.0000000000
   17   15        -0.0000016331
   18   15        -0.0000000228
   19   15         0.0000000015
   16   16        -0.1157968954
   17   16         0.0000000024
   18   16         0.0000000047
   19   16        -0.0000032513
   17   17        -0.1270899811
   18   17         0.0000000180
   19   17        -0.0000000085
   18   18        -0.1085597656
   19   18         0.0000012802
   19   19        -0.1037503204
 end_one_electron_integrals

 begin_two_electron_integrals
    1    1    1    1        0.3460281232
    1    1    2    1       -0.0000009485
    1    1    3    1        0.0190166931
    1    1    4    1        0.0000038158
    1    1    5    1       -0.0000000035
    1    1    6    1        0.0041656577
    1    1    7    1        0.0000000005
    1    1    8    1       -0.0000001811
    1    1    9    1       -0.0237520313
    1    1   10    1        0.0000023909
    1    1   11    1       -0.0000000011
    1    1   12    1       -0.0027868792
    1    1   13    1       -0.0000000001
    1    1   14    1        0.0000000006
    1    1   15    1       -0.0000000126
    1    1   16    1        0.0000000000
    1    1   17    1       -0.0000000003
    1    1   18    1        0.0000000740
    1    1   19    1        0.0000000624
    1    1    2    2        0.3415669191
    1    1    3    2        0.0000087177
    1    1    4    2        0.0000000104
    1    1    5    2       -0.0000000000
    1    1    6    2        0.0000117838
    1    1    7    2       -0.0000000009
    1    1    8    2        0.0259660426
    1    1    9    2       -0.0000054325
    1    1   10    2        0.0000000058
    1    1   11    2        0.0000000000
    1    1   12    2       -0.0000086674
    1    1   13    2        0.0000000064
    1    1   14    2       -0.0000000720
    1    1   15    2        0.0000000000
    1    1   16    2       -0.0000000000
    1    1   17    2       -0.0000000001
    1    1   18    2        0.0000001110
    1    1   19    2       -0.0000002474
    1    1    3    3        0.1012712541
    1    1    4    3        0.0000003073
    1    1    5    3       -0.0000000003
    1    1    6    3        0.0010260067
    1    1    7    3        0.0000000004
    1    1    8    3        0.0000008654
    1    1    9    3       -0.0229200193
    1    1   10    3        0.0000004021
    1    1   11    3       -0.0000000002
    1    1   12    3       -0.0009135792
    1    1   13    3       -0.0000000000
    1    1   14    3        0.0000000004
    1    1   15    3        0.0000001115
    1    1   16    3       -0.0000000002
    1    1   17    3       -0.0000000000
    1    1   18    3        0.0000000392
    1    1   19    3        0.0000000329
    1    1    4    4        0.1184573516
    1    1    5    4        0.0000000000
    1    1    6    4       -0.0000086501
    1    1    7    4        0.0000000033
    1    1    8    4        0.0000000017
    1    1    9    4       -0.0000011195
    1    1   10    4        0.0309939802
    1    1   11    4        0.0000148720
    1    1   12    4        0.0000004025
    1    1   13    4       -0.0000002882
    1    1   14    4        0.0000032934
    1    1   15    4       -0.0082461500
    1    1   16    4        0.0000043269
    1    1   17    4        0.0000008253
    1    1   18    4       -0.0000000210
    1    1   19    4        0.0000000033
    1    1    5    5        0.1184573586
    1    1    6    5        0.0000000080
    1    1    7    5        0.0000035874
    1    1    8    5       -0.0000000000
    1    1    9    5        0.0000000010
    1    1   10    5       -0.0000148720
    1    1   11    5        0.0309939863
    1    1   12    5       -0.0000000004
    1    1   13    5        0.0000032934
    1    1   14    5        0.0000002882
    1    1   15    5       -0.0000043269
    1    1   16    5       -0.0082461525
    1    1   17    5       -0.0000000008
    1    1   18    5        0.0000000062
    1    1   19    5       -0.0000015297
    1    1    6    6        0.1087775940
    1    1    7    6       -0.0000000000
    1    1    8    6        0.0000017089
    1    1    9    6       -0.0009786392
    1    1   10    6       -0.0000142616
    1    1   11    6        0.0000000063
    1    1   12    6       -0.0215022184
    1    1   13    6       -0.0000000005
    1    1   14    6        0.0000000056
    1    1   15    6        0.0000082922
    1    1   16    6       -0.0000000120
    1    1   17    6       -0.0000000029
    1    1   18    6       -0.0000000105
    1    1   19    6       -0.0000000103
    1    1    7    7        0.1020990517
    1    1    8    7        0.0000000001
    1    1    9    7        0.0000000001
    1    1   10    7        0.0000000033
    1    1   11    7        0.0000059668
    1    1   12    7        0.0000000045
    1    1   13    7       -0.0000000008
    1    1   14    7        0.0000000057
    1    1   15    7       -0.0000000025
    1    1   16    7       -0.0000000163
    1    1   17    7        0.0000000016
    1    1   18    7       -0.0000041642
    1    1   19    7       -0.0128063330
    1    1    8    8        0.1050088229
    1    1    9    8       -0.0000008357
    1    1   10    8        0.0000000018
    1    1   11    8        0.0000000000
    1    1   12    8       -0.0000020059
    1    1   13    8       -0.0000000050
    1    1   14    8        0.0000000563
    1    1   15    8       -0.0000000002
    1    1   16    8       -0.0000000000
    1    1   17    8       -0.0000000001
    1    1   18    8        0.0000000826
    1    1   19    8       -0.0000001822
    1    1    9    9        0.1024315346
    1    1   10    9       -0.0000008118
    1    1   11    9        0.0000000004
    1    1   12    9        0.0004764407
    1    1   13    9       -0.0000000001
    1    1   14    9        0.0000000009
    1    1   15    9        0.0000000842
    1    1   16    9       -0.0000000001
    1    1   17    9        0.0000000002
    1    1   18    9       -0.0000000837
    1    1   19    9       -0.0000000702
    1    1   10   10        0.1239329117
    1    1   11   10        0.0000000000
    1    1   12   10        0.0000099017
    1    1   13   10       -0.0000000687
    1    1   14   10        0.0000007806
    1    1   15   10       -0.0065204716
    1    1   16   10        0.0000065501
    1    1   17   10        0.0000008430
    1    1   18   10       -0.0000000248
    1    1   19   10        0.0000000046
    1    1   11   11        0.1239329184
    1    1   12   11       -0.0000000044
    1    1   13   11        0.0000007806
    1    1   14   11        0.0000000687
    1    1   15   11       -0.0000065501
    1    1   16   11       -0.0065204719
    1    1   17   11       -0.0000000004
    1    1   18   11        0.0000000037
    1    1   19   11       -0.0000036993
    1    1   12   12        0.1089934283
    1    1   13   12       -0.0000000004
    1    1   14   12        0.0000000049
    1    1   15   12       -0.0000044004
    1    1   16   12        0.0000000064
    1    1   17   12        0.0000000001
    1    1   18   12       -0.0000000013
    1    1   19   12        0.0000000007
    1    1   13   13        0.1196831440
    1    1   14   13       -0.0000000000
    1    1   15   13        0.0000000304
    1    1   16   13       -0.0000003491
    1    1   17   13       -0.0000000000
    1    1   18   13        0.0000006073
    1    1   19   13       -0.0000000017
    1    1   14   14        0.1196831440
    1    1   15   14       -0.0000003491
    1    1   16   14       -0.0000000304
    1    1   17   14        0.0000000003
    1    1   18   14        0.0000000440
    1    1   19   14        0.0000000168
    1    1   15   15        0.1074031054
    1    1   16   15       -0.0000000000
    1    1   17   15        0.0000008452
    1    1   18   15        0.0000000116
    1    1   19   15       -0.0000000008
    1    1   16   16        0.1074031044
    1    1   17   16       -0.0000000012
    1    1   18   16       -0.0000000023
    1    1   19   16        0.0000016267
    1    1   17   17        0.1131467934
    1    1   18   17       -0.0000000091
    1    1   19   17        0.0000000042
    1    1   18   18        0.1037895953
    1    1   19   18       -0.0000006501
    1    1   19   19        0.1016253608
    2    1    2    1        0.1673144579
    2    1    3    1        0.0000011906
    2    1    4    1       -0.0000000012
    2    1    5    1        0.0000000000
    2    1    6    1       -0.0000008878
    2    1    7    1       -0.0000000007
    2    1    8    1        0.0190718237
    2    1    9    1        0.0000005080
    2    1   10    1       -0.0000000011
    2    1   11    1        0.0000000000
    2    1   12    1        0.0000017464
    2    1   13    1        0.0000000046
    2    1   14    1       -0.0000000519
    2    1   15    1       -0.0000000002
    2    1   16    1       -0.0000000000
    2    1   17    1       -0.0000000001
    2    1   18    1        0.0000000828
    2    1   19    1       -0.0000001845
    2    1    2    2       -0.0000014461
    2    1    3    2        0.0117336699
    2    1    4    2       -0.0000059696
    2    1    5    2        0.0000000055
    2    1    6    2       -0.0064333994
    2    1    7    2        0.0000000005
    2    1    8    2       -0.0000011305
    2    1    9    2       -0.0156002946
    2    1   10    2       -0.0000061299
    2    1   11    2        0.0000000027
    2    1   12    2        0.0100902815
    2    1   13    2        0.0000000004
    2    1   14    2       -0.0000000043
    2    1   15    2       -0.0000004452
    2    1   16    2        0.0000000007
    2    1   17    2        0.0000000009
    2    1   18    2        0.0000000590
    2    1   19    2        0.0000000510
    2    1    3    3        0.0001923782
    2    1    4    3        0.0000002206
    2    1    5    3       -0.0000000002
    2    1    6    3        0.0002377363
    2    1    7    3       -0.0000000004
    2    1    8    3        0.0153630957
    2    1    9    3        0.0000177616
    2    1   10    3        0.0000000299
    2    1   11    3       -0.0000000000
    2    1   12    3       -0.0000464375
    2    1   13    3       -0.0000000202
    2    1   14    3        0.0000002283
    2    1   15    3        0.0000000005
    2    1   16    3       -0.0000000000
    2    1   17    3       -0.0000000000
    2    1   18    3        0.0000000374
    2    1   19    3       -0.0000000832
    2    1    4    4        0.0001582288
    2    1    5    4       -0.0000000000
    2    1    6    4        0.0000001876
    2    1    7    4       -0.0000000000
    2    1    8    4        0.0000037990
    2    1    9    4       -0.0000000879
    2    1   10    4       -0.0000565399
    2    1   11    4       -0.0000000271
    2    1   12    4       -0.0000002031
    2    1   13    4        0.0017866922
    2    1   14    4       -0.0204139326
    2    1   15    4        0.0002221889
    2    1   16    4       -0.0000001166
    2    1   17    4       -0.0000000308
    2    1   18    4        0.0000000105
    2    1   19    4       -0.0000000132
    2    1    5    5        0.0001582287
    2    1    6    5       -0.0000000002
    2    1    7    5        0.0000000067
    2    1    8    5       -0.0000000035
    2    1    9    5        0.0000000001
    2    1   10    5        0.0000000271
    2    1   11    5       -0.0000565400
    2    1   12    5        0.0000000002
    2    1   13    5       -0.0204139407
    2    1   14    5       -0.0017866930
    2    1   15    5        0.0000001166
    2    1   16    5        0.0002221890
    2    1   17    5        0.0000000000
    2    1   18    5        0.0000024618
    2    1   19    5       -0.0000000100
    2    1    6    6        0.0003611833
    2    1    7    6       -0.0000000002
    2    1    8    6        0.0041063367
    2    1    9    6       -0.0000945311
    2    1   10    6        0.0000001718
    2    1   11    6       -0.0000000001
    2    1   12    6       -0.0001812186
    2    1   13    6       -0.0000016607
    2    1   14    6        0.0000187744
    2    1   15    6       -0.0000002002
    2    1   16    6        0.0000000003
    2    1   17    6       -0.0000000000
    2    1   18    6        0.0000000350
    2    1   19    6       -0.0000000792
    2    1    7    7        0.0001436071
    2    1    8    7       -0.0000000001
    2    1    9    7        0.0000000009
    2    1   10    7       -0.0000000020
    2    1   11    7        0.0000000090
    2    1   12    7        0.0000000046
    2    1   13    7       -0.0000045126
    2    1   14    7       -0.0000004028
    2    1   15    7        0.0000000178
    2    1   16    7        0.0000000190
    2    1   17    7       -0.0000000107
    2    1   18    7       -0.0130027957
    2    1   19    7        0.0002009461
    2    1    8    8        0.0000002031
    2    1    9    8       -0.0079862125
    2    1   10    8        0.0000001774
    2    1   11    8       -0.0000000001
    2    1   12    8       -0.0000262195
    2    1   13    8        0.0000000000
    2    1   14    8       -0.0000000004
    2    1   15    8       -0.0000000506
    2    1   16    8        0.0000000001
    2    1   17    8        0.0000000000
    2    1   18    8        0.0000000195
    2    1   19    8        0.0000000166
    2    1    9    9        0.0002167734
    2    1   10    9       -0.0000001249
    2    1   11    9        0.0000000000
    2    1   12    9        0.0001899927
    2    1   13    9       -0.0000000192
    2    1   14    9        0.0000002169
    2    1   15    9       -0.0000000106
    2    1   16    9        0.0000000000
    2    1   17    9        0.0000000001
    2    1   18    9       -0.0000000594
    2    1   19    9        0.0000001321
    2    1   10   10        0.0001365556
    2    1   11   10       -0.0000000000
    2    1   12   10       -0.0000001132
    2    1   13   10        0.0008871415
    2    1   14   10       -0.0100803851
    2    1   15   10       -0.0000318909
    2    1   16   10        0.0000000320
    2    1   17   10        0.0000000040
    2    1   18   10        0.0000000067
    2    1   19   10       -0.0000000116
    2    1   11   11        0.0001365555
    2    1   12   11        0.0000000000
    2    1   13   11       -0.0100803871
    2    1   14   11       -0.0008871417
    2    1   15   11       -0.0000000320
    2    1   16   11       -0.0000318909
    2    1   17   11       -0.0000000000
    2    1   18   11       -0.0000007155
    2    1   19   11        0.0000000122
    2    1   12   12        0.0002999860
    2    1   13   12        0.0000006078
    2    1   14   12       -0.0000068713
    2    1   15   12       -0.0000000199
    2    1   16   12        0.0000000000
    2    1   17   12        0.0000000000
    2    1   18   12       -0.0000000110
    2    1   19   12        0.0000000273
    2    1   13   13       -0.0000016375
    2    1   14   13        0.0000000000
    2    1   15   13        0.0003648305
    2    1   16   13       -0.0041937223
    2    1   17   13       -0.0000000590
    2    1   18   13        0.0000000042
    2    1   19   13        0.0000006939
    2    1   14   14       -0.0000016375
    2    1   15   14       -0.0041937217
    2    1   16   14       -0.0003648306
    2    1   17   14        0.0000006675
    2    1   18   14       -0.0000000023
    2    1   19   14        0.0000000609
    2    1   15   15        0.0003356124
    2    1   16   15       -0.0000000000
    2    1   17   15       -0.0000000229
    2    1   18   15        0.0000000029
    2    1   19   15       -0.0000000024
    2    1   16   16        0.0003356124
    2    1   17   16        0.0000000000
    2    1   18   16        0.0000000585
    2    1   19   16        0.0000000092
    2    1   17   17        0.0001693492
    2    1   18   17       -0.0000000017
    2    1   19   17        0.0000000022
    2    1   18   18       -0.0000006418
    2    1   19   18       -0.0012327594
    2    1   19   19        0.0002700108
    3    1    3    1        0.0018065671
    3    1    4    1       -0.0000000421
    3    1    5    1        0.0000000000
    3    1    6    1        0.0004340336
    3    1    7    1        0.0000000001
    3    1    8    1        0.0000007237
    3    1    9    1       -0.0023591423
    3    1   10    1       -0.0000002561
    3    1   11    1        0.0000000001
    3    1   12    1       -0.0003217737
    3    1   13    1       -0.0000000000
    3    1   14    1        0.0000000004
    3    1   15    1        0.0000001255
    3    1   16    1       -0.0000000002
    3    1   17    1        0.0000000000
    3    1   18    1        0.0000000076
    3    1   19    1        0.0000000064
    3    1    2    2        0.0184731956
    3    1    3    2        0.0000016496
    3    1    4    2        0.0000000012
    3    1    5    2       -0.0000000000
    3    1    6    2        0.0000019606
    3    1    7    2       -0.0000000001
    3    1    8    2        0.0024142064
    3    1    9    2       -0.0000016197
    3    1   10    2        0.0000000007
    3    1   11    2        0.0000000000
    3    1   12    2       -0.0000017024
    3    1   13    2       -0.0000000413
    3    1   14    2        0.0000004665
    3    1   15    2       -0.0000000002
    3    1   16    2       -0.0000000000
    3    1   17    2       -0.0000000000
    3    1   18    2        0.0000000109
    3    1   19    2       -0.0000000244
    3    1    3    3        0.0004062989
    3    1    4    3        0.0000023619
    3    1    5    3       -0.0000000022
    3    1    6    3       -0.0000715298
    3    1    7    3        0.0000000000
    3    1    8    3       -0.0000042107
    3    1    9    3       -0.0005338899
    3    1   10    3        0.0000001887
    3    1   11    3       -0.0000000001
    3    1   12    3        0.0000109596
    3    1   13    3        0.0000000003
    3    1   14    3       -0.0000000034
    3    1   15    3       -0.0000001244
    3    1   16    3        0.0000000002
    3    1   17    3       -0.0000000014
    3    1   18    3        0.0000000017
    3    1   19    3        0.0000000015
    3    1    4    4        0.0007919487
    3    1    5    4        0.0000000000
    3    1    6    4       -0.0000009465
    3    1    7    4        0.0000000012
    3    1    8    4        0.0000000018
    3    1    9    4       -0.0000005072
    3    1   10    4        0.0009700337
    3    1   11    4        0.0000004655
    3    1   12    4        0.0000004944
    3    1   13    4       -0.0000004240
    3    1   14    4        0.0000048440
    3    1   15    4       -0.0003965415
    3    1   16    4        0.0000002081
    3    1   17    4        0.0000025489
    3    1   18    4       -0.0000000010
    3    1   19    4       -0.0000000002
    3    1    5    5        0.0007919521
    3    1    6    5        0.0000000009
    3    1    7    5        0.0000012739
    3    1    8    5       -0.0000000000
    3    1    9    5        0.0000000005
    3    1   10    5       -0.0000004655
    3    1   11    5        0.0009700331
    3    1   12    5       -0.0000000005
    3    1   13    5        0.0000048440
    3    1   14    5        0.0000004240
    3    1   15    5       -0.0000002081
    3    1   16    5       -0.0003965451
    3    1   17    5       -0.0000000024
    3    1   18    5       -0.0000000022
    3    1   19    5       -0.0000004134
    3    1    6    6        0.0003883209
    3    1    7    6       -0.0000000000
    3    1    8    6       -0.0000016217
    3    1    9    6        0.0000490034
    3    1   10    6       -0.0000009160
    3    1   11    6        0.0000000004
    3    1   12    6       -0.0003861012
    3    1   13    6        0.0000000005
    3    1   14    6       -0.0000000053
    3    1   15    6        0.0000026025
    3    1   16    6       -0.0000000038
    3    1   17    6       -0.0000000021
    3    1   18    6       -0.0000000003
    3    1   19    6       -0.0000000002
    3    1    7    7        0.0002404953
    3    1    8    7       -0.0000000000
    3    1    9    7       -0.0000000000
    3    1   10    7        0.0000000009
    3    1   11    7        0.0000019285
    3    1   12    7        0.0000000001
    3    1   13    7       -0.0000000004
    3    1   14    7        0.0000000001
    3    1   15    7        0.0000000006
    3    1   16    7        0.0000004836
    3    1   17    7        0.0000000000
    3    1   18    7        0.0000041845
    3    1   19    7       -0.0002715531
    3    1    8    8        0.0005943817
    3    1    9    8        0.0000001460
    3    1   10    8       -0.0000000001
    3    1   11    8        0.0000000000
    3    1   12    8       -0.0000001020
    3    1   13    8        0.0000002246
    3    1   14    8       -0.0000025392
    3    1   15    8        0.0000000014
    3    1   16    8       -0.0000000000
    3    1   17    8       -0.0000000000
    3    1   18    8        0.0000000025
    3    1   19    8       -0.0000000055
    3    1    9    9        0.0007385867
    3    1   10    9       -0.0000018105
    3    1   11    9        0.0000000008
    3    1   12    9       -0.0000769829
    3    1   13    9        0.0000000000
    3    1   14    9       -0.0000000004
    3    1   15    9        0.0000005511
    3    1   16    9       -0.0000000008
    3    1   17    9       -0.0000000004
    3    1   18    9       -0.0000000025
    3    1   19    9       -0.0000000022
    3    1   10   10        0.0013867841
    3    1   11   10        0.0000000000
    3    1   12   10        0.0000013292
    3    1   13   10       -0.0000000091
    3    1   14   10        0.0000001033
    3    1   15   10       -0.0003918138
    3    1   16   10        0.0000003936
    3    1   17   10       -0.0000007828
    3    1   18   10       -0.0000000012
    3    1   19   10       -0.0000000002
    3    1   11   11        0.0013867861
    3    1   12   11       -0.0000000006
    3    1   13   11        0.0000001033
    3    1   14   11        0.0000000091
    3    1   15   11       -0.0000003936
    3    1   16   11       -0.0003918136
    3    1   17   11        0.0000000003
    3    1   18   11       -0.0000000017
    3    1   19   11       -0.0000010110
    3    1   12   12        0.0005715743
    3    1   13   12        0.0000000000
    3    1   14   12       -0.0000000002
    3    1   15   12        0.0000002661
    3    1   16   12       -0.0000000004
    3    1   17   12       -0.0000000003
    3    1   18   12        0.0000000006
    3    1   19   12        0.0000000005
    3    1   13   13        0.0006962439
    3    1   14   13        0.0000000002
    3    1   15   13       -0.0000001999
    3    1   16   13        0.0000022980
    3    1   17   13        0.0000000003
    3    1   18   13        0.0000012031
    3    1   19   13       -0.0000000010
    3    1   14   14        0.0006962414
    3    1   15   14        0.0000022980
    3    1   16   14        0.0000001999
    3    1   17   14       -0.0000000036
    3    1   18   14        0.0000001062
    3    1   19   14        0.0000000003
    3    1   15   15        0.0003328543
    3    1   16   15        0.0000000000
    3    1   17   15       -0.0000008390
    3    1   18   15        0.0000000003
    3    1   19   15        0.0000000012
    3    1   16   16        0.0003328568
    3    1   17   16        0.0000000012
    3    1   18   16       -0.0000000016
    3    1   19   16        0.0000008907
    3    1   17   17        0.0004481037
    3    1   18   17       -0.0000000002
    3    1   19   17        0.0000000001
    3    1   18   18        0.0002215917
    3    1   19   18        0.0000016518
    3    1   19   19        0.0002848879
    4    1    4    1        0.0019873518
    4    1    5    1        0.0000000000
    4    1    6    1       -0.0000006438
    4    1    7    1       -0.0000000002
    4    1    8    1        0.0000000008
    4    1    9    1       -0.0000002930
    4    1   10    1        0.0026682048
    4    1   11    1        0.0000012803
    4    1   12    1        0.0000004285
    4    1   13    1       -0.0000000078
    4    1   14    1        0.0000000886
    4    1   15    1       -0.0006316938
    4    1   16    1        0.0000003315
    4    1   17    1        0.0000000206
    4    1   18    1       -0.0000000021
    4    1   19    1        0.0000000005
    4    1    2    2        0.0000017871
    4    1    3    2        0.0000000009
    4    1    4    2        0.0000003668
    4    1    5    2        0.0000000000
    4    1    6    2        0.0000000018
    4    1    7    2       -0.0000000000
    4    1    8    2       -0.0000003737
    4    1    9    2       -0.0000000021
    4    1   10    2        0.0000004277
    4    1   11    2        0.0000000002
    4    1   12    2       -0.0000000031
    4    1   13    2        0.0001691482
    4    1   14    2       -0.0019326104
    4    1   15    2        0.0000001964
    4    1   16    2       -0.0000000001
    4    1   17    2       -0.0000000002
    4    1   18    2        0.0000000019
    4    1   19    2       -0.0000000016
    4    1    3    3        0.0000519008
    4    1    4    3       -0.0031428048
    4    1    5    3        0.0000000000
    4    1    6    3       -0.0000247726
    4    1    7    3        0.0000000481
    4    1    8    3        0.0000000133
    4    1    9    3        0.0000158313
    4    1   10    3       -0.0008493109
    4    1   11    3       -0.0000004075
    4    1   12    3        0.0000026010
    4    1   13    3       -0.0000001067
    4    1   14    3        0.0000012196
    4    1   15    3        0.0001908694
    4    1   16    3       -0.0000001002
    4    1   17    3        0.0000006592
    4    1   18    3        0.0000000003
    4    1   19    3       -0.0000000091
    4    1    4    4        0.0000210107
    4    1    5    4       -0.0000000179
    4    1    6    4        0.0006229510
    4    1    7    4       -0.0000024547
    4    1    8    4       -0.0000012802
    4    1    9    4        0.0017159840
    4    1   10    4       -0.0000234478
    4    1   11    4        0.0000000123
    4    1   12    4       -0.0004645718
    4    1   13    4        0.0000000001
    4    1   14    4       -0.0000000008
    4    1   15    4       -0.0000202513
    4    1   16    4        0.0000000257
    4    1   17    4       -0.0036358103
    4    1   18    4       -0.0000000001
    4    1   19    4        0.0000009640
    4    1    5    5        0.0000193674
    4    1    6    5       -0.0000000000
    4    1    7    5       -0.0013297256
    4    1    8    5       -0.0000000000
    4    1    9    5       -0.0000000000
    4    1   10    5        0.0000000352
    4    1   11    5       -0.0000233308
    4    1   12    5       -0.0000000002
    4    1   13    5       -0.0000000000
    4    1   14    5       -0.0000000002
    4    1   15    5        0.0000000099
    4    1   16    5       -0.0000164609
    4    1   17    5        0.0000067115
    4    1   18    5        0.0000006320
    4    1   19    5        0.0005245789
    4    1    6    6        0.0000439807
    4    1    7    6       -0.0000000173
    4    1    8    6       -0.0000000049
    4    1    9    6        0.0000055962
    4    1   10    6        0.0005985733
    4    1   11    6        0.0000002872
    4    1   12    6        0.0000324376
    4    1   13    6       -0.0000000667
    4    1   14    6        0.0000007624
    4    1   15    6       -0.0029803531
    4    1   16    6        0.0000015638
    4    1   17    6        0.0000034788
    4    1   18    6       -0.0000000046
    4    1   19    6        0.0000000396
    4    1    7    7        0.0000762710
    4    1    8    7        0.0000000000
    4    1    9    7       -0.0000000105
    4    1   10    7       -0.0000032235
    4    1   11    7       -0.0023595461
    4    1   12    7        0.0000000305
    4    1   13    7        0.0000002452
    4    1   14    7        0.0000000219
    4    1   15    7       -0.0000014230
    4    1   16    7       -0.0006002670
    4    1   17    7        0.0000000008
    4    1   18    7       -0.0000000284
    4    1   19    7       -0.0000182071
    4    1    8    8        0.0000570808
    4    1    9    8        0.0000000144
    4    1   10    8       -0.0000002336
    4    1   11    8       -0.0000000002
    4    1   12    8        0.0000000096
    4    1   13    8       -0.0002879935
    4    1   14    8        0.0032904828
    4    1   15    8       -0.0000007266
    4    1   16    8        0.0000000004
    4    1   17    8        0.0000000012
    4    1   18    8       -0.0000000527
    4    1   19    8        0.0000000020
    4    1    9    9        0.0000593191
    4    1   10    9        0.0025852170
    4    1   11    9        0.0000012404
    4    1   12    9       -0.0000183352
    4    1   13    9       -0.0000000016
    4    1   14    9        0.0000000192
    4    1   15    9       -0.0006921304
    4    1   16    9        0.0000003632
    4    1   17    9        0.0000001081
    4    1   18    9       -0.0000000014
    4    1   19    9        0.0000000316
    4    1   10   10        0.0000381317
    4    1   11   10       -0.0000000326
    4    1   12   10       -0.0011365464
    4    1   13   10       -0.0000000014
    4    1   14   10        0.0000000138
    4    1   15   10        0.0000128646
    4    1   16   10       -0.0000000260
    4    1   17   10       -0.0003116439
    4    1   18   10       -0.0000000036
    4    1   19   10        0.0000017762
    4    1   11   11        0.0000367737
    4    1   12   11       -0.0000005458
    4    1   13   11        0.0000000126
    4    1   14   11        0.0000000005
    4    1   15   11        0.0000000007
    4    1   16   11        0.0000130773
    4    1   17   11        0.0000004256
    4    1   18   11        0.0000012801
    4    1   19   11        0.0013039839
    4    1   12   12        0.0000677831
    4    1   13   12        0.0000000204
    4    1   14   12       -0.0000002274
    4    1   15   12        0.0003530943
    4    1   16   12       -0.0000001850
    4    1   17   12       -0.0000002731
    4    1   18   12        0.0000000015
    4    1   19   12        0.0000000077
    4    1   13   13        0.0000188091
    4    1   14   13       -0.0000001135
    4    1   15   13        0.0000000012
    4    1   16   13        0.0000000062
    4    1   17   13       -0.0000001164
    4    1   18   13       -0.0013644704
    4    1   19   13        0.0000008246
    4    1   14   14        0.0000198789
    4    1   15   14        0.0000000072
    4    1   16   14        0.0000000009
    4    1   17   14        0.0000012898
    4    1   18   14       -0.0001219563
    4    1   19   14        0.0000000626
    4    1   15   15        0.0000298018
    4    1   16   15       -0.0000000284
    4    1   17   15        0.0011470305
    4    1   18   15        0.0000000016
    4    1   19   15       -0.0000018599
    4    1   16   16        0.0000286579
    4    1   17   16       -0.0000027192
    4    1   18   16        0.0000003033
    4    1   19   16       -0.0007856185
    4    1   17   17        0.0000002380
    4    1   18   17        0.0000000017
    4    1   19   17       -0.0000000003
    4    1   18   18        0.0000785693
    4    1   19   18       -0.0000000080
    4    1   19   19        0.0000765438
    5    1    5    1        0.0019873523
    5    1    6    1        0.0000000006
    5    1    7    1       -0.0000001628
    5    1    8    1       -0.0000000000
    5    1    9    1        0.0000000003
    5    1   10    1       -0.0000012803
    5    1   11    1        0.0026682055
    5    1   12    1       -0.0000000004
    5    1   13    1        0.0000000886
    5    1   14    1        0.0000000078
    5    1   15    1       -0.0000003315
    5    1   16    1       -0.0006316939
    5    1   17    1       -0.0000000000
    5    1   18    1        0.0000000007
    5    1   19    1        0.0000000221
    5    1    2    2       -0.0000000016
    5    1    3    2       -0.0000000000
    5    1    4    2        0.0000000000
    5    1    5    2        0.0000003668
    5    1    6    2       -0.0000000000
    5    1    7    2       -0.0000000008
    5    1    8    2        0.0000000003
    5    1    9    2        0.0000000000
    5    1   10    2       -0.0000000002
    5    1   11    2        0.0000004277
    5    1   12    2        0.0000000000
    5    1   13    2       -0.0019326110
    5    1   14    2       -0.0001691483
    5    1   15    2        0.0000000001
    5    1   16    2        0.0000001964
    5    1   17    2        0.0000000000
    5    1   18    2        0.0000009894
    5    1   19    2       -0.0000000007
    5    1    3    3       -0.0000000479
    5    1    4    3        0.0000000000
    5    1    5    3       -0.0031427872
    5    1    6    3        0.0000000229
    5    1    7    3        0.0000521497
    5    1    8    3       -0.0000000000
    5    1    9    3       -0.0000000146
    5    1   10    3        0.0000004075
    5    1   11    3       -0.0008493209
    5    1   12    3       -0.0000000024
    5    1   13    3        0.0000012196
    5    1   14    3        0.0000001067
    5    1   15    3        0.0000001001
    5    1   16    3        0.0001908637
    5    1   17    3       -0.0000000006
    5    1   18    3       -0.0000000247
    5    1   19    3       -0.0000097258
    5    1    4    4       -0.0000000521
    5    1    5    4       -0.0000177300
    5    1    6    4       -0.0000000000
    5    1    7    4       -0.0013297394
    5    1    8    4       -0.0000000000
    5    1    9    4       -0.0000000000
    5    1   10    4        0.0000000568
    5    1   11    4        0.0000253897
    5    1   12    4       -0.0000000002
    5    1   13    4        0.0000000099
    5    1   14    4        0.0000000006
    5    1   15    4        0.0000000519
    5    1   16    4        0.0000125720
    5    1   17    4        0.0000067115
    5    1   18    4        0.0000006320
    5    1   19    4        0.0005246137
    5    1    5    5        0.0000000149
    5    1    6    5        0.0006229453
    5    1    7    5        0.0000024546
    5    1    8    5       -0.0000012801
    5    1    9    5        0.0017159874
    5    1   10    5        0.0000259141
    5    1   11    5       -0.0000000134
    5    1   12    5       -0.0004645813
    5    1   13    5       -0.0000000008
    5    1   14    5        0.0000000092
    5    1   15    5        0.0000161905
    5    1   16    5       -0.0000000199
    5    1   17    5        0.0036358127
    5    1   18    5       -0.0000000086
    5    1   19    5       -0.0000009714
    5    1    6    6       -0.0000000406
    5    1    7    6       -0.0000187558
    5    1    8    6        0.0000000000
    5    1    9    6       -0.0000000052
    5    1   10    6       -0.0000002873
    5    1   11    6        0.0005985597
    5    1   12    6       -0.0000000300
    5    1   13    6        0.0000007624
    5    1   14    6        0.0000000667
    5    1   15    6       -0.0000015639
    5    1   16    6       -0.0029803794
    5    1   17    6       -0.0000000032
    5    1   18    6        0.0000000161
    5    1   19    6        0.0000420947
    5    1    7    7       -0.0000000704
    5    1    8    7        0.0000000207
    5    1    9    7       -0.0000113820
    5    1   10    7       -0.0023595472
    5    1   11    7        0.0000032234
    5    1   12    7        0.0000330007
    5    1   13    7       -0.0000000220
    5    1   14    7        0.0000002452
    5    1   15    7       -0.0006002575
    5    1   16    7        0.0000014231
    5    1   17    7        0.0000008501
    5    1   18    7       -0.0000000002
    5    1   19    7        0.0000000167
    5    1    8    8       -0.0000000527
    5    1    9    8       -0.0000000000
    5    1   10    8        0.0000000000
    5    1   11    8       -0.0000002336
    5    1   12    8        0.0000000000
    5    1   13    8        0.0032904775
    5    1   14    8        0.0002879930
    5    1   15    8       -0.0000000003
    5    1   16    8       -0.0000007266
    5    1   17    8       -0.0000000000
    5    1   18    8       -0.0000558463
    5    1   19    8        0.0000000267
    5    1    9    9       -0.0000000548
    5    1   10    9       -0.0000012406
    5    1   11    9        0.0025851978
    5    1   12    9        0.0000000169
    5    1   13    9        0.0000000192
    5    1   14    9        0.0000000017
    5    1   15    9       -0.0000003631
    5    1   16    9       -0.0006921365
    5    1   17    9       -0.0000000001
    5    1   18    9        0.0000000093
    5    1   19    9        0.0000338249
    5    1   10   10       -0.0000000660
    5    1   11   10       -0.0000345570
    5    1   12   10        0.0000005449
    5    1   13   10       -0.0000000121
    5    1   14   10       -0.0000000019
    5    1   15   10       -0.0000000384
    5    1   16   10       -0.0000142897
    5    1   17   10        0.0000004256
    5    1   18   10        0.0000012801
    5    1   19   10        0.0013039740
    5    1   11   11       -0.0000000033
    5    1   12   11       -0.0011365447
    5    1   13   11        0.0000000010
    5    1   14   11       -0.0000000117
    5    1   15   11       -0.0000138051
    5    1   16   11        0.0000000142
    5    1   17   11        0.0003116442
    5    1   18   11       -0.0000000079
    5    1   19   11       -0.0000017860
    5    1   12   12       -0.0000000626
    5    1   13   12       -0.0000002275
    5    1   14   12       -0.0000000194
    5    1   15   12        0.0000001855
    5    1   16   12        0.0003530856
    5    1   17   12        0.0000000003
    5    1   18   12       -0.0000000154
    5    1   19   12        0.0000087451
    5    1   13   13        0.0000033063
    5    1   14   13       -0.0000186403
    5    1   15   13       -0.0000000040
    5    1   16   13        0.0000000004
    5    1   17   13       -0.0000012898
    5    1   18   13        0.0001219672
    5    1   19   13       -0.0000000860
    5    1   14   14       -0.0000033427
    5    1   15   14        0.0000000019
    5    1   16   14       -0.0000000047
    5    1   17   14       -0.0000001164
    5    1   18   14       -0.0013644735
    5    1   19   14        0.0000008225
    5    1   15   15       -0.0000001111
    5    1   16   15       -0.0000287591
    5    1   17   15       -0.0000027192
    5    1   18   15        0.0000003032
    5    1   19   15       -0.0007856193
    5    1   16   16        0.0000000568
    5    1   17   16       -0.0011470305
    5    1   18   16        0.0000000026
    5    1   19   16        0.0000018637
    5    1   17   17       -0.0000000002
    5    1   18   17        0.0000000010
    5    1   19   17       -0.0000000609
    5    1   18   18       -0.0000000708
    5    1   19   18       -0.0000000038
    5    1   19   19       -0.0000000697
    6    1    6    1        0.0009483100
    6    1    7    1        0.0000000000
    6    1    8    1        0.0000010303
    6    1    9    1       -0.0005349392
    6    1   10    1       -0.0000012950
    6    1   11    1        0.0000000006
    6    1   12    1       -0.0011966630
    6    1   13    1       -0.0000000001
    6    1   14    1        0.0000000007
    6    1   15    1        0.0000005201
    6    1   16    1       -0.0000000008
    6    1   17    1       -0.0000000002
    6    1   18    1        0.0000000009
    6    1   19    1        0.0000000007
    6    1    2    2        0.0019593496
    6    1    3    2        0.0000017268
    6    1    4    2        0.0000000015
    6    1    5    2       -0.0000000000
    6    1    6    2        0.0000023370
    6    1    7    2       -0.0000000000
    6    1    8    2        0.0004459484
    6    1    9    2       -0.0000020184
    6    1   10    2        0.0000000009
    6    1   11    2        0.0000000000
    6    1   12    2       -0.0000023188
    6    1   13    2       -0.0000001290
    6    1   14    2        0.0000014579
    6    1   15    2       -0.0000000002
    6    1   16    2       -0.0000000000
    6    1   17    2       -0.0000000000
    6    1   18    2        0.0000000029
    6    1   19    2       -0.0000000066
    6    1    3    3        0.0002326490
    6    1    4    3        0.0000001063
    6    1    5    3       -0.0000000001
    6    1    6    3       -0.0012177585
    6    1    7    3        0.0000000000
    6    1    8    3       -0.0000078644
    6    1    9    3       -0.0001746748
    6    1   10    3        0.0000002472
    6    1   11    3       -0.0000000001
    6    1   12    3        0.0005307806
    6    1   13    3        0.0000000003
    6    1   14    3       -0.0000000039
    6    1   15    3        0.0000001940
    6    1   16    3       -0.0000000003
    6    1   17    3        0.0000000010
    6    1   18    3        0.0000000007
    6    1   19    3        0.0000000006
    6    1    4    4        0.0006355545
    6    1    5    4       -0.0000000000
    6    1    6    4       -0.0000007930
    6    1    7    4        0.0000000004
    6    1    8    4        0.0000000005
    6    1    9    4       -0.0000000973
    6    1   10    4        0.0006907592
    6    1   11    4        0.0000003314
    6    1   12    4        0.0000015633
    6    1   13    4       -0.0000007828
    6    1   14    4        0.0000089439
    6    1   15    4       -0.0014715684
    6    1   16    4        0.0000007722
    6    1   17    4        0.0000018291
    6    1   18    4       -0.0000000025
    6    1   19    4        0.0000000003
    6    1    5    5        0.0006355531
    6    1    6    5        0.0000000007
    6    1    7    5        0.0000004645
    6    1    8    5       -0.0000000000
    6    1    9    5        0.0000000001
    6    1   10    5       -0.0000003315
    6    1   11    5        0.0006907611
    6    1   12    5       -0.0000000014
    6    1   13    5        0.0000089439
    6    1   14    5        0.0000007828
    6    1   15    5       -0.0000007722
    6    1   16    5       -0.0014715694
    6    1   17    5       -0.0000000017
    6    1   18    5       -0.0000000020
    6    1   19    5       -0.0000001002
    6    1    6    6       -0.0003193578
    6    1    7    6       -0.0000000000
    6    1    8    6       -0.0000033223
    6    1    9    6        0.0010861056
    6    1   10    6       -0.0000015230
    6    1   11    6        0.0000000007
    6    1   12    6        0.0008925370
    6    1   13    6        0.0000000009
    6    1   14    6       -0.0000000100
    6    1   15    6        0.0000025258
    6    1   16    6       -0.0000000037
    6    1   17    6       -0.0000000023
    6    1   18    6       -0.0000000018
    6    1   19    6       -0.0000000014
    6    1    7    7        0.0005854233
    6    1    8    7        0.0000000001
    6    1    9    7        0.0000000000
    6    1   10    7        0.0000000005
    6    1   11    7        0.0000009699
    6    1   12    7        0.0000000004
    6    1   13    7        0.0000000002
    6    1   14    7        0.0000000005
    6    1   15    7        0.0000000000
    6    1   16    7        0.0000001525
    6    1   17    7        0.0000000001
    6    1   18    7        0.0000073628
    6    1   19    7       -0.0010773343
    6    1    8    8        0.0004081300
    6    1    9    8        0.0000007625
    6    1   10    8       -0.0000000002
    6    1   11    8       -0.0000000000
    6    1   12    8        0.0000002378
    6    1   13    8        0.0000001174
    6    1   14    8       -0.0000013270
    6    1   15    8        0.0000000018
    6    1   16    8       -0.0000000000
    6    1   17    8       -0.0000000000
    6    1   18    8       -0.0000000007
    6    1   19    8        0.0000000015
    6    1    9    9        0.0003168578
    6    1   10    9       -0.0000003659
    6    1   11    9        0.0000000002
    6    1   12    9       -0.0011289572
    6    1   13    9       -0.0000000000
    6    1   14    9        0.0000000004
    6    1   15    9        0.0000002767
    6    1   16    9       -0.0000000004
    6    1   17    9        0.0000000000
    6    1   18    9       -0.0000000013
    6    1   19    9       -0.0000000012
    6    1   10   10        0.0012569436
    6    1   11   10       -0.0000000000
    6    1   12   10        0.0000015326
    6    1   13   10       -0.0000000480
    6    1   14   10        0.0000005458
    6    1   15   10       -0.0006597554
    6    1   16   10        0.0000006628
    6    1   17   10        0.0000008422
    6    1   18   10       -0.0000000017
    6    1   19   10        0.0000000001
    6    1   11   11        0.0012569441
    6    1   12   11       -0.0000000007
    6    1   13   11        0.0000005458
    6    1   14   11        0.0000000480
    6    1   15   11       -0.0000006628
    6    1   16   11       -0.0006597558
    6    1   17   11       -0.0000000004
    6    1   18   11       -0.0000000013
    6    1   19   11       -0.0000006120
    6    1   12   12       -0.0004654683
    6    1   13   12       -0.0000000001
    6    1   14   12        0.0000000006
    6    1   15   12       -0.0000011362
    6    1   16   12        0.0000000016
    6    1   17   12        0.0000000002
    6    1   18   12        0.0000000035
    6    1   19   12        0.0000000028
    6    1   13   13        0.0002551312
    6    1   14   13       -0.0000000002
    6    1   15   13       -0.0000003707
    6    1   16   13        0.0000042612
    6    1   17   13        0.0000000004
    6    1   18   13        0.0000005140
    6    1   19   13       -0.0000000005
    6    1   14   14        0.0002551330
    6    1   15   14        0.0000042612
    6    1   16   14        0.0000003707
    6    1   17   14       -0.0000000042
    6    1   18   14        0.0000000456
    6    1   19   14       -0.0000000004
    6    1   15   15        0.0002902860
    6    1   16   15       -0.0000000000
    6    1   17   15       -0.0000001661
    6    1   18   15       -0.0000000003
    6    1   19   15        0.0000000005
    6    1   16   16        0.0002902839
    6    1   17   16        0.0000000002
    6    1   18   16       -0.0000000019
    6    1   19   16        0.0000002648
    6    1   17   17        0.0005915422
    6    1   18   17       -0.0000000002
    6    1   19   17        0.0000000002
    6    1   18   18        0.0004805869
    6    1   19   18        0.0000029461
    6    1   19   19        0.0007959712
    7    1    7    1        0.0001158279
    7    1    8    1       -0.0000000001
    7    1    9    1       -0.0000000001
    7    1   10    1       -0.0000000000
    7    1   11    1       -0.0000000977
    7    1   12    1        0.0000000000
    7    1   13    1        0.0000000004
    7    1   14    1        0.0000000001
    7    1   15    1        0.0000000000
    7    1   16    1        0.0000000364
    7    1   17    1        0.0000000000
    7    1   18    1       -0.0000000529
    7    1   19    1       -0.0001008406
    7    1    2    2        0.0000000006
    7    1    3    2       -0.0000000001
    7    1    4    2       -0.0000000000
    7    1    5    2       -0.0000000006
    7    1    6    2        0.0000000000
    7    1    7    2        0.0000000451
    7    1    8    2        0.0000000001
    7    1    9    2        0.0000000001
    7    1   10    2       -0.0000000000
    7    1   11    2       -0.0000000005
    7    1   12    2        0.0000000000
    7    1   13    2        0.0000001974
    7    1   14    2        0.0000000174
    7    1   15    2        0.0000000002
    7    1   16    2       -0.0000000003
    7    1   17    2       -0.0000000001
    7    1   18    2       -0.0001226423
    7    1   19    2        0.0000000622
    7    1    3    3        0.0000000000
    7    1    4    3        0.0000000026
    7    1    5    3        0.0000027804
    7    1    6    3        0.0000000000
    7    1    7    3       -0.0006162567
    7    1    8    3       -0.0000000000
    7    1    9    3       -0.0000000000
    7    1   10    3        0.0000000001
    7    1   11    3        0.0000002768
    7    1   12    3       -0.0000000001
    7    1   13    3       -0.0000000038
    7    1   14    3       -0.0000000004
    7    1   15    3       -0.0000000001
    7    1   16    3       -0.0000000982
    7    1   17    3       -0.0000000000
    7    1   18    3        0.0000005151
    7    1   19    3        0.0002027624
    7    1    4    4       -0.0000004105
    7    1    5    4       -0.0002223607
    7    1    6    4       -0.0000000004
    7    1    7    4        0.0000015404
    7    1    8    4        0.0000000000
    7    1    9    4       -0.0000000006
    7    1   10    4       -0.0000008012
    7    1   11    4       -0.0005864747
    7    1   12    4        0.0000000000
    7    1   13    4        0.0000000273
    7    1   14    4        0.0000000024
    7    1   15    4       -0.0000003332
    7    1   16    4       -0.0001405690
    7    1   17    4       -0.0000000023
    7    1   18    4       -0.0000000020
    7    1   19    4       -0.0000008335
    7    1    5    5        0.0000004105
    7    1    6    5       -0.0000004752
    7    1    7    5       -0.0000000014
    7    1    8    5        0.0000000039
    7    1    9    5       -0.0000006047
    7    1   10    5       -0.0005864751
    7    1   11    5        0.0000008012
    7    1   12    5        0.0000000344
    7    1   13    5       -0.0000000024
    7    1   14    5        0.0000000273
    7    1   15    5       -0.0001405718
    7    1   16    5        0.0000003333
    7    1   17    5       -0.0000025308
    7    1   18    5        0.0000000000
    7    1   19    5        0.0000000007
    7    1    6    6        0.0000000000
    7    1    7    6        0.0001725855
    7    1    8    6        0.0000000000
    7    1    9    6        0.0000000000
    7    1   10    6        0.0000000001
    7    1   11    6        0.0000001413
    7    1   12    6        0.0000000002
    7    1   13    6       -0.0000000012
    7    1   14    6        0.0000000001
    7    1   15    6        0.0000000035
    7    1   16    6        0.0000025233
    7    1   17    6        0.0000000001
    7    1   18    6        0.0000000441
    7    1   19    6       -0.0005362828
    7    1    7    7       -0.0000000000
    7    1    8    7       -0.0000004305
    7    1    9    7        0.0004652383
    7    1   10    7        0.0000020824
    7    1   11    7       -0.0000000009
    7    1   12    7       -0.0004294088
    7    1   13    7        0.0000000002
    7    1   14    7       -0.0000000017
    7    1   15    7        0.0000005557
    7    1   16    7       -0.0000000008
    7    1   17    7       -0.0000000009
    7    1   18    7       -0.0000000004
    7    1   19    7       -0.0000000003
    7    1    8    8        0.0000000000
    7    1    9    8        0.0000000000
    7    1   10    8        0.0000000001
    7    1   11    8        0.0000000001
    7    1   12    8       -0.0000000002
    7    1   13    8       -0.0000027373
    7    1   14    8       -0.0000002419
    7    1   15    8       -0.0000000009
    7    1   16    8        0.0000000023
    7    1   17    8        0.0000000005
    7    1   18    8        0.0006604847
    7    1   19    8       -0.0000004910
    7    1    9    9        0.0000000001
    7    1   10    9       -0.0000000009
    7    1   11    9       -0.0000019879
    7    1   12    9        0.0000000001
    7    1   13    9       -0.0000000003
    7    1   14    9        0.0000000002
    7    1   15    9        0.0000000009
    7    1   16    9        0.0000006634
    7    1   17    9        0.0000000001
    7    1   18    9       -0.0000002454
    7    1   19    9       -0.0004444600
    7    1   10   10       -0.0000004034
    7    1   11   10       -0.0004552206
    7    1   12   10        0.0000000003
    7    1   13   10        0.0000002409
    7    1   14   10        0.0000000214
    7    1   15   10        0.0000002660
    7    1   16   10        0.0001406592
    7    1   17   10        0.0000000005
    7    1   18   10       -0.0000000029
    7    1   19   10       -0.0000010095
    7    1   11   11        0.0000004035
    7    1   12   11        0.0000006053
    7    1   13   11       -0.0000000214
    7    1   14   11        0.0000002409
    7    1   15   11        0.0001406599
    7    1   16   11       -0.0000002660
    7    1   17   11        0.0000011960
    7    1   18   11        0.0000000004
    7    1   19   11        0.0000000003
    7    1   12   12       -0.0000000001
    7    1   13   12       -0.0000000005
    7    1   14   12       -0.0000000001
    7    1   15   12        0.0000000012
    7    1   16   12        0.0000007871
    7    1   17   12       -0.0000000000
    7    1   18   12        0.0000003331
    7    1   19   12        0.0002312335
    7    1   13   13        0.0000394609
    7    1   14   13       -0.0002213155
    7    1   15   13        0.0000002044
    7    1   16   13       -0.0000000184
    7    1   17   13        0.0000000038
    7    1   18   13       -0.0000001280
    7    1   19   13       -0.0000000002
    7    1   14   14       -0.0000394609
    7    1   15   14        0.0000000184
    7    1   16   14        0.0000002044
    7    1   17   14        0.0000000003
    7    1   18   14        0.0000014497
    7    1   19   14       -0.0000000017
    7    1   15   15       -0.0000000132
    7    1   16   15       -0.0000045691
    7    1   17   15        0.0000000013
    7    1   18   15       -0.0000000017
    7    1   19   15        0.0000010564
    7    1   16   16        0.0000000132
    7    1   17   16        0.0000009181
    7    1   18   16       -0.0000000002
    7    1   19   16       -0.0000000015
    7    1   17   17       -0.0000000000
    7    1   18   17       -0.0000000000
    7    1   19   17       -0.0000000001
    7    1   18   18        0.0000000033
    7    1   19   18       -0.0000000019
    7    1   19   19        0.0000000027
    8    1    8    1        0.0026369456
    8    1    9    1       -0.0000004821
    8    1   10    1        0.0000000006
    8    1   11    1        0.0000000000
    8    1   12    1       -0.0000008176
    8    1   13    1       -0.0000000084
    8    1   14    1        0.0000000952
    8    1   15    1       -0.0000000002
    8    1   16    1       -0.0000000000
    8    1   17    1       -0.0000000000
    8    1   18    1        0.0000000120
    8    1   19    1       -0.0000000267
    8    1    2    2       -0.0000003501
    8    1    3    2        0.0018827707
    8    1    4    2       -0.0000003242
    8    1    5    2        0.0000000003
    8    1    6    2       -0.0002127359
    8    1    7    2        0.0000000001
    8    1    8    2       -0.0000000707
    8    1    9    2       -0.0025055529
    8    1   10    2       -0.0000004505
    8    1   11    2        0.0000000002
    8    1   12    2        0.0006205670
    8    1   13    2        0.0000000000
    8    1   14    2       -0.0000000003
    8    1   15    2       -0.0000000577
    8    1   16    2        0.0000000001
    8    1   17    2        0.0000000001
    8    1   18    2        0.0000000089
    8    1   19    2        0.0000000076
    8    1    3    3       -0.0000021519
    8    1    4    3        0.0000000067
    8    1    5    3       -0.0000000000
    8    1    6    3       -0.0000020538
    8    1    7    3       -0.0000000000
    8    1    8    3        0.0001250550
    8    1    9    3       -0.0000016095
    8    1   10    3       -0.0000000033
    8    1   11    3        0.0000000000
    8    1   12    3       -0.0000010043
    8    1   13    3        0.0000000757
    8    1   14    3       -0.0000008554
    8    1   15    3        0.0000000121
    8    1   16    3       -0.0000000000
    8    1   17    3       -0.0000000000
    8    1   18    3        0.0000000017
    8    1   19    3       -0.0000000037
    8    1    4    4       -0.0000018139
    8    1    5    4       -0.0000000000
    8    1    6    4        0.0000000084
    8    1    7    4        0.0000000000
    8    1    8    4        0.0000009220
    8    1    9    4        0.0000000037
    8    1   10    4        0.0000012795
    8    1   11    4        0.0000000006
    8    1   12    4        0.0000000019
    8    1   13    4        0.0000116290
    8    1   14    4       -0.0001328672
    8    1   15    4       -0.0000023692
    8    1   16    4        0.0000000012
    8    1   17    4        0.0000000081
    8    1   18    4       -0.0000000004
    8    1   19    4       -0.0000000002
    8    1    5    5       -0.0000018139
    8    1    6    5       -0.0000000000
    8    1    7    5        0.0000000036
    8    1    8    5       -0.0000000009
    8    1    9    5       -0.0000000000
    8    1   10    5       -0.0000000006
    8    1   11    5        0.0000012795
    8    1   12    5       -0.0000000000
    8    1   13    5       -0.0001328682
    8    1   14    5       -0.0000116290
    8    1   15    5       -0.0000000012
    8    1   16    5       -0.0000023692
    8    1   17    5       -0.0000000000
    8    1   18    5       -0.0000005854
    8    1   19    5        0.0000000054
    8    1    6    6       -0.0000023251
    8    1    7    6        0.0000000000
    8    1    8    6        0.0000675204
    8    1    9    6       -0.0000006434
    8    1   10    6       -0.0000000022
    8    1   11    6        0.0000000000
    8    1   12    6       -0.0000005387
    8    1   13    6       -0.0000000086
    8    1   14    6        0.0000000974
    8    1   15    6        0.0000000155
    8    1   16    6       -0.0000000000
    8    1   17    6       -0.0000000000
    8    1   18    6        0.0000000003
    8    1   19    6       -0.0000000007
    8    1    7    7       -0.0000021254
    8    1    8    7        0.0000000000
    8    1    9    7        0.0000000000
    8    1   10    7        0.0000000000
    8    1   11    7        0.0000000029
    8    1   12    7       -0.0000000001
    8    1   13    7       -0.0000005526
    8    1   14    7       -0.0000000488
    8    1   15    7       -0.0000000003
    8    1   16    7        0.0000000071
[...]
   16   13   16   16       -0.0002201610
   16   13   17   16        0.0000000141
   16   13   18   16       -0.0000031959
   16   13   19   16       -0.0000000102
   16   13   17   17       -0.0001008453
   16   13   18   17       -0.0000398188
   16   13   19   17        0.0000002285
   16   13   18   18        0.0000017705
   16   13   19   18        0.0024382159
   16   13   19   19       -0.0001576558
   17   13   17   13        0.0121249553
   17   13   18   13       -0.0000000094
   17   13   19   13       -0.0000000020
   17   13   14   14        0.0000000017
   17   13   15   14        0.0000001040
   17   13   16   14        0.0000256368
   17   13   17   14       -0.0000000000
   17   13   18   14       -0.0000003705
   17   13   19   14       -0.0002138601
   17   13   15   15       -0.0000000151
   17   13   16   15        0.0000002425
   17   13   17   15        0.0000093818
   17   13   18   15       -0.0027961924
   17   13   19   15        0.0000596660
   17   13   16   16       -0.0000000282
   17   13   17   16       -0.0001078836
   17   13   18   16       -0.0002432424
   17   13   19   16        0.0000051690
   17   13   17   17       -0.0000000038
   17   13   18   17        0.0000010106
   17   13   19   17       -0.0000000344
   17   13   18   18       -0.0000000070
   17   13   19   18        0.0000021982
   17   13   19   19       -0.0000003310
   18   13   18   13        0.0065708837
   18   13   19   13       -0.0000022227
   18   13   14   14        0.0000402737
   18   13   15   14       -0.0000000039
   18   13   16   14       -0.0000000016
   18   13   17   14        0.0000003687
   18   13   18   14        0.0000000462
   18   13   19   14        0.0000000245
   18   13   15   15        0.0000020802
   18   13   16   15       -0.0000063553
   18   13   17   15       -0.0014335071
   18   13   18   15       -0.0000001697
   18   13   19   15       -0.0003452031
   18   13   16   16       -0.0001429226
   18   13   17   16       -0.0001247051
   18   13   18   16        0.0000019382
   18   13   19   16        0.0039687507
   18   13   17   17        0.0000007653
   18   13   18   17       -0.0000000025
   18   13   19   17       -0.0000001708
   18   13   18   18       -0.0002677951
   18   13   19   18       -0.0000000000
   18   13   19   19       -0.0002281230
   19   13   19   13        0.0009784230
   19   13   14   14       -0.0000000129
   19   13   15   14        0.0000051600
   19   13   16   14       -0.0000008744
   19   13   17   14        0.0002138492
   19   13   18   14        0.0000000256
   19   13   19   14        0.0000000001
   19   13   15   15       -0.0000002071
   19   13   16   15        0.0000000057
   19   13   17   15       -0.0000051400
   19   13   18   15       -0.0000840275
   19   13   19   15        0.0000024839
   19   13   16   16        0.0000003218
   19   13   17   16       -0.0000004497
   19   13   18   16        0.0009658651
   19   13   19   16       -0.0000283065
   19   13   17   17       -0.0000000116
   19   13   18   17        0.0000000935
   19   13   19   17       -0.0000000105
   19   13   18   18        0.0000000917
   19   13   19   18       -0.0000195442
   19   13   19   19        0.0000009664
   14   14   14   14        0.1153703504
   14   14   15   14       -0.0000001731
   14   14   16   14        0.0000000779
   14   14   17   14        0.0000000167
   14   14   18   14        0.0000131461
   14   14   19   14        0.0000000079
   14   14   15   15        0.1032597088
   14   14   16   15        0.0001156455
   14   14   17   15        0.0000369483
   14   14   18   15        0.0000000106
   14   14   19   15        0.0000066226
   14   14   16   16        0.0888241387
   14   14   17   16        0.0000064410
   14   14   18   16        0.0000000302
   14   14   19   16        0.0000462571
   14   14   17   17        0.1015943266
   14   14   18   17        0.0000000011
   14   14   19   17        0.0000000061
   14   14   18   18        0.0969913567
   14   14   19   18       -0.0000019431
   14   14   19   19        0.0918725810
   15   14   15   14        0.0052240059
   15   14   16   14        0.0002684912
   15   14   17   14        0.0000270598
   15   14   18   14       -0.0000000048
   15   14   19   14        0.0000006300
   15   14   15   15       -0.0002201608
   15   14   16   15       -0.0000014332
   15   14   17   15       -0.0000001544
   15   14   18   15       -0.0000008090
   15   14   19   15        0.0000000020
   15   14   16   16       -0.0001546286
   15   14   17   16       -0.0000000170
   15   14   18   16        0.0000130687
   15   14   19   16       -0.0000002636
   15   14   17   17       -0.0001008452
   15   14   18   17       -0.0000398224
   15   14   19   17        0.0000002373
   15   14   18   18        0.0000017700
   15   14   19   18        0.0024382111
   15   14   19   19       -0.0001576539
   16   14   16   14        0.0010693110
   16   14   17   14        0.0000044974
   16   14   18   14        0.0000000079
   16   14   19   14        0.0000014069
   16   14   15   15       -0.0000134059
   16   14   16   15       -0.0000170022
   16   14   17   15       -0.0000000139
   16   14   18   15       -0.0000014445
   16   14   19   15        0.0000001712
   16   14   16   16       -0.0000191987
   16   14   17   16       -0.0000001541
   16   14   18   16       -0.0000002994
   16   14   19   16       -0.0000000026
   16   14   17   17       -0.0000087722
   16   14   18   17        0.0004577407
   16   14   19   17       -0.0000026622
   16   14   18   18        0.0000001486
   16   14   19   18        0.0002121081
   16   14   19   19       -0.0000137088
   17   14   17   14        0.0121249556
   17   14   18   14        0.0000000005
   17   14   19   14        0.0000000046
   17   14   15   15        0.0000002666
   17   14   16   15        0.0000000177
   17   14   17   15       -0.0001078836
   17   14   18   15       -0.0002432646
   17   14   19   15        0.0000052191
   17   14   16   16        0.0000003089
   17   14   17   16       -0.0000093818
   17   14   18   16        0.0027961976
   17   14   19   16       -0.0000596707
   17   14   17   17        0.0000000428
   17   14   18   17        0.0000000868
   17   14   19   17        0.0000000013
   17   14   18   18       -0.0000000082
   17   14   19   18       -0.0000248460
   17   14   19   19        0.0000037341
   18   14   18   14        0.0065700905
   18   14   19   14       -0.0000022134
   18   14   15   15        0.0000003834
   18   14   16   15        0.0000694631
   18   14   17   15       -0.0001247097
   18   14   18   15        0.0000019370
   18   14   19   15        0.0039679645
   18   14   16   16       -0.0000128455
   18   14   17   16        0.0014334956
   18   14   18   16        0.0000001596
   18   14   19   16        0.0003452494
   18   14   17   17        0.0000000641
   18   14   18   17        0.0000000014
   18   14   19   17        0.0000019332
   18   14   18   18       -0.0000236918
   18   14   19   18        0.0000000132
   18   14   19   19       -0.0000201810
   19   14   19   14        0.0009784028
   19   14   15   15       -0.0000000133
   19   14   16   15       -0.0000000662
   19   14   17   15       -0.0000004419
   19   14   18   15        0.0009658694
   19   14   19   15       -0.0000283014
   19   14   16   16        0.0000000294
   19   14   17   16        0.0000051395
   19   14   18   16        0.0000840232
   19   14   19   16       -0.0000024415
   19   14   17   17        0.0000000058
   19   14   18   17       -0.0000010570
   19   14   19   17        0.0000001198
   19   14   18   18        0.0000000142
   19   14   19   18       -0.0000017287
   19   14   19   19        0.0000000858
   15   15   15   15        0.1050147591
   15   15   16   15       -0.0000151394
   15   15   17   15        0.0000859514
   15   15   18   15        0.0000000141
   15   15   19   15        0.0000001955
   15   15   16   16        0.0888683391
   15   15   17   16        0.0000001227
   15   15   18   16        0.0000002407
   15   15   19   16        0.0000392087
   15   15   17   17        0.0972259371
   15   15   18   17       -0.0000000024
   15   15   19   17        0.0000000043
   15   15   18   18        0.0912522878
   15   15   19   18       -0.0001448380
   15   15   19   19        0.0913455363
   16   15   16   15        0.0028444797
   16   15   17   15        0.0000001235
   16   15   18   15       -0.0000000840
   16   15   19   15        0.0000482794
   16   15   16   16        0.0000151394
   16   15   17   16        0.0000854290
   16   15   18   16        0.0000000005
   16   15   19   16       -0.0000003239
   16   15   17   17        0.0000000000
   16   15   18   17       -0.0000000001
   16   15   19   17       -0.0000000007
   16   15   18   18       -0.0000000048
   16   15   19   18        0.0000000031
   16   15   19   19       -0.0000000050
   17   15   17   15        0.0078487758
   17   15   18   15       -0.0000000052
   17   15   19   15        0.0000000006
   17   15   16   16        0.0000857707
   17   15   17   16        0.0000000000
   17   15   18   16       -0.0000318626
   17   15   19   16        0.0003257747
   17   15   17   17       -0.0000013684
   17   15   18   17        0.0000000085
   17   15   19   17        0.0000000005
   17   15   18   18        0.0001284334
   17   15   19   18        0.0000007932
   17   15   19   19        0.0001311471
   18   15   18   15        0.0020044259
   18   15   19   15       -0.0000436906
   18   15   16   16       -0.0000000014
   18   15   17   16        0.0000318625
   18   15   18   16       -0.0000000104
   18   15   19   16        0.0000000063
   18   15   17   17        0.0000000062
   18   15   18   17        0.0000126840
   18   15   19   17        0.0000000159
   18   15   18   18       -0.0000000071
   18   15   19   18       -0.0000000391
   18   15   19   19        0.0000000022
   19   15   19   15        0.0051494585
   19   15   16   16       -0.0000003373
   19   15   17   16       -0.0003257927
   19   15   18   16        0.0000000061
   19   15   19   16       -0.0000000094
   19   15   17   17       -0.0000000001
   19   15   18   17        0.0000001285
   19   15   19   17        0.0000146939
   19   15   18   18       -0.0000002695
   19   15   19   18        0.0000000085
   19   15   19   19       -0.0000002813
   16   16   16   16        0.1050147737
   16   16   17   16       -0.0000003715
   16   16   18   16       -0.0000000248
   16   16   19   16       -0.0001367008
   16   16   17   17        0.0972259373
   16   16   18   17       -0.0000000084
   16   16   19   17       -0.0000000007
   16   16   18   18        0.0912522881
   16   16   19   18       -0.0001448382
   16   16   19   19        0.0913454974
   17   16   17   16        0.0078487764
   17   16   18   16       -0.0000000051
   17   16   19   16        0.0000000014
   17   16   17   17        0.0000000020
   17   16   18   17       -0.0000000138
   17   16   19   17        0.0000012599
   17   16   18   18       -0.0000001874
   17   16   19   18        0.0000000012
   17   16   19   19       -0.0000001906
   18   16   18   16        0.0020045083
   18   16   19   16       -0.0000436897
   18   16   17   17        0.0000000142
   18   16   18   17       -0.0000000192
   18   16   19   17        0.0000000012
   18   16   18   18       -0.0000000782
   18   16   19   18       -0.0000263011
   18   16   19   19        0.0000020028
   19   16   19   16        0.0051503241
   19   16   17   17        0.0000009893
   19   16   18   17        0.0000000007
   19   16   19   17       -0.0000000215
   19   16   18   18       -0.0001843976
   19   16   19   18        0.0000011594
   19   16   19   19       -0.0001934593
   17   17   17   17        0.1026451070
   17   17   18   17       -0.0000000051
   17   17   19   17        0.0000000021
   17   17   18   18        0.0939220841
   17   17   19   18       -0.0000802295
   17   17   19   19        0.0916276960
   18   17   18   17        0.0016164553
   18   17   19   17       -0.0000090155
   18   17   18   18        0.0000000031
   18   17   19   18        0.0000000000
   18   17   19   19        0.0000000011
   19   17   19   17        0.0013327749
   19   17   18   18        0.0000000010
   19   17   19   18        0.0000000016
   19   17   19   19        0.0000000009
   18   18   18   18        0.1013216765
   18   18   19   18        0.0000000050
   18   18   19   19        0.0935127935
   19   18   19   18        0.0038891135
   19   18   19   19       -0.0001726517
   19   19   19   19        0.0962034461
 end_two_electron_integrals


 output epsi filename:./pspw_hf_H2.emovecs

 Total PSPW energy     :  -0.8340345079E+00


=== Spin Contamination ===

 <Sexact^2> =    0.0000000000000000     
 <S^2>      =    0.0000000000000000     



== Center of Charge ==

spin up     (    0.0000,    0.0000,    0.0000 )
spin down   (    0.0000,    0.0000,    0.0000 )
     total  (    0.0000,    0.0000,    0.0000 )
ionic       (    0.0000,    0.0000,    0.0000 )


== Molecular Dipole wrt Center of Mass ==

mu   =  (   -0.0000,   -0.0000,   -0.0000 ) au
|mu| =     0.0000 au,       0.0000 Debye

 output psi filename:./pspw_hf_H2.movecs

 Writing Crystallographic Information File:./H2.cif
   - cell not shifted (nwpw:cif_shift_cell .false.)


== Timing ==

cputime in seconds
  prologue    :   0.141195E+02
  main loop   :   0.158067E+04
  epilogue    :   0.182747E-01
  total       :   0.159481E+04
  cputime/step:   0.107529E+02       (     147 evalulations,      61 linesearches)


Time spent doing                        total          step       percent
  total time                 :   0.159481E+04  0.108491E+02       100.0 %
  i/o time                   :   0.693553E+01  0.471804E-01         0.4 %
  FFTs                       :   0.136130E+04  0.926053E+01        85.4 %
  dot products               :   0.199869E+01  0.135966E-01         0.1 %
  geodesic                   :   0.147754E+00  0.100513E-02         0.0 %
  ffm_dgemm                  :   0.198158E-01  0.134801E-03         0.0 %
  fmf_dgemm                  :   0.952020E-01  0.647633E-03         0.0 %
  mmm_dgemm                  :   0.182328E-02  0.124032E-04         0.0 %
  m_diagonalize              :   0.639030E-02  0.434714E-04         0.0 %
  local pseudopotentials     :   0.199884E-01  0.135975E-03         0.0 %
  non-local pseudopotentials :   0.346895E+01  0.235983E-01         0.2 %
  structure factors          :   0.144693E+01  0.984309E-02         0.1 %
  phase factors              :   0.567200E-05  0.385850E-07         0.0 %
  masking and packing        :   0.540620E+02  0.367769E+00         3.4 %
  queue fft                  :   0.350407E+01  0.238372E-01         0.2 %
  queue fft (serial)         :   0.145549E+01  0.990127E-02         0.1 %
  queue fft (message passing):   0.189484E+01  0.128901E-01         0.1 %
  HFX potential              :   0.851485E+03  0.579241E+01        53.4 %
  non-local psp FFM          :   0.179107E+01  0.121841E-01         0.1 %
  non-local psp FMF          :   0.463401E+00  0.315239E-02         0.0 %
  non-local psp FFM A        :   0.581245E+00  0.395405E-02         0.0 %
  non-local psp FFM B        :   0.380876E+00  0.259099E-02         0.0 %

== HFX Counters ==
  HFX Evalulations         =   147
  Lin ACE HFX Evalulations =     0


     >>>  JOB COMPLETED     AT Thu May  1 21:54:45 2025  <<<

 Task  times  cpu:     1594.1s     wall:     1594.8s
 Summary of allocated global arrays
-----------------------------------
  No active global arrays


MA_summarize_allocated_blocks: starting scan ...
MA_summarize_allocated_blocks: scan completed: 0 heap blocks, 0 stack blocks
MA usage statistics:

	allocation statistics:
					      heap	     stack
					      ----	     -----
	current number of blocks	         0	         0
	maximum number of blocks	       313	        17
	current total bytes		         0	         0
	maximum total bytes		 955123768	 228700296
	maximum total K-bytes		    955124	    228701
	maximum total M-bytes		       956	       229


                                NWChem Input Module
                                -------------------




                                     CITATION
                                     --------
                Please cite the following reference when publishing
                           results obtained with NWChem:

          E. Apra, E. J. Bylaska, W. A. de Jong, N. Govind, K. Kowalski,
       T. P. Straatsma, M. Valiev, H. J. J. van Dam, Y. Alexeev, J. Anchell,
       V. Anisimov, F. W. Aquino, R. Atta-Fynn, J. Autschbach, N. P. Bauman,
     J. C. Becca, D. E. Bernholdt, K. Bhaskaran-Nair, S. Bogatko, P. Borowski,
         J. Boschen, J. Brabec, A. Bruner, E. Cauet, Y. Chen, G. N. Chuev,
      C. J. Cramer, J. Daily, M. J. O. Deegan, T. H. Dunning Jr., M. Dupuis,
   K. G. Dyall, G. I. Fann, S. A. Fischer, A. Fonari, H. Fruchtl, L. Gagliardi,
      J. Garza, N. Gawande, S. Ghosh, K. Glaesemann, A. W. Gotz, J. Hammond,
       V. Helms, E. D. Hermes, K. Hirao, S. Hirata, M. Jacquelin, L. Jensen,
   B. G. Johnson, H. Jonsson, R. A. Kendall, M. Klemm, R. Kobayashi, V. Konkov,
      S. Krishnamoorthy, M. Krishnan, Z. Lin, R. D. Lins, R. J. Littlefield,
      A. J. Logsdail, K. Lopata, W. Ma, A. V. Marenich, J. Martin del Campo,
   D. Mejia-Rodriguez, J. E. Moore, J. M. Mullin, T. Nakajima, D. R. Nascimento,
    J. A. Nichols, P. J. Nichols, J. Nieplocha, A. Otero-de-la-Roza, B. Palmer,
    A. Panyala, T. Pirojsirikul, B. Peng, R. Peverati, J. Pittner, L. Pollack,
   R. M. Richard, P. Sadayappan, G. C. Schatz, W. A. Shelton, D. W. Silverstein,
   D. M. A. Smith, T. A. Soares, D. Song, M. Swart, H. L. Taylor, G. S. Thomas,
            V. Tipparaju, D. G. Truhlar, K. Tsemekhman, T. Van Voorhis,
      A. Vazquez-Mayagoitia, P. Verma, O. Villa, A. Vishnu, K. D. Vogiatzis,
        D. Wang, J. H. Weare, M. J. Williamson, T. L. Windus, K. Wolinski,
        A. T. Wong, Q. Wu, C. Yang, Q. Yu, M. Zacharias, Z. Zhang, Y. Zhao,
                                and R. J. Harrison
                        "NWChem: Past, present, and future
                         J. Chem. Phys. 152, 184102 (2020)
                               doi:10.1063/5.0004997

                                      AUTHORS
                                      -------
  E. Apra, E. J. Bylaska, N. Govind, K. Kowalski, M. Valiev, D. Mejia-Rodriguez,
       A. Kunitsa, N. P. Bauman, A. Panyala, W. A. de Jong, T. P. Straatsma,
   H. J. J. van Dam, D. Wang, T. L. Windus, J. Hammond, J. Autschbach, A. Woods,
    K. Bhaskaran-Nair, J. Brabec, K. Lopata, S. A. Fischer, S. Krishnamoorthy,
     M. Jacquelin, W. Ma, M. Klemm, O. Villa, Y. Chen, V. Anisimov, F. Aquino,
     S. Hirata, M. T. Hackler, E. Hermes, L. Jensen, J. E. Moore, J. C. Becca,
      V. Konjkov, T. Risthaus, M. Malagoli, A. Marenich, A. Otero-de-la-Roza,
        J. Mullin, P. Nichols, R. Peverati, J. Pittner, Y. Zhao, P.-D. Fan,
        A. Fonari, M. J. Williamson, R. J. Harrison, J. R. Rehr, M. Dupuis,
     D. Silverstein, D. M. A. Smith, J. Nieplocha, V. Tipparaju, M. Krishnan,
     B. E. Van Kuiken, A. Vazquez-Mayagoitia, M. Swart, Q. Wu, T. Van Voorhis,
     A. A. Auer, M. Nooijen, L. D. Crosby, E. Brown, G. Cisneros, G. I. Fann,
   H. Fruchtl, J. Garza, K. Hirao, R. A. Kendall, J. A. Nichols, K. Tsemekhman,
    K. Wolinski, J. Anchell, D. E. Bernholdt, P. Borowski, T. Clark, D. Clerc,
   H. Dachsel, M. J. O. Deegan, K. Dyall, D. Elwood, E. Glendening, M. Gutowski,
   A. C. Hess, J. Jaffe, B. G. Johnson, J. Ju, R. Kobayashi, R. Kutteh, Z. Lin,
   R. Littlefield, X. Long, B. Meng, T. Nakajima, S. Niu, L. Pollack, M. Rosing,
   K. Glaesemann, G. Sandrone, M. Stave, H. Taylor, G. Thomas, J. H. van Lenthe,
                               A. T. Wong, Z. Zhang.

 Total times  cpu:     1594.1s     wall:     1594.9s
