 argument  1 = H2-3.5.nw



============================== echo of input deck ==============================
title "swnc: e theory=pspw4 xc=hf formula=H2 charge=0 mult=1"
#machinejob:expert

echo

start pspw_hf_H2

memory heap 1200 mb stack 1200 mb global 10 mb

charge 0

geometry
H    0.00000    0.00000   -1.75000
H    0.00000    0.00000    1.75000
end

nwpw
  ### pseudopotential block begin ###
  ### pseudopotential block end   ###
  simulation_cell
     SC 20.0000
     boundary_conditions aperiodic
  end

  cutoff 50.0
  mult 1
  xc hf
  lmbfgs
  tolerances 1.0e-9 1.0e-9

  virtual 18
end
set nwpw:cif_filename H2

#set nwpw:CI_maxit_orb 15
#set nwpw:CI_maxit_linesearch 15
set pspw:HFX_screening_radius 14.0


set nwpw:2qintegrals .true.
#set nwpw:3x3_virtual .true.

task pspw energy

================================================================================


                                         
                                         


             Northwest Computational Chemistry Package (NWChem) 7.2.2
             --------------------------------------------------------


                    Environmental Molecular Sciences Laboratory
                       Pacific Northwest National Laboratory
                                Richland, WA 99352

                              Copyright (c) 1994-2022
                       Pacific Northwest National Laboratory
                            Battelle Memorial Institute

             NWChem is an open-source computational chemistry package
                        distributed under the terms of the
                      Educational Community License (ECL) 2.0
             A copy of the license is included with this distribution
                              in the LICENSE.TXT file

                                  ACKNOWLEDGMENT
                                  --------------

            This software and its documentation were developed at the
            EMSL at Pacific Northwest National Laboratory, a multiprogram
            national laboratory, operated for the U.S. Department of Energy
            by Battelle under Contract Number DE-AC05-76RL01830. Support
            for this work was provided by the Department of Energy Office
            of Biological and Environmental Research, Office of Basic
            Energy Sciences, and the Office of Advanced Scientific Computing.


           Job information
           ---------------

    hostname        = LAPTOP-JJQSTSEL
    program         = nwchem
    date            = Thu May  1 21:54:54 2025

    compiled        = Fri_Jun_07_07:50:04_2024
    source          = /home/conda/feedstock_root/build_artifacts/nwchem_1717738148552/work
    nwchem branch   = 7.2.2
    nwchem revision = 64ba0f0
    ga revision     = 5.8.0
    use scalapack   = T
    input           = H2-3.5.nw
    prefix          = pspw_hf_H2.
    data base       = ./pspw_hf_H2.db
    status          = startup
    nproc           =        1
    time left       =     -1s



           Memory information
           ------------------

    heap     =  157286400 doubles =   1200.0 Mbytes
    stack    =  157286397 doubles =   1200.0 Mbytes
    global   =    1310720 doubles =     10.0 Mbytes (distinct from heap & stack)
    total    =  315883517 doubles =   2410.0 Mbytes
    verify   = yes
    hardfail = no 


           Directory information
           ---------------------

  0 permanent = .
  0 scratch   = .




                                NWChem Input Module
                                -------------------


               swnc: e theory=pspw4 xc=hf formula=H2 charge=0 mult=1
               -----------------------------------------------------

 Scaling coordinates for geometry "geometry" by  1.889725989
 (inverse scale =  0.529177249)

 ORDER OF PRIMARY AXIS IS BEING SET TO 4
 D4H symmetry detected

          ------
          auto-z
          ------
     1 autoz failed with cvr_scaling = 1.2 changing to 1.3
     2 autoz failed with cvr_scaling = 1.3 changing to 1.4
     3 autoz failed with cvr_scaling = 1.4 changing to 1.5
     4 autoz failed with cvr_scaling = 1.5 changing to 1.6
     5 autoz failed with cvr_scaling = 1.6 changing to 1.7

 AUTOZ failed to generate good internal coordinates.
 Cartesian coordinates will be used in optimizations.



                             Geometry "geometry" -> ""
                             -------------------------

 Output coordinates in angstroms (scale by  1.889725989 to convert to a.u.)

  No.       Tag          Charge          X              Y              Z
 ---- ---------------- ---------- -------------- -------------- --------------
    1 H                    1.0000     0.00000000     0.00000000    -1.75000000
    2 H                    1.0000     0.00000000     0.00000000     1.75000000

      Atomic Mass 
      ----------- 

      H                  1.007825


 Effective nuclear repulsion energy (a.u.)       0.1511934997

            Nuclear Dipole moment (a.u.) 
            ----------------------------
        X                 Y               Z
 ---------------- ---------------- ----------------
     0.0000000000     0.0000000000     0.0000000000

      Symmetry information
      --------------------

 Group name             D4h       
 Group number             28
 Group order              16
 No. of unique centers     1

      Symmetry unique atoms

     1


            XYZ format geometry
            -------------------
     2
 geometry
 H                     0.00000000     0.00000000    -1.75000000
 H                     0.00000000     0.00000000     1.75000000

          ****************************************************
          *                                                  *
          *               NWPW PSPW Calculation              *
          *                                                  *
          * [ (Grassmann/Stiefel manifold implementation)  ] *
          *                                                  *
          *      [ NorthWest Chemistry implementation ]      *
          *                                                  *
          *            version #5.10   06/12/02              *
          *                                                  *
          *    This code was developed by Eric J. Bylaska,   *
          *    and was based upon algorithms and code        *
          *    developed by the group of Prof. John H. Weare *
          *                                                  *
          ****************************************************
     >>>  JOB STARTED       AT Thu May  1 21:54:54 2025  <<<
          ================ input data ========================

 input psi filename:./pspw_hf_H2.movecs

 number of processors used:         1
 processor grid           :   1 x   1
 parallel mapping         :2d-hilbert
 parallel mapping         :  balanced
 number of threads        :         1
 parallel io              :       off

 options:
      boundary conditions  = aperiodic   (version4)
      electron spin        = restricted
      exchange-correlation = Hartree-Fock
      - HFX relaxed
      - HFX restricted orbitals :    1
      - HFX free-space coulomb solver


 elements involved in the cluster:
      1: H   valence charge:  1.0000  lmax=  1
             comment    : Parameterized (Chem.Phys.Lett., vol 322, page 447) Hamman psp
             pseudpotential type            :   0
             highest angular component      :   1
             local potential used           :   1
             number of non-local projections:   1
             aperiodic cutoff radius        :  1.000
             cutoff =   0.800   0.800


 total charge:   0.000

 atomic composition:
     H   :    2

 number of electrons: spin up=     1 (   1 per task)  down=     1 (   1 per task) (Fourier space)
 number of orbitals : spin up=     1 (   1 per task)  down=     1 (   1 per task) (Fourier space)

 supercell:
      cell_name:  cell_default                                      
      lattice:    a1=<  20.000   0.000   0.000 >
                  a2=<   0.000  20.000   0.000 >
                  a3=<   0.000   0.000  20.000 >
      reciprocal: b1=<   0.314   0.000   0.000 >
                  b2=<   0.000   0.314   0.000 >
                  b3=<   0.000   0.000   0.314 >
      lattice:    a=      20.000 b=     20.000 c=      20.000
                  alpha=  90.000 beta=  90.000 gamma=  90.000
                  omega=      8000.0

      density cutoff=100.000  fft= 96x 96x 96(   191162 waves   191162 per task)
      wavefnc cutoff= 50.000  fft= 96x 96x 96(    67522 waves    67522 per task)

 technical parameters:
      time step=      5.80     fictitious mass=  400000.0
      tolerance=0.100E-08 (energy)   0.100E-08 (density)
      maximum iterations =      1000 (   10 inner    100 outer )





== Energy Calculation ==


          ============ Grassmann lmbfgs iteration ============
     >>>  ITERATION STARTED AT Thu May  1 21:55:02 2025  <<<
    iter.           Energy         DeltaE       DeltaRho 
    ------------------------------------------------------
      10   -0.8039934087E+00   -0.15897E-02    0.71658E-02
     -  10 steepest descent iterations performed
      20   -0.8088773509E+00   -0.11831E-03    0.74093E-04
      30   -0.8090849068E+00   -0.51452E-05    0.51503E-05
      40   -0.8091017235E+00   -0.26664E-06    0.85698E-07
      50   -0.8091026312E+00   -0.16491E-07    0.14458E-08
      60   -0.8091026778E+00   -0.10268E-08    0.12991E-09
      70   -0.8091026796E+00   -0.79126E-09    0.27112E-11
  *** tolerance ok. iteration terminated
     >>>  ITERATION ENDED   AT Thu May  1 21:56:52 2025  <<<


==  Summary Of Results  ==

 number of electrons: spin up=    1.00000  down=    1.00000 (real space)

 total     energy    :  -0.8091026796E+00 (   -0.40455E+00/ion)
 total orbital energy:  -0.6309608182E+00 (   -0.63096E+00/electron)
 hartree   energy    :   0.6586707223E+00 (    0.65867E+00/electron)
 exc-corr  energy    :   0.0000000000E+00 (    0.00000E+00/electron)
 HF exchange energy  :  -0.3293353611E+00 (   -0.32934E+00/electron)
 ion-ion   energy    :   0.1511934997E+00 (    0.75597E-01/ion)

 kinetic (planewave) :   0.6335159099E+00 (    0.63352E+00/electron)
 V_local (planewave) :  -0.1774352857E+01 (   -0.17744E+01/electron)
 V_nl    (planewave) :  -0.1487945939E+00 (   -0.14879E+00/electron)
 V_Coul  (planewave) :   0.1317341445E+01 (    0.13173E+01/electron)
 V_xc.   (planewave) :   0.0000000000E+00 (    0.00000E+00/electron)
 K.S. HFX energy     :  -0.6586707223E+00 (   -0.65867E+00/electron)
 Virial Coefficient  :  -0.9562601292E+00

 orbital energies:
    -0.3154804E+00 (  -8.585eV)


== Virtual Orbital Calculation ==


 input epsi filename:./pspw_hf_H2.emovecs
     orbital   1 current e=-0.145E+00 (error=0.934E-09) iterations  63(  44 preconditioned, Ep,Sp= 20.0  200.0)
     orbital   2 current e= 0.625E-02 (error=0.857E-09) iterations  76(  45 preconditioned, Ep,Sp= 20.0  200.0)
     orbital   3 current e= 0.476E-01 (error=0.998E-09) iterations  50(  14 preconditioned, Ep,Sp= 20.0  200.0)
     orbital   4 current e= 0.476E-01 (error=0.998E-09) iterations  50(  14 preconditioned, Ep,Sp= 20.0  200.0)
     orbital   5 current e= 0.478E-01 (error=0.961E-09) iterations 100(  32 preconditioned, Ep,Sp= 20.0  200.0)
     orbital   6 current e= 0.497E-01 (error=0.951E-09) iterations  15(   1 preconditioned, Ep,Sp= 20.0  200.0)
     orbital   7 current e= 0.564E-01 (error=0.905E-09) iterations  84(  42 preconditioned, Ep,Sp= 20.0  200.0)
     orbital   8 current e= 0.686E-01 (error=0.970E-09) iterations 112(  47 preconditioned, Ep,Sp= 20.0  200.0)
     orbital   9 current e= 0.952E-01 (error=0.992E-09) iterations  98(  59 preconditioned, Ep,Sp= 20.0  200.0)
     orbital  10 current e= 0.958E-01 (error=0.945E-09) iterations  66(  20 preconditioned, Ep,Sp= 20.0  200.0)
     orbital  11 current e= 0.958E-01 (error=0.945E-09) iterations  66(  20 preconditioned, Ep,Sp= 20.0  200.0)
     orbital  12 current e= 0.966E-01 (error=0.904E-09) iterations  62(  22 preconditioned, Ep,Sp= 20.0  200.0)
     orbital  13 current e= 0.966E-01 (error=0.904E-09) iterations  62(  22 preconditioned, Ep,Sp= 20.0  200.0)
     orbital  14 current e= 0.987E-01 (error=0.989E-09) iterations  62(  13 preconditioned, Ep,Sp= 20.0  200.0)
     orbital  15 current e= 0.987E-01 (error=0.989E-09) iterations  62(  13 preconditioned, Ep,Sp= 20.0  200.0)
     orbital  16 current e= 0.988E-01 (error=0.961E-09) iterations  37(   1 preconditioned, Ep,Sp= 20.0  200.0)
     orbital  17 current e= 0.989E-01 (error=0.871E-09) iterations  19(   1 preconditioned, Ep,Sp= 20.0  200.0)
     orbital  18 current e= 0.993E-01 (error=0.757E-09) iterations  18(   1 preconditioned, Ep,Sp= 20.0  200.0)

 virtual orbital energies:
     0.9934505E-01 (   2.703eV)
     0.9892033E-01 (   2.692eV)
     0.9884823E-01 (   2.690eV)
     0.9868109E-01 (   2.685eV)
     0.9868109E-01 (   2.685eV)
     0.9663219E-01 (   2.630eV)
     0.9663219E-01 (   2.630eV)
     0.9577675E-01 (   2.606eV)
     0.9577675E-01 (   2.606eV)
     0.9523539E-01 (   2.592eV)
     0.6857566E-01 (   1.866eV)
     0.5637715E-01 (   1.534eV)
     0.4973344E-01 (   1.353eV)
     0.4778501E-01 (   1.300eV)
     0.4761632E-01 (   1.296eV)
     0.4761632E-01 (   1.296eV)
     0.6249729E-02 (   0.170eV)
    -0.1445288E+00 (  -3.933eV)


 == Generating One-Electron and Two-Electron Integrals ==

 begin_one_electron_integrals
    1    1        -0.6448157702
    2    1         0.0000019311
    3    1        -0.0196042461
    4    1         0.0000048177
    5    1        -0.0000000003
    6    1         0.0038091618
    7    1         0.0000000002
    8    1        -0.0000002133
    9    1         0.0242099764
   10    1        -0.0022388182
   11    1         0.0000021483
   12    1        -0.0000000000
   13    1         0.0000000000
   14    1        -0.0000000012
   15    1        -0.0000001384
   16    1         0.0000000000
   17    1         0.0000000000
   18    1         0.0000000682
   19    1         0.0000000575
    2    2        -0.6265497333
    3    2        -0.0000241474
    4    2         0.0000000448
    5    2        -0.0000000000
    6    2         0.0000387847
    7    2        -0.0000000000
    8    2         0.0276692749
    9    2         0.0000207947
   10    2        -0.0000325626
   11    2         0.0000000386
   12    2        -0.0000000000
   13    2        -0.0000000060
   14    2         0.0000001492
   15    2         0.0000000011
   16    2        -0.0000000000
   17    2         0.0000000001
   18    2         0.0000001138
   19    2        -0.0000002546
    3    3        -0.1926370065
    4    3        -0.0000009187
    5    3         0.0000000001
    6    3        -0.0003892865
    7    3         0.0000000001
    8    3         0.0000013618
    9    3         0.0422807498
   10    3        -0.0014599556
   11    3         0.0000017872
   12    3        -0.0000000000
   13    3         0.0000000000
   14    3        -0.0000000011
   15    3         0.0000000720
   16    3        -0.0000000000
   17    3        -0.0000000000
   18    3         0.0000000629
   19    3         0.0000000529
    4    4        -0.1854739167
    5    4        -0.0000000000
    6    4         0.0000161782
    7    4        -0.0000000006
    8    4        -0.0000000073
    9    4        -0.0000017404
   10    4         0.0001210835
   11    4         0.0553031700
   12    4         0.0000028204
   13    4         0.0000000799
   14    4        -0.0000019893
   15    4         0.0174081525
   16    4        -0.0000024183
   17    4         0.0000028608
   18    4         0.0000000166
   19    4        -0.0000000031
    5    5        -0.1854739325
    6    5        -0.0000000011
    7    5        -0.0000093882
    8    5         0.0000000000
    9    5         0.0000000001
   10    5        -0.0000000082
   11    5        -0.0000028204
   12    5         0.0553033132
   13    5        -0.0000019893
   14    5        -0.0000000799
   15    5         0.0000024183
   16    5         0.0174081639
   17    5        -0.0000000002
   18    5        -0.0000000277
   19    5         0.0000035264
    6    6        -0.1714840469
    7    6         0.0000000000
    8    6        -0.0000043482
    9    6        -0.0010556859
   10    6         0.0465456241
   11    6        -0.0001212796
   12    6         0.0000000020
   13    6        -0.0000000013
   14    6         0.0000000327
   15    6        -0.0000216674
   16    6         0.0000000045
   17    6        -0.0000000064
   18    6        -0.0000000473
   19    6        -0.0000000334
    7    7        -0.1531174710
    8    7         0.0000000016
    9    7        -0.0000000004
   10    7         0.0000000200
   11    7         0.0000000005
   12    7         0.0000150962
   13    7        -0.0000000103
   14    7        -0.0000000015
   15    7         0.0000000013
   16    7         0.0000008588
   17    7        -0.0000000005
   18    7         0.0000216724
   19    7         0.0232663119
    8    8        -0.1478333688
    9    8        -0.0000022699
   10    8         0.0000063299
   11    8        -0.0000000043
   12    8         0.0000000000
   13    8        -0.0000000022
   14    8         0.0000000540
   15    8         0.0000000005
   16    8         0.0000000000
   17    8        -0.0000000001
   18    8        -0.0000001335
   19    8         0.0000002960
    9    9        -0.1317012034
   10    9        -0.0002930111
   11    9         0.0000007413
   12    9        -0.0000000000
   13    9         0.0000000001
   14    9        -0.0000000018
   15    9         0.0000001774
   16    9        -0.0000000000
   17    9        -0.0000000001
   18    9        -0.0000001301
   19    9        -0.0000001097
   10   10        -0.1269248060
   11   10        -0.0000164720
   12   10         0.0000000003
   13   10        -0.0000000004
   14   10         0.0000000110
   15   10        -0.0000134502
   16   10         0.0000000028
   17   10        -0.0000000027
   18   10         0.0000000353
   19   10         0.0000000312
   11   11        -0.1413304767
   12   11        -0.0000000000
   13   11         0.0000000058
   14   11        -0.0000001448
   15   11        -0.0116456471
   16   11         0.0000022117
   17   11        -0.0000022940
   18   11        -0.0000000228
   19   11         0.0000000056
   12   12        -0.1413304985
   13   12        -0.0000001447
   14   12        -0.0000000058
   15   12        -0.0000022117
   16   12        -0.0116456537
   17   12         0.0000000000
   18   12         0.0000000134
   19   12        -0.0000079691
   13   13        -0.1422693620
   14   13         0.0000000000
   15   13        -0.0000000046
   16   13         0.0000001139
   17   13        -0.0000000000
   18   13         0.0000022941
   19   13        -0.0000000155
   14   14        -0.1422693621
   15   14         0.0000001139
   16   14         0.0000000046
   17   14         0.0000000001
   18   14         0.0000000855
   19   14         0.0000000108
   15   15        -0.1168659217
   16   15         0.0000000000
   17   15         0.0000020494
   18   15        -0.0000000147
   19   15         0.0000000028
   16   16        -0.1168659195
   17   16        -0.0000000004
   18   16         0.0000000130
   19   16        -0.0000046438
   17   17        -0.1257964541
   18   17        -0.0000000005
   19   17         0.0000000032
   18   18        -0.1076153349
   19   18         0.0000045307
   19   19        -0.1019397347
 end_one_electron_integrals

 begin_two_electron_integrals
    1    1    1    1        0.3293353611
    1    1    2    1       -0.0000019177
    1    1    3    1        0.0196118604
    1    1    4    1       -0.0000048180
    1    1    5    1        0.0000000003
    1    1    6    1       -0.0038094066
    1    1    7    1       -0.0000000002
    1    1    8    1        0.0000002236
    1    1    9    1       -0.0242090537
    1    1   10    1        0.0022317482
    1    1   11    1       -0.0000021399
    1    1   12    1        0.0000000000
    1    1   13    1       -0.0000000000
    1    1   14    1        0.0000000012
    1    1   15    1        0.0000001385
    1    1   16    1       -0.0000000000
    1    1   17    1       -0.0000000000
    1    1   18    1       -0.0000000682
    1    1   19    1       -0.0000000575
    1    1    2    2        0.3304942412
    1    1    3    2        0.0000125576
    1    1    4    2       -0.0000000202
    1    1    5    2        0.0000000000
    1    1    6    2       -0.0000179226
    1    1    7    2        0.0000000000
    1    1    8    2       -0.0229286524
    1    1    9    2       -0.0000095546
    1    1   10    2        0.0000142633
    1    1   11    2       -0.0000000168
    1    1   12    2        0.0000000000
    1    1   13    2        0.0000000049
    1    1   14    2       -0.0000001219
    1    1   15    2       -0.0000000006
    1    1   16    2        0.0000000000
    1    1   17    2       -0.0000000001
    1    1   18    2       -0.0000000948
    1    1   19    2        0.0000002122
    1    1    3    3        0.1004583236
    1    1    4    3        0.0000004901
    1    1    5    3       -0.0000000000
    1    1    6    3       -0.0000077061
    1    1    7    3       -0.0000000000
    1    1    8    3       -0.0000012172
    1    1    9    3       -0.0224543751
    1    1   10    3        0.0008441166
    1    1   11    3       -0.0000013167
    1    1   12    3        0.0000000000
    1    1   13    3       -0.0000000000
    1    1   14    3        0.0000000010
    1    1   15    3       -0.0000001114
    1    1   16    3        0.0000000000
    1    1   17    3        0.0000000000
    1    1   18    3       -0.0000000354
    1    1   19    3       -0.0000000298
    1    1    4    4        0.1175784017
    1    1    5    4        0.0000000000
    1    1    6    4       -0.0000083740
    1    1    7    4        0.0000000003
    1    1    8    4        0.0000000043
    1    1    9    4        0.0000010931
    1    1   10    4       -0.0000632103
    1    1   11    4       -0.0289347409
    1    1   12    4       -0.0000014756
    1    1   13    4       -0.0000000497
    1    1   14    4        0.0000012368
    1    1   15    4       -0.0090315408
    1    1   16    4        0.0000012546
    1    1   17    4       -0.0000014520
    1    1   18    4       -0.0000000088
    1    1   19    4        0.0000000016
    1    1    5    5        0.1175784099
    1    1    6    5        0.0000000006
    1    1    7    5        0.0000046024
    1    1    8    5       -0.0000000000
    1    1    9    5       -0.0000000001
    1    1   10    5        0.0000000043
    1    1   11    5        0.0000014756
    1    1   12    5       -0.0289348155
    1    1   13    5        0.0000012368
    1    1   14    5        0.0000000497
    1    1   15    5       -0.0000012546
    1    1   16    5       -0.0090315466
    1    1   17    5        0.0000000001
    1    1   18    5        0.0000000146
    1    1   19    5       -0.0000017588
    1    1    6    6        0.1103208329
    1    1    7    6       -0.0000000000
    1    1    8    6        0.0000028875
    1    1    9    6        0.0007632253
    1    1   10    6       -0.0241920282
    1    1   11    6        0.0000630730
    1    1   12    6       -0.0000000011
    1    1   13    6        0.0000000007
    1    1   14    6       -0.0000000175
    1    1   15    6        0.0000111809
    1    1   16    6       -0.0000000023
    1    1   17    6        0.0000000033
    1    1   18    6        0.0000000254
    1    1   19    6        0.0000000180
    1    1    7    7        0.1014900034
    1    1    8    7       -0.0000000008
    1    1    9    7        0.0000000002
    1    1   10    7       -0.0000000100
    1    1   11    7       -0.0000000002
    1    1   12    7       -0.0000075100
    1    1   13    7        0.0000000048
    1    1   14    7        0.0000000007
    1    1   15    7       -0.0000000006
    1    1   16    7       -0.0000004081
    1    1   17    7        0.0000000003
    1    1   18    7       -0.0000109003
    1    1   19    7       -0.0116808395
    1    1    8    8        0.1032866049
    1    1    9    8        0.0000014621
    1    1   10    8       -0.0000038784
    1    1   11    8        0.0000000029
    1    1   12    8       -0.0000000000
    1    1   13    8        0.0000000040
    1    1   14    8       -0.0000001003
    1    1   15    8       -0.0000000004
    1    1   16    8       -0.0000000000
    1    1   17    8        0.0000000000
    1    1   18    8        0.0000000713
    1    1   19    8       -0.0000001583
    1    1    9    9        0.1018598522
    1    1   10    9        0.0000230019
    1    1   11    9       -0.0000001209
    1    1   12    9        0.0000000000
    1    1   13    9       -0.0000000000
    1    1   14    9        0.0000000010
    1    1   15    9       -0.0000000571
    1    1   16    9        0.0000000000
    1    1   17    9        0.0000000001
    1    1   18    9        0.0000000701
    1    1   19    9        0.0000000591
    1    1   10   10        0.1123337566
    1    1   11   10        0.0000090282
    1    1   12   10       -0.0000000001
    1    1   13   10        0.0000000002
    1    1   14   10       -0.0000000058
    1    1   15   10        0.0000072416
    1    1   16   10       -0.0000000015
    1    1   17   10        0.0000000015
    1    1   18   10       -0.0000000172
    1    1   19   10       -0.0000000151
    1    1   11   11        0.1202018265
    1    1   12   11        0.0000000000
    1    1   13   11        0.0000000007
    1    1   14   11       -0.0000000181
    1    1   15   11        0.0062544046
    1    1   16   11       -0.0000011878
    1    1   17   11        0.0000012538
    1    1   18   11        0.0000000120
    1    1   19   11       -0.0000000029
    1    1   12   12        0.1202018385
    1    1   13   12       -0.0000000181
    1    1   14   12       -0.0000000007
    1    1   15   12        0.0000011878
    1    1   16   12        0.0062544082
    1    1   17   12       -0.0000000000
    1    1   18   12       -0.0000000074
    1    1   19   12        0.0000040257
    1    1   13   13        0.1202367343
    1    1   14   13       -0.0000000000
    1    1   15   13       -0.0000000118
    1    1   16   13        0.0000002942
    1    1   17   13       -0.0000000000
    1    1   18   13       -0.0000010877
    1    1   19   13        0.0000000074
    1    1   14   14        0.1202367343
    1    1   15   14        0.0000002942
    1    1   16   14        0.0000000118
    1    1   17   14        0.0000000001
    1    1   18   14       -0.0000000402
    1    1   19   14       -0.0000000057
    1    1   15   15        0.1079844373
    1    1   16   15       -0.0000000000
    1    1   17   15       -0.0000010532
    1    1   18   15        0.0000000075
    1    1   19   15       -0.0000000014
    1    1   16   16        0.1079844361
    1    1   17   16        0.0000000002
    1    1   18   16       -0.0000000065
    1    1   19   16        0.0000023242
    1    1   17   17        0.1124846958
    1    1   18   17        0.0000000003
    1    1   19   17       -0.0000000016
    1    1   18   18        0.1033196605
    1    1   19   18       -0.0000022970
    1    1   19   19        0.1006921150
    2    1    2    1        0.1789675924
    2    1    3    1        0.0000010607
    2    1    4    1        0.0000000044
    2    1    5    1       -0.0000000000
    2    1    6    1        0.0000029277
    2    1    7    1        0.0000000001
    2    1    8    1       -0.0181902904
    2    1    9    1        0.0000016893
    2    1   10    1       -0.0000040492
    2    1   11    1        0.0000000050
    2    1   12    1        0.0000000000
    2    1   13    1        0.0000000038
    2    1   14    1       -0.0000000946
    2    1   15    1       -0.0000000002
    2    1   16    1        0.0000000000
    2    1   17    1       -0.0000000000
    2    1   18    1       -0.0000000756
    2    1   19    1        0.0000001692
    2    1    2    2       -0.0000032951
    2    1    3    2        0.0148995518
    2    1    4    2        0.0000076619
    2    1    5    2       -0.0000000005
    2    1    6    2        0.0067034447
    2    1    7    2       -0.0000000001
    2    1    8    2        0.0000021261
    2    1    9    2       -0.0195045073
    2    1   10    2       -0.0113017878
    2    1   11    2        0.0000141429
    2    1   12    2       -0.0000000002
    2    1   13    2        0.0000000003
    2    1   14    2       -0.0000000075
    2    1   15    2        0.0000004646
    2    1   16    2       -0.0000000001
    2    1   17    2        0.0000000009
    2    1   18    2       -0.0000000426
    2    1   19    2       -0.0000000379
    2    1    3    3        0.0002177176
    2    1    4    3       -0.0000003285
    2    1    5    3        0.0000000000
    2    1    6    3       -0.0002768483
    2    1    7    3        0.0000000000
    2    1    8    3       -0.0168451500
    2    1    9    3       -0.0000004423
    2    1   10    3        0.0000480606
    2    1   11    3       -0.0000000576
    2    1   12    3        0.0000000000
    2    1   13    3       -0.0000000132
    2    1   14    3        0.0000003273
    2    1   15    3        0.0000000009
    2    1   16    3        0.0000000000
    2    1   17    3       -0.0000000000
    2    1   18    3       -0.0000000377
    2    1   19    3        0.0000000840
    2    1    4    4        0.0001850628
    2    1    5    4       -0.0000000000
    2    1    6    4        0.0000002879
    2    1    7    4       -0.0000000000
    2    1    8    4        0.0000050515
    2    1    9    4        0.0000001561
    2    1   10    4       -0.0000002074
    2    1   11    4        0.0000436170
    2    1   12    4        0.0000000022
    2    1   13    4       -0.0009352753
    2    1   14    4        0.0232846960
    2    1   15    4        0.0002663075
    2    1   16    4       -0.0000000370
    2    1   17    4        0.0000000563
    2    1   18    4        0.0000000016
    2    1   19    4       -0.0000000023
    2    1    5    5        0.0001850624
    2    1    6    5       -0.0000000000
    2    1    7    5        0.0000000098
    2    1    8    5       -0.0000000003
    2    1    9    5       -0.0000000000
    2    1   10    5        0.0000000000
    2    1   11    5       -0.0000000022
    2    1   12    5        0.0000436168
    2    1   13    5        0.0232847113
    2    1   14    5        0.0009352760
    2    1   15    5        0.0000000370
    2    1   16    5        0.0002663077
    2    1   17    5       -0.0000000000
    2    1   18    5        0.0000031998
    2    1   19    5       -0.0000000091
    2    1    6    6        0.0004267555
    2    1    7    6       -0.0000000001
    2    1    8    6        0.0041613504
    2    1    9    6        0.0001309012
    2    1   10    6       -0.0002107745
    2    1   11    6        0.0000001987
    2    1   12    6       -0.0000000000
    2    1   13    6        0.0000011058
    2    1   14    6       -0.0000274830
    2    1   15    6       -0.0000003129
    2    1   16    6        0.0000000001
    2    1   17    6       -0.0000000000
    2    1   18    6        0.0000000344
    2    1   19    6       -0.0000000764
    2    1    7    7        0.0001659888
    2    1    8    7        0.0000000005
    2    1    9    7       -0.0000000001
    2    1   10    7       -0.0000000168
    2    1   11    7        0.0000000007
    2    1   12    7       -0.0000000155
    2    1   13    7        0.0000063598
    2    1   14    7        0.0000002554
    2    1   15    7        0.0000000068
    2    1   16    7        0.0000000156
    2    1   17    7       -0.0000000011
    2    1   18    7       -0.0147162906
    2    1   19    7        0.0002418916
    2    1    8    8        0.0000006749
    2    1    9    8        0.0086717861
    2    1   10    8        0.0002843082
    2    1   11    8       -0.0000004871
    2    1   12    8        0.0000000000
    2    1   13    8       -0.0000000001
    2    1   14    8        0.0000000016
    2    1   15    8       -0.0000000943
    2    1   16    8        0.0000000000
    2    1   17    8       -0.0000000001
    2    1   18    8        0.0000000175
    2    1   19    8        0.0000000150
    2    1    9    9        0.0002551371
    2    1   10    9       -0.0002401443
    2    1   11    9        0.0000002851
    2    1   12    9       -0.0000000000
    2    1   13    9       -0.0000000023
    2    1   14    9        0.0000000565
    2    1   15    9        0.0000000078
    2    1   16    9       -0.0000000000
    2    1   17    9        0.0000000001
    2    1   18    9        0.0000000619
    2    1   19    9       -0.0000001371
    2    1   10   10        0.0003648672
    2    1   11   10       -0.0000002459
    2    1   12   10        0.0000000000
    2    1   13   10        0.0000005602
    2    1   14   10       -0.0000139236
    2    1   15   10        0.0000000162
    2    1   16   10       -0.0000000000
    2    1   17   10       -0.0000000000
    2    1   18   10       -0.0000000152
    2    1   19   10        0.0000000283
    2    1   11   11        0.0001523345
    2    1   12   11       -0.0000000000
    2    1   13   11        0.0004738696
    2    1   14   11       -0.0117825147
    2    1   15   11        0.0000146334
    2    1   16   11       -0.0000000028
    2    1   17   11        0.0000000035
    2    1   18   11       -0.0000000033
    2    1   19   11        0.0000000056
    2    1   12   12        0.0001523342
    2    1   13   12       -0.0117825229
    2    1   14   12       -0.0004738699
    2    1   15   12        0.0000000028
    2    1   16   12        0.0000146334
    2    1   17   12        0.0000000000
    2    1   18   12        0.0000012244
    2    1   19   12       -0.0000000251
    2    1   13   13        0.0000009347
    2    1   14   13       -0.0000000000
    2    1   15   13       -0.0001695879
    2    1   16   13        0.0042367516
    2    1   17   13       -0.0000000435
    2    1   18   13       -0.0000000093
    2    1   19   13       -0.0000009050
    2    1   14   14        0.0000009347
    2    1   15   14        0.0042367509
    2    1   16   14        0.0001695879
    2    1   17   14        0.0000010814
    2    1   18   14        0.0000000004
    2    1   19   14       -0.0000000363
    2    1   15   15        0.0003953939
    2    1   16   15        0.0000000000
    2    1   17   15        0.0000000425
    2    1   18   15        0.0000000009
    2    1   19   15       -0.0000000005
    2    1   16   16        0.0003953939
    2    1   17   16       -0.0000000000
    2    1   18   16        0.0000001150
    2    1   19   16        0.0000000124
    2    1   17   17        0.0001966696
    2    1   18   17        0.0000000014
    2    1   19   17       -0.0000000029
    2    1   18   18       -0.0000024246
    2    1   19   18       -0.0016265151
    2    1   19   19        0.0003163603
    3    1    3    1        0.0020299115
    3    1    4    1        0.0000000761
    3    1    5    1       -0.0000000000
    3    1    6    1       -0.0003921693
    3    1    7    1       -0.0000000000
    3    1    8    1       -0.0000011050
    3    1    9    1       -0.0026274313
    3    1   10    1        0.0002347701
    3    1   11    1       -0.0000008553
    3    1   12    1        0.0000000000
    3    1   13    1       -0.0000000000
    3    1   14    1        0.0000000008
    3    1   15    1       -0.0000001514
    3    1   16    1        0.0000000000
    3    1   17    1        0.0000000001
    3    1   18    1       -0.0000000077
    3    1   19    1       -0.0000000065
    3    1    2    2        0.0197567348
    3    1    3    2        0.0000024692
    3    1    4    2       -0.0000000029
    3    1    5    2        0.0000000000
    3    1    6    2       -0.0000032114
    3    1    7    2        0.0000000000
    3    1    8    2       -0.0023738415
    3    1    9    2       -0.0000026356
    3    1   10    2        0.0000030052
    3    1   11    2       -0.0000000042
    3    1   12    2        0.0000000000
    3    1   13    2       -0.0000000233
    3    1   14    2        0.0000005782
    3    1   15    2        0.0000000003
    3    1   16    2        0.0000000000
    3    1   17    2       -0.0000000000
    3    1   18    2       -0.0000000104
    3    1   19    2        0.0000000232
    3    1    3    3        0.0004793202
    3    1    4    3       -0.0000029493
    3    1    5    3        0.0000000002
    3    1    6    3        0.0000714342
    3    1    7    3       -0.0000000000
    3    1    8    3        0.0000061784
    3    1    9    3       -0.0006225424
    3    1   10    3       -0.0000130615
    3    1   11    3        0.0000001931
    3    1   12    3       -0.0000000000
    3    1   13    3        0.0000000002
    3    1   14    3       -0.0000000052
    3    1   15    3        0.0000001927
    3    1   16    3       -0.0000000000
    3    1   17    3       -0.0000000018
    3    1   18    3       -0.0000000017
    3    1   19    3       -0.0000000015
    3    1    4    4        0.0008789161
    3    1    5    4        0.0000000000
    3    1    6    4       -0.0000010334
    3    1    7    4        0.0000000001
    3    1    8    4        0.0000000022
    3    1    9    4        0.0000006071
    3    1   10    4       -0.0000017105
    3    1   11    4       -0.0009975612
    3    1   12    4       -0.0000000509
    3    1   13    4        0.0000002838
    3    1   14    4       -0.0000070661
    3    1   15    4       -0.0004326067
    3    1   16    4        0.0000000601
    3    1   17    4       -0.0000031922
    3    1   18    4       -0.0000000005
    3    1   19    4        0.0000000001
    3    1    5    5        0.0008789203
    3    1    6    5        0.0000000001
    3    1    7    5        0.0000016112
    3    1    8    5       -0.0000000000
    3    1    9    5       -0.0000000000
    3    1   10    5        0.0000000001
    3    1   11    5        0.0000000509
    3    1   12    5       -0.0009975615
    3    1   13    5       -0.0000070661
    3    1   14    5       -0.0000002838
    3    1   15    5       -0.0000000601
    3    1   16    5       -0.0004326122
    3    1   17    5        0.0000000002
    3    1   18    5       -0.0000000037
    3    1   19    5       -0.0000004783
    3    1    6    6        0.0005801694
    3    1    7    6       -0.0000000000
    3    1    8    6       -0.0000023314
    3    1    9    6       -0.0000541291
    3    1   10    6       -0.0006404964
    3    1   11    6        0.0000021944
    3    1   12    6       -0.0000000000
    3    1   13    6       -0.0000000004
    3    1   14    6        0.0000000092
    3    1   15    6        0.0000033765
    3    1   16    6       -0.0000000007
    3    1   17    6        0.0000000037
    3    1   18    6        0.0000000006
    3    1   19    6        0.0000000005
    3    1    7    7        0.0002647915
    3    1    8    7       -0.0000000000
    3    1    9    7        0.0000000000
    3    1   10    7       -0.0000000002
    3    1   11    7       -0.0000000000
    3    1   12    7       -0.0000024664
    3    1   13    7        0.0000000007
    3    1   14    7        0.0000000000
    3    1   15    7        0.0000000001
    3    1   16    7        0.0000003991
    3    1   17    7        0.0000000000
    3    1   18    7        0.0000061448
    3    1   19    7       -0.0002727476
    3    1    8    8        0.0006009086
    3    1    9    8       -0.0000002861
    3    1   10    8       -0.0000003189
    3    1   11    8        0.0000000008
    3    1   12    8       -0.0000000000
    3    1   13    8       -0.0000001274
    3    1   14    8        0.0000031670
    3    1   15    8        0.0000000024
    3    1   16    8       -0.0000000000
    3    1   17    8        0.0000000000
    3    1   18    8        0.0000000024
    3    1   19    8       -0.0000000053
    3    1    9    9        0.0008552184
    3    1   10    9        0.0000912846
    3    1   11    9       -0.0000023682
    3    1   12    9        0.0000000000
    3    1   13    9       -0.0000000000
    3    1   14    9        0.0000000001
    3    1   15    9       -0.0000006708
    3    1   16    9        0.0000000001
    3    1   17    9       -0.0000000005
    3    1   18    9        0.0000000024
    3    1   19    9        0.0000000021
    3    1   10   10        0.0009284449
    3    1   11   10       -0.0000004549
    3    1   12   10        0.0000000000
    3    1   13   10       -0.0000000000
    3    1   14   10        0.0000000011
    3    1   15   10        0.0000011121
    3    1   16   10       -0.0000000002
    3    1   17   10       -0.0000000015
    3    1   18   10       -0.0000000004
    3    1   19   10       -0.0000000003
    3    1   11   11        0.0013555391
    3    1   12   11        0.0000000000
    3    1   13   11       -0.0000000139
    3    1   14   11        0.0000003454
    3    1   15   11        0.0004213517
    3    1   16   11       -0.0000000800
    3    1   17   11       -0.0000010664
    3    1   18   11        0.0000000006
    3    1   19   11       -0.0000000001
    3    1   12   12        0.0013555383
    3    1   13   12        0.0000003454
    3    1   14   12        0.0000000139
    3    1   15   12        0.0000000800
    3    1   16   12        0.0004213525
    3    1   17   12        0.0000000000
    3    1   18   12        0.0000000029
    3    1   19   12        0.0000011042
    3    1   13   13        0.0008893570
    3    1   14   13        0.0000000001
    3    1   15   13        0.0000001394
    3    1   16   13       -0.0000034832
    3    1   17   13        0.0000000002
    3    1   18   13       -0.0000015281
    3    1   19   13        0.0000000022
    3    1   14   14        0.0008893539
    3    1   15   14       -0.0000034832
    3    1   16   14       -0.0000001394
    3    1   17   14       -0.0000000058
    3    1   18   14       -0.0000000614
    3    1   19   14       -0.0000000001
    3    1   15   15        0.0004400351
    3    1   16   15        0.0000000000
    3    1   17   15        0.0000009192
    3    1   18   15        0.0000000002
    3    1   19   15        0.0000000002
    3    1   16   16        0.0004400382
    3    1   17   16       -0.0000000002
    3    1   18   16       -0.0000000018
    3    1   19   16        0.0000012248
    3    1   17   17        0.0005062245
    3    1   18   17        0.0000000000
    3    1   19   17       -0.0000000001
    3    1   18   18        0.0002601380
    3    1   19   18        0.0000025071
    3    1   19   19        0.0002931940
    4    1    4    1        0.0020665622
    4    1    5    1        0.0000000000
    4    1    6    1       -0.0000004605
    4    1    7    1       -0.0000000000
    4    1    8    1        0.0000000018
    4    1    9    1        0.0000003516
    4    1   10    1       -0.0000054456
    4    1   11    1       -0.0025770748
    4    1   12    1       -0.0000001314
    4    1   13    1       -0.0000000195
    4    1   14    1        0.0000004846
    4    1   15    1       -0.0006571849
    4    1   16    1        0.0000000913
    4    1   17    1       -0.0000000434
    4    1   18    1       -0.0000000010
    4    1   19    1        0.0000000002
    4    1    2    2       -0.0000025793
    4    1    3    2       -0.0000000019
    4    1    4    2        0.0000005963
    4    1    5    2       -0.0000000000
    4    1    6    2        0.0000000038
    4    1    7    2        0.0000000000
    4    1    8    2       -0.0000002063
    4    1    9    2        0.0000000039
    4    1   10    2       -0.0000000075
    4    1   11    2       -0.0000003540
    4    1   12    2       -0.0000000000
    4    1   13    2       -0.0000843673
    4    1   14    2        0.0021004159
    4    1   15    2        0.0000004865
    4    1   16    2       -0.0000000001
    4    1   17    2        0.0000000002
    4    1   18    2        0.0000000004
    4    1   19    2       -0.0000000005
    4    1    3    3       -0.0000575483
    4    1    4    3       -0.0033474397
    4    1    5    3        0.0000000000
    4    1    6    3       -0.0000232309
    4    1    7    3        0.0000000038
    4    1    8    3        0.0000000182
    4    1    9    3       -0.0000186727
    4    1   10    3        0.0000024588
    4    1   11    3        0.0007975349
    4    1   12    3        0.0000000407
    4    1   13    3        0.0000000818
    4    1   14    3       -0.0000020366
    4    1   15    3        0.0002327279
    4    1   16    3       -0.0000000323
    4    1   17    3       -0.0000008064
    4    1   18    3        0.0000000001
    4    1   19    3       -0.0000000007
    4    1    4    4       -0.0000231410
    4    1    5    4        0.0000000014
    4    1    6    4       -0.0006553149
    4    1    7    4        0.0000001921
    4    1    8    4        0.0000019569
    4    1    9    4        0.0017851620
    4    1   10    4        0.0004852753
    4    1   11    4       -0.0000273292
    4    1   12    4        0.0000000006
    4    1   13    4       -0.0000000002
    4    1   14    4        0.0000000054
    4    1   15    4        0.0000209798
    4    1   16    4       -0.0000000039
    4    1   17    4       -0.0038817729
    4    1   18    4        0.0000000033
    4    1   19    4       -0.0000000628
    4    1    5    5       -0.0000211315
    4    1    6    5       -0.0000000000
    4    1    7    5        0.0014161262
    4    1    8    5       -0.0000000000
    4    1    9    5        0.0000000000
    4    1   10    5       -0.0000000004
    4    1   11    5        0.0000000033
    4    1   12    5       -0.0000259969
    4    1   13    5        0.0000000069
    4    1   14    5        0.0000000003
    4    1   15    5        0.0000000008
    4    1   16    5        0.0000155971
    4    1   17    5        0.0000005266
    4    1   18    5       -0.0000011734
    4    1   19    5       -0.0004837993
    4    1    6    6       -0.0000445413
    4    1    7    6        0.0000000012
    4    1    8    6        0.0000000069
    4    1    9    6        0.0000053187
    4    1   10    6       -0.0000352660
    4    1   11    6        0.0005315059
    4    1   12    6        0.0000000271
    4    1   13    6       -0.0000000309
    4    1   14    6        0.0000007698
    4    1   15    6        0.0033746600
    4    1   16    6       -0.0000004688
    4    1   17    6        0.0000050018
    4    1   18    6        0.0000000020
    4    1   19    6       -0.0000000034
    4    1    7    7       -0.0000818275
    4    1    8    7       -0.0000000000
    4    1    9    7       -0.0000000009
    4    1   10    7       -0.0000000023
    4    1   11    7       -0.0000002153
    4    1   12    7       -0.0025429881
    4    1   13    7        0.0000007916
    4    1   14    7        0.0000000319
    4    1   15    7        0.0000001242
    4    1   16    7        0.0004521424
    4    1   17    7        0.0000000001
    4    1   18    7        0.0000000489
    4    1   19    7        0.0000185050
    4    1    8    8       -0.0000627116
    4    1    9    8        0.0000000228
    4    1   10    8       -0.0000000160
    4    1   11    8        0.0000001776
    4    1   12    8        0.0000000001
    4    1   13    8       -0.0001423861
    4    1   14    8        0.0035448577
    4    1   15    8        0.0000014419
    4    1   16    8       -0.0000000001
    4    1   17    8        0.0000000016
    4    1   18    8        0.0000000042
    4    1   19    8       -0.0000000002
    4    1    9    9       -0.0000656916
    4    1   10    9       -0.0000244987
    4    1   11    9       -0.0026466709
    4    1   12    9       -0.0000001350
    4    1   13    9       -0.0000000240
    4    1   14    9        0.0000005980
    4    1   15    9       -0.0007198514
    4    1   16    9        0.0000001000
    4    1   17    9       -0.0000001458
    4    1   18    9       -0.0000000005
    4    1   19    9        0.0000000023
    4    1   10   10       -0.0000724019
    4    1   11   10       -0.0011705689
    4    1   12   10       -0.0000000587
    4    1   13   10        0.0000000029
    4    1   14   10       -0.0000001152
    4    1   15   10       -0.0005332150
    4    1   16   10        0.0000000749
    4    1   17   10        0.0000000281
    4    1   18   10       -0.0000000011
    4    1   19   10       -0.0000000006
    4    1   11   11       -0.0000400574
    4    1   12   11        0.0000000028
    4    1   13   11        0.0000000009
    4    1   14   11       -0.0000000201
    4    1   15   11        0.0000128177
    4    1   16   11       -0.0000000033
    4    1   17   11        0.0001515158
    4    1   18   11       -0.0000000028
    4    1   19   11        0.0000000972
    4    1   12   12       -0.0000429707
    4    1   13   12       -0.0000000186
    4    1   14   12       -0.0000000008
    4    1   15   12        0.0000000014
    4    1   16   12        0.0000120445
    4    1   17   12       -0.0000000129
    4    1   18   12        0.0000022602
    4    1   19   12        0.0011821538
    4    1   13   13       -0.0000200040
    4    1   14   13        0.0000000519
    4    1   15   13        0.0000000003
    4    1   16   13        0.0000000069
    4    1   17   13        0.0000000877
    4    1   18   13       -0.0014919436
    4    1   19   13        0.0000016726
    4    1   14   14       -0.0000212599
    4    1   15   14        0.0000000096
    4    1   16   14        0.0000000002
    4    1   17   14       -0.0000021783
    4    1   18   14       -0.0000601243
    4    1   19   14        0.0000000556
    4    1   15   15       -0.0000297492
    4    1   16   15        0.0000000022
    4    1   17   15        0.0011125457
    4    1   18   15       -0.0000000012
    4    1   19   15        0.0000002648
    4    1   16   16       -0.0000282936
    4    1   17   16       -0.0000003055
    4    1   18   16        0.0000000279
    4    1   19   16        0.0009705916
    4    1   17   17       -0.0000005097
    4    1   18   17        0.0000000006
    4    1   19   17       -0.0000000001
    4    1   18   18       -0.0000844538
    4    1   19   18        0.0000000113
    4    1   19   19       -0.0000818738
    5    1    5    1        0.0020665626
    5    1    6    1        0.0000000000
    5    1    7    1       -0.0000001789
    5    1    8    1       -0.0000000000
    5    1    9    1       -0.0000000000
    5    1   10    1        0.0000000004
    5    1   11    1        0.0000001314
    5    1   12    1       -0.0025770811
    5    1   13    1        0.0000004846
    5    1   14    1        0.0000000195
    5    1   15    1       -0.0000000913
    5    1   16    1       -0.0006571852
    5    1   17    1        0.0000000000
    5    1   18    1        0.0000000015
    5    1   19    1        0.0000000073
    5    1    2    2        0.0000000002
    5    1    3    2        0.0000000000
    5    1    4    2       -0.0000000000
    5    1    5    2        0.0000005963
    5    1    6    2       -0.0000000000
    5    1    7    2       -0.0000000011
    5    1    8    2        0.0000000000
    5    1    9    2       -0.0000000000
    5    1   10    2        0.0000000000
    5    1   11    2        0.0000000000
    5    1   12    2       -0.0000003540
    5    1   13    2        0.0021004172
    5    1   14    2        0.0000843674
    5    1   15    2        0.0000000001
    5    1   16    2        0.0000004865
    5    1   17    2        0.0000000000
    5    1   18    2        0.0000008395
    5    1   19    2       -0.0000000007
    5    1    3    3        0.0000000039
    5    1    4    3        0.0000000000
    5    1    5    3       -0.0033474203
    5    1    6    3        0.0000000016
    5    1    7    3        0.0000563496
    5    1    8    3       -0.0000000000
    5    1    9    3        0.0000000013
    5    1   10    3       -0.0000000002
    5    1   11    3       -0.0000000407
    5    1   12    3        0.0007975529
    5    1   13    3       -0.0000020366
    5    1   14    3       -0.0000000818
    5    1   15    3        0.0000000323
    5    1   16    3        0.0002327220
    5    1   17    3        0.0000000001
    5    1   18    3       -0.0000000431
    5    1   19    3       -0.0000096758
    5    1    4    4        0.0000000041
    5    1    5    4        0.0000186124
    5    1    6    4       -0.0000000000
    5    1    7    4        0.0014161417
    5    1    8    4       -0.0000000000
    5    1    9    4        0.0000000000
    5    1   10    4       -0.0000000004
    5    1   11    4        0.0000000043
    5    1   12    4        0.0000286625
    5    1   13    4        0.0000000117
    5    1   14    4        0.0000000005
    5    1   15    4       -0.0000000044
    5    1   16    4       -0.0000095305
    5    1   17    4        0.0000005266
    5    1   18    4       -0.0000011734
    5    1   19    4       -0.0004838478
    5    1    5    5       -0.0000000011
    5    1    6    5       -0.0006553111
    5    1    7    5       -0.0000001921
    5    1    8    5        0.0000019569
    5    1    9    5        0.0017851677
    5    1   10    5        0.0004853996
    5    1   11    5        0.0000285695
    5    1   12    5       -0.0000000007
    5    1   13    5       -0.0000000004
    5    1   14    5        0.0000000108
    5    1   15    5       -0.0000147232
    5    1   16    5        0.0000000026
    5    1   17    5        0.0038817780
    5    1   18    5        0.0000000031
    5    1   19    5        0.0000000683
    5    1    6    6        0.0000000030
    5    1    7    6        0.0000175901
    5    1    8    6       -0.0000000000
    5    1    9    6       -0.0000000004
    5    1   10    6        0.0000000024
    5    1   11    6       -0.0000000271
    5    1   12    6        0.0005314104
    5    1   13    6        0.0000007699
    5    1   14    6        0.0000000309
    5    1   15    6        0.0000004688
    5    1   16    6        0.0033746951
    5    1   17    6       -0.0000000003
    5    1   18    6       -0.0000000482
    5    1   19    6       -0.0000457523
    5    1    7    7        0.0000000056
    5    1    8    7       -0.0000000320
    5    1    9    7       -0.0000129921
    5    1   10    7       -0.0000345244
    5    1   11    7       -0.0025429203
    5    1   12    7        0.0000002153
    5    1   13    7       -0.0000000319
    5    1   14    7        0.0000007916
    5    1   15    7        0.0004521318
    5    1   16    7       -0.0000001241
    5    1   17    7        0.0000011771
    5    1   18    7        0.0000000000
    5    1   19    7       -0.0000000011
    5    1    8    8        0.0000000043
    5    1    9    8        0.0000000000
    5    1   10    8        0.0000000001
    5    1   11    8        0.0000000001
    5    1   12    8        0.0000001776
    5    1   13    8        0.0035448530
    5    1   14    8        0.0001423860
    5    1   15    8        0.0000000002
    5    1   16    8        0.0000014420
    5    1   17    8        0.0000000000
    5    1   18    8        0.0000602678
    5    1   19    8       -0.0000000687
    5    1    9    9        0.0000000045
    5    1   10    9        0.0000000017
    5    1   11    9        0.0000001350
    5    1   12    9       -0.0026466897
    5    1   13    9        0.0000005980
    5    1   14    9        0.0000000240
    5    1   15    9       -0.0000001000
    5    1   16    9       -0.0007198584
    5    1   17    9        0.0000000000
    5    1   18    9        0.0000000297
    5    1   19    9        0.0000321471
    5    1   10   10        0.0000000049
    5    1   11   10        0.0000000607
    5    1   12   10       -0.0011705478
    5    1   13   10       -0.0000001149
    5    1   14   10       -0.0000000063
    5    1   15   10       -0.0000000733
    5    1   16   10       -0.0005332557
    5    1   17   10       -0.0000000000
    5    1   18   10        0.0000000186
    5    1   19   10       -0.0000118020
    5    1   11   11        0.0000000042
    5    1   12   11        0.0000422979
    5    1   13   11        0.0000000173
    5    1   14   11        0.0000000007
    5    1   15   11       -0.0000000037
    5    1   16   11       -0.0000130175
    5    1   17   11       -0.0000000129
    5    1   18   11        0.0000022602
    5    1   19   11        0.0011821639
    5    1   12   12        0.0000000015
    5    1   13   12       -0.0000000007
    5    1   14   12        0.0000000164
    5    1   15   12       -0.0000134033
    5    1   16   12        0.0000000022
    5    1   17   12       -0.0001515161
    5    1   18   12       -0.0000000033
    5    1   19   12       -0.0000001027
    5    1   13   13       -0.0000015866
    5    1   14   13        0.0000197012
    5    1   15   13       -0.0000000029
    5    1   16   13        0.0000000002
    5    1   17   13        0.0000021783
    5    1   18   13        0.0000601356
    5    1   19   13       -0.0000000803
    5    1   14   14        0.0000015893
    5    1   15   14        0.0000000005
    5    1   16   14       -0.0000000050
    5    1   17   14        0.0000000877
    5    1   18   14       -0.0014919475
    5    1   19   14        0.0000016716
    5    1   15   15        0.0000000137
    5    1   16   15        0.0000279960
    5    1   17   15       -0.0000003055
    5    1   18   15        0.0000000280
    5    1   19   15        0.0009705914
    5    1   16   16       -0.0000000097
    5    1   17   16       -0.0011125459
    5    1   18   16       -0.0000000015
    5    1   19   16       -0.0000002674
    5    1   17   17        0.0000000000
    5    1   18   17        0.0000000021
    5    1   19   17       -0.0000000023
    5    1   18   18        0.0000000051
    5    1   19   18        0.0000000020
    5    1   19   19        0.0000000051
    6    1    6    1        0.0013726084
    6    1    7    1        0.0000000000
    6    1    8    1        0.0000017290
    6    1    9    1        0.0004628334
    6    1   10    1       -0.0018220437
    6    1   11    1        0.0000048437
    6    1   12    1       -0.0000000001
    6    1   13    1        0.0000000001
    6    1   14    1       -0.0000000023
    6    1   15    1        0.0000006933
    6    1   16    1       -0.0000000001
    6    1   17    1        0.0000000003
    6    1   18    1        0.0000000033
    6    1   19    1        0.0000000025
    6    1    2    2       -0.0019065705
    6    1    3    2       -0.0000024817
    6    1    4    2        0.0000000034
    6    1    5    2       -0.0000000000
    6    1    6    2        0.0000039153
    6    1    7    2       -0.0000000000
    6    1    8    2        0.0003889420
    6    1    9    2        0.0000031278
    6    1   10    2       -0.0000041784
    6    1   11    2        0.0000000059
    6    1   12    2       -0.0000000000
    6    1   13    2        0.0000000857
    6    1   14    2       -0.0000021298
    6    1   15    2       -0.0000000006
    6    1   16    2       -0.0000000000
    6    1   17    2        0.0000000000
    6    1   18    2        0.0000000028
    6    1   19    2       -0.0000000063
    6    1    3    3       -0.0003974841
    6    1    4    3        0.0000003748
    6    1    5    3       -0.0000000000
    6    1    6    3       -0.0014890679
    6    1    7    3       -0.0000000000
    6    1    8    3       -0.0000120437
    6    1    9    3        0.0002122765
    6    1   10    3        0.0005761197
    6    1   11    3       -0.0000014685
    6    1   12    3        0.0000000000
    6    1   13    3       -0.0000000003
    6    1   14    3        0.0000000071
    6    1   15    3        0.0000002434
    6    1   16    3       -0.0000000001
    6    1   17    3       -0.0000000008
    6    1   18    3       -0.0000000002
    6    1   19    3       -0.0000000000
    6    1    4    4       -0.0008802006
    6    1    5    4       -0.0000000000
    6    1    6    4        0.0000012587
    6    1    7    4       -0.0000000001
    6    1    8    4       -0.0000000005
    6    1    9    4        0.0000000403
    6    1   10    4       -0.0000006869
    6    1   11    4        0.0007464023
    6    1   12    4        0.0000000381
    6    1   13    4       -0.0000005524
    6    1   14    4        0.0000137528
    6    1   15    4        0.0019309274
    6    1   16    4       -0.0000002682
    6    1   17    4        0.0000031196
    6    1   18    4        0.0000000013
    6    1   19    4       -0.0000000002
    6    1    5    5       -0.0008802000
    6    1    6    5       -0.0000000001
    6    1    7    5       -0.0000008506
    6    1    8    5        0.0000000000
    6    1    9    5       -0.0000000000
    6    1   10    5        0.0000000000
    6    1   11    5       -0.0000000381
    6    1   12    5        0.0007464021
    6    1   13    5        0.0000137528
    6    1   14    5        0.0000005524
    6    1   15    5        0.0000002682
    6    1   16    5        0.0019309311
    6    1   17    5       -0.0000000002
    6    1   18    5        0.0000000024
    6    1   19    5        0.0000001366
    6    1    6    6        0.0001662905
    6    1    7    6        0.0000000000
    6    1    8    6        0.0000050153
    6    1    9    6        0.0013758592
    6    1   10    6       -0.0009245903
    6    1   11    6       -0.0000001691
    6    1   12    6        0.0000000000
    6    1   13    6        0.0000000008
    6    1   14    6       -0.0000000193
    6    1   15    6       -0.0000045192
    6    1   16    6        0.0000000009
    6    1   17    6       -0.0000000046
    6    1   18    6        0.0000000037
    6    1   19    6        0.0000000029
    6    1    7    7       -0.0007924356
    6    1    8    7        0.0000000001
    6    1    9    7        0.0000000000
    6    1   10    7        0.0000000011
    6    1   11    7        0.0000000000
    6    1   12    7        0.0000016792
    6    1   13    7        0.0000000001
    6    1   14    7       -0.0000000001
    6    1   15    7        0.0000000000
    6    1   16    7       -0.0000001534
    6    1   17    7       -0.0000000000
    6    1   18    7       -0.0000107651
    6    1   19    7        0.0013694516
    6    1    8    8       -0.0006010116
    6    1    9    8        0.0000013743
    6    1   10    8       -0.0000001619
    6    1   11    8       -0.0000000000
    6    1   12    8       -0.0000000000
    6    1   13    8        0.0000000937
    6    1   14    8       -0.0000023284
    6    1   15    8       -0.0000000033
    6    1   16    8        0.0000000000
    6    1   17    8       -0.0000000000
    6    1   18    8        0.0000000006
    6    1   19    8       -0.0000000014
    6    1    9    9       -0.0004131484
    6    1   10    9       -0.0014375088
    6    1   11    9        0.0000034741
    6    1   12    9       -0.0000000001
    6    1   13    9        0.0000000001
    6    1   14    9       -0.0000000016
    6    1   15    9        0.0000004184
    6    1   16    9       -0.0000000001
    6    1   17    9       -0.0000000001
    6    1   18    9        0.0000000008
    6    1   19    9        0.0000000004
    6    1   10   10        0.0003650164
    6    1   11   10       -0.0000015448
    6    1   12   10        0.0000000000
    6    1   13   10        0.0000000001
    6    1   14   10       -0.0000000012
    6    1   15   10       -0.0000000698
    6    1   16   10        0.0000000000
    6    1   17   10       -0.0000000014
    6    1   18   10       -0.0000000057
    6    1   19   10       -0.0000000049
    6    1   11   11       -0.0014844510
    6    1   12   11       -0.0000000000
    6    1   13   11        0.0000000515
    6    1   14   11       -0.0000012817
    6    1   15   11       -0.0009179765
    6    1   16   11        0.0000001743
    6    1   17   11       -0.0000009517
    6    1   18   11       -0.0000000011
    6    1   19   11        0.0000000002
    6    1   12   12       -0.0014844514
    6    1   13   12       -0.0000012817
    6    1   14   12       -0.0000000515
    6    1   15   12       -0.0000001743
    6    1   16   12       -0.0009179760
    6    1   17   12        0.0000000000
    6    1   18   12       -0.0000000022
    6    1   19   12       -0.0000008662
    6    1   13   13       -0.0004867618
    6    1   14   13        0.0000000001
    6    1   15   13       -0.0000002699
    6    1   16   13        0.0000067435
    6    1   17   13       -0.0000000003
    6    1   18   13        0.0000009415
    6    1   19   13       -0.0000000012
    6    1   14   14       -0.0004867634
    6    1   15   14        0.0000067435
    6    1   16   14        0.0000002699
    6    1   17   14        0.0000000081
    6    1   18   14        0.0000000379
    6    1   19   14       -0.0000000001
    6    1   15   15       -0.0005531424
    6    1   16   15        0.0000000000
    6    1   17   15       -0.0000003213
    6    1   18   15        0.0000000001
    6    1   19   15       -0.0000000002
    6    1   16   16       -0.0005531404
    6    1   17   16        0.0000000001
    6    1   18   16        0.0000000026
    6    1   19   16       -0.0000006100
    6    1   17   17       -0.0008256642
    6    1   18   17       -0.0000000001
    6    1   19   17        0.0000000002
    6    1   18   18       -0.0006889188
    6    1   19   18       -0.0000048051
    6    1   19   19       -0.0010207719
    7    1    7    1        0.0001290972
    7    1    8    1       -0.0000000000
    7    1    9    1        0.0000000000
    7    1   10    1       -0.0000000001
    7    1   11    1        0.0000000000
    7    1   12    1        0.0000000705
    7    1   13    1       -0.0000000008
    7    1   14    1       -0.0000000000
    7    1   15    1        0.0000000000
    7    1   16    1        0.0000000415
    7    1   17    1        0.0000000000
    7    1   18    1       -0.0000001283
    7    1   19    1       -0.0000954339
    7    1    2    2       -0.0000000002
    7    1    3    2        0.0000000000
    7    1    4    2        0.0000000000
    7    1    5    2       -0.0000000010
    7    1    6    2       -0.0000000000
    7    1    7    2        0.0000000709
    7    1    8    2        0.0000000000
    7    1    9    2       -0.0000000000
    7    1   10    2       -0.0000000002
    7    1   11    2        0.0000000000
    7    1   12    2        0.0000000008
    7    1   13    2       -0.0000001567
    7    1   14    2       -0.0000000063
    7    1   15    2        0.0000000001
    7    1   16    2       -0.0000000006
    7    1   17    2       -0.0000000000
    7    1   18    2       -0.0001313034
    7    1   19    2        0.0000001611
    7    1    3    3       -0.0000000000
    7    1    4    3        0.0000000002
    7    1    5    3        0.0000033077
    7    1    6    3       -0.0000000000
    7    1    7    3       -0.0006912866
    7    1    8    3        0.0000000000
    7    1    9    3        0.0000000000
    7    1   10    3        0.0000000002
    7    1   11    3       -0.0000000000
    7    1   12    3       -0.0000002596
    7    1   13    3        0.0000000058
    7    1   14    3        0.0000000002
    7    1   15    3       -0.0000000000
    7    1   16    3       -0.0000001710
    7    1   17    3       -0.0000000000
    7    1   18    3        0.0000008650
    7    1   19    3        0.0001943951
    7    1    4    4        0.0000000329
    7    1    5    4        0.0002422470
    7    1    6    4        0.0000000000
    7    1    7    4       -0.0000018329
    7    1    8    4       -0.0000000000
    7    1    9    4       -0.0000000000
    7    1   10    4       -0.0000000001
    7    1   11    4       -0.0000000550
    7    1   12    4       -0.0006493778
    7    1   13    4        0.0000001446
    7    1   14    4        0.0000000058
    7    1   15    4        0.0000000312
    7    1   16    4        0.0001134303
    7    1   17    4       -0.0000000002
    7    1   18    4        0.0000000036
    7    1   19    4        0.0000010857
    7    1    5    5       -0.0000000329
    7    1    6    5        0.0000004803
    7    1    7    5        0.0000000001
    7    1    8    5       -0.0000000059
    7    1    9    5       -0.0000006932
    7    1   10    5       -0.0000012209
    7    1   11    5       -0.0006493775
    7    1   12    5        0.0000000550
    7    1   13    5       -0.0000000058
    7    1   14    5        0.0000001446
    7    1   15    5        0.0001134346
    7    1   16    5       -0.0000000311
    7    1   17    5       -0.0000029374
    7    1   18    5       -0.0000000001
    7    1   19    5       -0.0000000000
    7    1    6    6        0.0000000000
    7    1    7    6       -0.0001808298
    7    1    8    6        0.0000000000
    7    1    9    6        0.0000000000
    7    1   10    6        0.0000000005
    7    1   11    6        0.0000000000
    7    1   12    6        0.0000004080
    7    1   13    6       -0.0000000019
    7    1   14    6       -0.0000000001
    7    1   15    6       -0.0000000006
    7    1   16    6       -0.0000030282
    7    1   17    6       -0.0000000000
    7    1   18    6        0.0000002475
    7    1   19    6        0.0006235244
    7    1    7    7       -0.0000000000
    7    1    8    7        0.0000006514
    7    1    9    7        0.0005220487
    7    1   10    7        0.0004247973
    7    1   11    7        0.0000016095
    7    1   12    7       -0.0000000000
    7    1   13    7        0.0000000001
    7    1   14    7       -0.0000000029
    7    1   15    7       -0.0000004418
    7    1   16    7        0.0000000001
    7    1   17    7       -0.0000000012
    7    1   18    7       -0.0000000004
    7    1   19    7       -0.0000000003
    7    1    8    8        0.0000000000
    7    1    9    8       -0.0000000000
    7    1   10    8       -0.0000000009
    7    1   11    8        0.0000000000
    7    1   12    8       -0.0000000002
    7    1   13    8       -0.0000032253
    7    1   14    8       -0.0000001298
    7    1   15    8        0.0000000003
    7    1   16    8       -0.0000000043
    7    1   17    8       -0.0000000001
    7    1   18    8       -0.0007457221
    7    1   19    8        0.0000011263
    7    1    9    9       -0.0000000000
    7    1   10    9       -0.0000000004
    7    1   11    9        0.0000000000
    7    1   12    9        0.0000022855
    7    1   13    9       -0.0000000001
    7    1   14    9        0.0000000000
    7    1   15    9        0.0000000001
    7    1   16    9        0.0000007836
    7    1   17    9        0.0000000000
    7    1   18    9       -0.0000006167
    7    1   19    9       -0.0004331550
    7    1   10   10       -0.0000000004
    7    1   11   10        0.0000000000
    7    1   12   10        0.0000015100
    7    1   13   10       -0.0000000016
    7    1   14   10       -0.0000000001
    7    1   15   10       -0.0000000001
    7    1   16   10       -0.0000006493
    7    1   17   10        0.0000000000
    7    1   18   10       -0.0000005494
    7    1   19   10       -0.0002119046
    7    1   11   11        0.0000000145
    7    1   12   11        0.0004300546
    7    1   13   11       -0.0000004496
    7    1   14   11       -0.0000000181
    7    1   15   11        0.0000000367
    7    1   16   11        0.0001641977
    7    1   17   11       -0.0000000000
    7    1   18   11       -0.0000000039
    7    1   19   11       -0.0000005932
    7    1   12   12       -0.0000000145
    7    1   13   12        0.0000000181
    7    1   14   12       -0.0000004496
    7    1   15   12        0.0001641972
    7    1   16   12       -0.0000000367
    7    1   17   12       -0.0000015576
    7    1   18   12        0.0000000002
    7    1   19   12       -0.0000000000
    7    1   13   13       -0.0000210979
    7    1   14   13        0.0002617600
    7    1   15   13        0.0000002659
    7    1   16   13       -0.0000000108
    7    1   17   13       -0.0000000055
    7    1   18   13       -0.0000000691
    7    1   19   13       -0.0000000000
    7    1   14   14        0.0000210979
    7    1   15   14        0.0000000108
    7    1   16   14        0.0000002659
    7    1   17   14       -0.0000000002
    7    1   18   14        0.0000017204
    7    1   19   14       -0.0000000030
    7    1   15   15        0.0000000199
    7    1   16   15        0.0000482323
    7    1   17   15        0.0000000002
    7    1   18   15        0.0000000016
    7    1   19   15       -0.0000013591
    7    1   16   16       -0.0000000199
    7    1   17   16        0.0000009432
    7    1   18   16        0.0000000002
    7    1   19   16        0.0000000002
    7    1   17   17       -0.0000000000
    7    1   18   17       -0.0000000000
    7    1   19   17       -0.0000000002
    7    1   18   18       -0.0000000034
    7    1   19   18        0.0000000026
    7    1   19   19       -0.0000000020
    8    1    8    1        0.0023626890
    8    1    9    1        0.0000009019
    8    1   10    1       -0.0000015149
    8    1   11    1        0.0000000017
    8    1   12    1       -0.0000000000
    8    1   13    1        0.0000000059
    8    1   14    1       -0.0000001460
    8    1   15    1       -0.0000000004
    8    1   16    1       -0.0000000000
    8    1   17    1        0.0000000000
    8    1   18    1        0.0000000104
    8    1   19    1       -0.0000000232
    8    1    2    2        0.0000005522
    8    1    3    2       -0.0020504210
    8    1    4    2       -0.0000003238
    8    1    5    2        0.0000000000
    8    1    6    2       -0.0001691692
    8    1    7    2        0.0000000000
    8    1    8    2       -0.0000000968
    8    1    9    2        0.0027158588
    8    1   10    2        0.0006074841
    8    1   11    2       -0.0000006511
    8    1   12    2        0.0000000000
    8    1   13    2       -0.0000000000
    8    1   14    2        0.0000000005
    8    1   15    2       -0.0000000624
    8    1   16    2        0.0000000000
    8    1   17    2       -0.0000000001
    8    1   18    2        0.0000000071
    8    1   19    2        0.0000000061
    8    1    3    3        0.0000037956
    8    1    4    3        0.0000000061
    8    1    5    3       -0.0000000000
    8    1    6    3       -0.0000041524
    8    1    7    3        0.0000000000
    8    1    8    3       -0.0000265668
    8    1    9    3        0.0000019415
    8    1   10    3       -0.0000013074
    8    1   11    3        0.0000000055
    8    1   12    3       -0.0000000000
    8    1   13    3       -0.0000000440
    8    1   14    3        0.0000010947
    8    1   15    3        0.0000000162
    8    1   16    3       -0.0000000000
    8    1   17    3        0.0000000000
    8    1   18    3        0.0000000014
    8    1   19    3       -0.0000000031
    8    1    4    4        0.0000032474
    8    1    5    4       -0.0000000000
    8    1    6    4       -0.0000000098
    8    1    7    4       -0.0000000000
    8    1    8    4       -0.0000011484
    8    1    9    4        0.0000000042
    8    1   10    4       -0.0000000005
    8    1   11    4        0.0000016364
    8    1   12    4        0.0000000001
    8    1   13    4       -0.0000008174
    8    1   14    4        0.0000203490
    8    1   15    4        0.0000046150
    8    1   16    4       -0.0000000006
    8    1   17    4        0.0000000109
    8    1   18    4       -0.0000000000
    8    1   19    4        0.0000000001
    8    1    5    5        0.0000032474
    8    1    6    5        0.0000000000
    8    1    7    5       -0.0000000046
    8    1    8    5        0.0000000001
    8    1    9    5       -0.0000000000
    8    1   10    5        0.0000000000
    8    1   11    5       -0.0000000001
    8    1   12    5        0.0000016364
    8    1   13    5        0.0000203480
    8    1   14    5        0.0000008173
    8    1   15    5        0.0000000006
    8    1   16    5        0.0000046150
    8    1   17    5       -0.0000000000
    8    1   18    5        0.0000007876
    8    1   19    5       -0.0000000078
    8    1    6    6        0.0000052054
    8    1    7    6        0.0000000000
    8    1    8    6       -0.0000360778
    8    1    9    6       -0.0000001915
    8    1   10    6       -0.0000000358
    8    1   11    6       -0.0000000027
    8    1   12    6        0.0000000000
    8    1   13    6        0.0000000031
    8    1   14    6       -0.0000000777
    8    1   15    6       -0.0000000234
    8    1   16    6        0.0000000000
    8    1   17    6       -0.0000000000
    8    1   18    6       -0.0000000001
    8    1   19    6        0.0000000002
    8    1    7    7        0.0000035771
    8    1    8    7        0.0000000000
    8    1    9    7       -0.0000000000
    8    1   10    7       -0.0000000005
    8    1   11    7        0.0000000000
    8    1   12    7        0.0000000043
    8    1   13    7       -0.0000006728
    8    1   14    7       -0.0000000271
    8    1   15    7        0.0000000002
    8    1   16    7       -0.0000000090
    8    1   17    7       -0.0000000000
    8    1   18    7       -0.0003780041
    8    1   19    7        0.0000054524
    8    1    8    8       -0.0000000137
    8    1    9    8       -0.0004457388
    8    1   10    8        0.0000662603
    8    1   11    8        0.0000000398
    8    1   12    8       -0.0000000000
    8    1   13    8       -0.0000000000
    8    1   14    8        0.0000000003
    8    1   15    8       -0.0000001890
    8    1   16    8        0.0000000000
    8    1   17    8       -0.0000000008
    8    1   18    8       -0.0000000015
    8    1   19    8       -0.0000000013
    8    1    9    9        0.0000042747
    8    1   10    9       -0.0000025036
    8    1   11    9        0.0000000122
    8    1   12    9       -0.0000000000
    8    1   13    9        0.0000000052
    8    1   14    9       -0.0000001286
    8    1   15    9        0.0000000034
    8    1   16    9       -0.0000000000
    8    1   17    9        0.0000000000
    8    1   18    9       -0.0000000015
    8    1   19    9        0.0000000034
    8    1   10   10        0.0000031192
    8    1   11   10       -0.0000000046
    8    1   12   10       -0.0000000000
    8    1   13   10       -0.0000000167
    8    1   14   10        0.0000004153
    8    1   15   10       -0.0000000010
    8    1   16   10        0.0000000000
    8    1   17   10        0.0000000000
    8    1   18   10        0.0000000006
    8    1   19   10       -0.0000000015
    8    1   11   11        0.0000034180
    8    1   12   11       -0.0000000000
    8    1   13   11       -0.0000191108
    8    1   14   11        0.0004751794
    8    1   15   11        0.0000012334
    8    1   16   11       -0.0000000003
    8    1   17   11        0.0000000093
    8    1   18   11        0.0000000000
    8    1   19   11       -0.0000000000
    8    1   12   12        0.0000034180
    8    1   13   12        0.0004751787
    8    1   14   12        0.0000191107
    8    1   15   12        0.0000000002
    8    1   16   12        0.0000012334
    8    1   17   12       -0.0000000000
    8    1   18   12       -0.0000007982
    8    1   19   12        0.0000000073
    8    1   13   13       -0.0000000442
    8    1   14   13       -0.0000000000
    8    1   15   13       -0.0000037040
    8    1   16   13        0.0000925370
    8    1   17   13       -0.0000000440
    8    1   18   13       -0.0000000002
    8    1   19   13        0.0000000511
    8    1   14   14       -0.0000000442
    8    1   15   14        0.0000925367
[...]
   16   13   16   16        0.0002267992
   16   13   17   16        0.0000000028
   16   13   18   16        0.0000063283
   16   13   19   16       -0.0000001409
   16   13   17   17        0.0001016139
   16   13   18   17       -0.0000143510
   16   13   19   17        0.0000000819
   16   13   18   18       -0.0000043930
   16   13   19   18       -0.0025103760
   16   13   19   19        0.0001626499
   17   13   17   13        0.0120615556
   17   13   18   13        0.0000000037
   17   13   19   13        0.0000000035
   17   13   14   14       -0.0000000001
   17   13   15   14       -0.0000000518
   17   13   16   14       -0.0000182583
   17   13   17   14       -0.0000000000
   17   13   18   14        0.0000001039
   17   13   19   14        0.0002173218
   17   13   15   15       -0.0000000146
   17   13   16   15        0.0000003827
   17   13   17   15       -0.0000045342
   17   13   18   15       -0.0022426592
   17   13   19   15        0.0000549109
   17   13   16   16       -0.0000000196
   17   13   17   16        0.0001132685
   17   13   18   16       -0.0000897602
   17   13   19   16        0.0000021780
   17   13   17   17       -0.0000000027
   17   13   18   17       -0.0000014382
   17   13   19   17        0.0000000480
   17   13   18   18       -0.0000000008
   17   13   19   18        0.0000010165
   17   13   19   19       -0.0000001513
   18   13   18   13        0.0065849406
   18   13   19   13       -0.0000049601
   18   13   14   14       -0.0000410368
   18   13   15   14        0.0000000018
   18   13   16   14       -0.0000000002
   18   13   17   14       -0.0000001031
   18   13   18   14        0.0000000090
   18   13   19   14        0.0000000238
   18   13   15   15       -0.0000110028
   18   13   16   15        0.0000026308
   18   13   17   15       -0.0012400707
   18   13   18   15        0.0000001858
   18   13   19   15        0.0001671531
   18   13   16   16        0.0001427421
   18   13   17   16       -0.0000496355
   18   13   18   16       -0.0000045490
   18   13   19   16       -0.0041764368
   18   13   17   17       -0.0000011486
   18   13   18   17       -0.0000000005
   18   13   19   17       -0.0000000629
   18   13   18   18        0.0002697545
   18   13   19   18       -0.0000000045
   18   13   19   19        0.0002295848
   19   13   19   13        0.0009764000
   19   13   14   14        0.0000000351
   19   13   15   14        0.0000050792
   19   13   16   14       -0.0000004388
   19   13   17   14       -0.0002173095
   19   13   18   14        0.0000000250
   19   13   19   14        0.0000000001
   19   13   15   15        0.0000002312
   19   13   16   15       -0.0000000044
   19   13   17   15       -0.0000059731
   19   13   18   15        0.0000395335
   19   13   19   15       -0.0000012757
   19   13   16   16       -0.0000004465
   19   13   17   16       -0.0000002413
   19   13   18   16       -0.0009876112
   19   13   19   16        0.0000313526
   19   13   17   17        0.0000000156
   19   13   18   17        0.0000000469
   19   13   19   17       -0.0000000048
   19   13   18   18       -0.0000001994
   19   13   19   18        0.0000195747
   19   13   19   19       -0.0000011018
   14   14   14   14        0.1158765181
   14   14   15   14       -0.0000000137
   14   14   16   14        0.0000000136
   14   14   17   14       -0.0000000041
   14   14   18   14       -0.0000059396
   14   14   19   14        0.0000000037
   14   14   15   15        0.1040419861
   14   14   16   15        0.0000545722
   14   14   17   15       -0.0000311492
   14   14   18   15        0.0000000074
   14   14   19   15        0.0000031291
   14   14   16   16        0.0884632025
   14   14   17   16       -0.0000025176
   14   14   18   16        0.0000000594
   14   14   19   16        0.0000462207
   14   14   17   17        0.1017473840
   14   14   18   17       -0.0000000051
   14   14   19   17       -0.0000000044
   14   14   18   18        0.0970964433
   14   14   19   18       -0.0000044919
   14   14   19   19        0.0919604288
   15   14   15   14        0.0051661288
   15   14   16   14        0.0001091487
   15   14   17   14       -0.0000198585
   15   14   18   14       -0.0000000000
   15   14   19   14        0.0000002949
   15   14   15   15        0.0002267986
   15   14   16   15        0.0000005220
   15   14   17   15       -0.0000000699
   15   14   18   15        0.0000001797
   15   14   19   15        0.0000000015
   15   14   16   16        0.0001525269
   15   14   17   16       -0.0000000045
   15   14   18   16       -0.0000091670
   15   14   19   16        0.0000002264
   15   14   17   17        0.0001016139
   15   14   18   17       -0.0000143540
   15   14   19   17        0.0000000890
   15   14   18   18       -0.0000043931
   15   14   19   18       -0.0025103692
   15   14   19   19        0.0001626481
   16   14   16   14        0.0007415748
   16   14   17   14       -0.0000014439
   16   14   18   14        0.0000000138
   16   14   19   14        0.0000019108
   16   14   15   15        0.0000060954
   16   14   16   15        0.0000132873
   16   14   17   15       -0.0000000026
   16   14   18   15       -0.0000005602
   16   14   19   15       -0.0000000864
   16   14   16   16        0.0000090882
   16   14   17   16       -0.0000000692
   16   14   18   16        0.0000002567
   16   14   19   16       -0.0000000059
   16   14   17   17        0.0000040674
   16   14   18   17        0.0003585736
   16   14   19   17       -0.0000021524
   16   14   18   18       -0.0000001705
   16   14   19   18       -0.0001004815
   16   14   19   19        0.0000065050
   17   14   17   14        0.0120615559
   17   14   18   14       -0.0000000047
   17   14   19   14       -0.0000000028
   17   14   15   15        0.0000004190
   17   14   16   15        0.0000000144
   17   14   17   15        0.0001132685
   17   14   18   15       -0.0000897775
   17   14   19   15        0.0000022172
   17   14   16   16        0.0000004823
   17   14   17   16        0.0000045342
   17   14   18   16        0.0022426658
   17   14   19   16       -0.0000549128
   17   14   17   17        0.0000000679
   17   14   18   17       -0.0000000585
   17   14   19   17        0.0000000029
   17   14   18   18       -0.0000000528
   17   14   19   18       -0.0000252643
   17   14   19   19        0.0000037558
   18   14   18   14        0.0065841571
   18   14   19   14       -0.0000049555
   18   14   15   15       -0.0000004691
   18   14   16   15       -0.0000645983
   18   14   17   15       -0.0000496386
   18   14   18   15       -0.0000045481
   18   14   19   15       -0.0041756422
   18   14   16   16        0.0000057711
   18   14   17   16        0.0012400514
   18   14   18   16       -0.0000001783
   18   14   19   16       -0.0001671637
   18   14   17   17       -0.0000000453
   18   14   18   17       -0.0000000028
   18   14   19   17        0.0000015634
   18   14   18   18        0.0000108546
   18   14   19   18       -0.0000000053
   18   14   19   19        0.0000092387
   19   14   19   14        0.0009763810
   19   14   15   15        0.0000000090
   19   14   16   15        0.0000001158
   19   14   17   15       -0.0000002362
   19   14   18   15       -0.0009876083
   19   14   19   15        0.0000313490
   19   14   16   16       -0.0000000196
   19   14   17   16        0.0000059731
   19   14   18   16       -0.0000395300
   19   14   19   16        0.0000012349
   19   14   17   17       -0.0000000007
   19   14   18   17       -0.0000011649
   19   14   19   17        0.0000001197
   19   14   18   18       -0.0000000100
   19   14   19   18        0.0000007879
   19   14   19   19       -0.0000000453
   15   15   15   15        0.1059691664
   15   15   16   15       -0.0000028504
   15   15   17   15       -0.0000721491
   15   15   18   15        0.0000000062
   15   15   19   15        0.0000000290
   15   15   16   16        0.0878233681
   15   15   17   16       -0.0000000147
   15   15   18   16        0.0000002337
   15   15   19   16        0.0000414112
   15   15   17   17        0.0975049675
   15   15   18   17       -0.0000000045
   15   15   19   17       -0.0000000043
   15   15   18   18        0.0912144318
   15   15   19   18       -0.0001484534
   15   15   19   19        0.0914874408
   16   15   16   15        0.0021794183
   16   15   17   15       -0.0000000149
   16   15   18   15       -0.0000000994
   16   15   19   15        0.0000503854
   16   15   16   16        0.0000028505
   16   15   17   16       -0.0000717742
   16   15   18   16        0.0000000001
   16   15   19   16       -0.0000000485
   16   15   17   17        0.0000000000
   16   15   18   17        0.0000000001
   16   15   19   17        0.0000000047
   16   15   18   18       -0.0000000041
   16   15   19   18        0.0000000021
   16   15   19   19       -0.0000000049
   17   15   17   15        0.0081164272
   17   15   18   15       -0.0000000038
   17   15   19   15       -0.0000000029
   17   15   16   16       -0.0000724786
   17   15   17   16        0.0000000000
   17   15   18   16        0.0000281406
   17   15   19   16       -0.0001598739
   17   15   17   17        0.0000023172
   17   15   18   17        0.0000000028
   17   15   19   17        0.0000000001
   17   15   18   18       -0.0001127533
   17   15   19   18       -0.0000008729
   17   15   19   19       -0.0001159518
   18   15   18   15        0.0016414128
   18   15   19   15       -0.0000368943
   18   15   16   16        0.0000000002
   18   15   17   16       -0.0000281404
   18   15   18   16       -0.0000000075
   18   15   19   16        0.0000000053
   18   15   17   17        0.0000000030
   18   15   18   17       -0.0000096247
   18   15   19   17       -0.0000000481
   18   15   18   18       -0.0000000013
   18   15   19   18       -0.0000000052
   18   15   19   19        0.0000000007
   19   15   19   15        0.0052973123
   19   15   16   16       -0.0000000507
   19   15   17   16        0.0001599018
   19   15   18   16        0.0000000048
   19   15   19   16       -0.0000000066
   19   15   17   17       -0.0000000004
   19   15   18   17       -0.0000001653
   19   15   19   17       -0.0000122122
   19   15   18   18       -0.0000000406
   19   15   19   18        0.0000000022
   19   15   19   19       -0.0000000427
   16   16   16   16        0.1059692107
   16   16   17   16        0.0000000447
   16   16   18   16        0.0000000151
   16   16   19   16       -0.0001437243
   16   16   17   17        0.0975049679
   16   16   18   17        0.0000000044
   16   16   19   17        0.0000000028
   16   16   18   18        0.0912144378
   16   16   19   18       -0.0001484537
   16   16   19   19        0.0914873980
   17   16   17   16        0.0081164278
   17   16   18   16        0.0000000033
   17   16   19   16        0.0000000020
   17   16   17   17       -0.0000000005
   17   16   18   17       -0.0000000247
   17   16   19   17        0.0000016450
   17   16   18   18        0.0000000237
   17   16   19   18       -0.0000000010
   17   16   19   19        0.0000000245
   18   16   18   16        0.0016414665
   18   16   19   16       -0.0000368934
   18   16   17   17        0.0000000158
   18   16   18   17        0.0000000018
   18   16   19   17        0.0000000002
   18   16   18   18       -0.0000002027
   18   16   19   18       -0.0000254679
   18   16   19   19        0.0000016909
   19   16   19   16        0.0052981857
   19   16   17   17        0.0000014050
   19   16   18   17       -0.0000000002
   19   16   19   17        0.0000000026
   19   16   18   18       -0.0001956486
   19   16   19   18        0.0000011211
   19   16   19   19       -0.0002057549
   17   17   17   17        0.1026846375
   17   17   18   17        0.0000000000
   17   17   19   17       -0.0000000007
   17   17   18   18        0.0939420517
   17   17   19   18       -0.0000814516
   17   17   19   19        0.0916370129
   18   17   18   17        0.0016156984
   18   17   19   17       -0.0000091550
   18   17   18   18        0.0000000006
   18   17   19   18       -0.0000000002
   18   17   19   19        0.0000000006
   19   17   19   17        0.0013335978
   19   17   18   18       -0.0000000007
   19   17   19   18        0.0000000006
   19   17   19   19       -0.0000000010
   18   18   18   18        0.1013214713
   18   18   19   18       -0.0000000029
   18   18   19   19        0.0935016583
   19   18   19   18        0.0038945646
   19   18   19   19       -0.0001762297
   19   19   19   19        0.0961760695
 end_two_electron_integrals


 output epsi filename:./pspw_hf_H2.emovecs

 Total PSPW energy     :  -0.8091026796E+00


=== Spin Contamination ===

 <Sexact^2> =    0.0000000000000000     
 <S^2>      =    0.0000000000000000     



== Center of Charge ==

spin up     (    0.0000,    0.0000,    0.0000 )
spin down   (    0.0000,    0.0000,    0.0000 )
     total  (    0.0000,    0.0000,    0.0000 )
ionic       (    0.0000,    0.0000,    0.0000 )


== Molecular Dipole wrt Center of Mass ==

mu   =  (   -0.0000,   -0.0000,   -0.0000 ) au
|mu| =     0.0000 au,       0.0001 Debye

 output psi filename:./pspw_hf_H2.movecs

 Writing Crystallographic Information File:./H2.cif
   - cell not shifted (nwpw:cif_shift_cell .false.)


== Timing ==

cputime in seconds
  prologue    :   0.730632E+01
  main loop   :   0.151020E+04
  epilogue    :   0.159394E-01
  total       :   0.151752E+04
  cputime/step:   0.100680E+02       (     150 evalulations,      62 linesearches)


Time spent doing                        total          step       percent
  total time                 :   0.151752E+04  0.101168E+02       100.0 %
  i/o time                   :   0.395854E+00  0.263903E-02         0.0 %
  FFTs                       :   0.130067E+04  0.867113E+01        85.7 %
  dot products               :   0.183301E+01  0.122201E-01         0.1 %
  geodesic                   :   0.150213E+00  0.100142E-02         0.0 %
  ffm_dgemm                  :   0.175187E-01  0.116791E-03         0.0 %
  fmf_dgemm                  :   0.985141E-01  0.656761E-03         0.0 %
  mmm_dgemm                  :   0.192074E-02  0.128049E-04         0.0 %
  m_diagonalize              :   0.121649E-02  0.810995E-05         0.0 %
  local pseudopotentials     :   0.222109E-01  0.148073E-03         0.0 %
  non-local pseudopotentials :   0.330458E+01  0.220305E-01         0.2 %
  structure factors          :   0.137517E+01  0.916783E-02         0.1 %
  phase factors              :   0.619000E-05  0.412667E-07         0.0 %
  masking and packing        :   0.520876E+02  0.347250E+00         3.4 %
  queue fft                  :   0.366507E+01  0.244338E-01         0.2 %
  queue fft (serial)         :   0.155767E+01  0.103845E-01         0.1 %
  queue fft (message passing):   0.195007E+01  0.130005E-01         0.1 %
  HFX potential              :   0.804856E+03  0.536570E+01        53.0 %
  non-local psp FFM          :   0.169692E+01  0.113128E-01         0.1 %
  non-local psp FMF          :   0.438406E+00  0.292271E-02         0.0 %
  non-local psp FFM A        :   0.557751E+00  0.371834E-02         0.0 %
  non-local psp FFM B        :   0.352593E+00  0.235062E-02         0.0 %

== HFX Counters ==
  HFX Evalulations         =   150
  Lin ACE HFX Evalulations =     0


     >>>  JOB COMPLETED     AT Thu May  1 22:20:12 2025  <<<

 Task  times  cpu:     1517.0s     wall:     1517.5s
 Summary of allocated global arrays
-----------------------------------
  No active global arrays


MA_summarize_allocated_blocks: starting scan ...
MA_summarize_allocated_blocks: scan completed: 0 heap blocks, 0 stack blocks
MA usage statistics:

	allocation statistics:
					      heap	     stack
					      ----	     -----
	current number of blocks	         0	         0
	maximum number of blocks	       313	        17
	current total bytes		         0	         0
	maximum total bytes		 955123768	 228700296
	maximum total K-bytes		    955124	    228701
	maximum total M-bytes		       956	       229


                                NWChem Input Module
                                -------------------




                                     CITATION
                                     --------
                Please cite the following reference when publishing
                           results obtained with NWChem:

          E. Apra, E. J. Bylaska, W. A. de Jong, N. Govind, K. Kowalski,
       T. P. Straatsma, M. Valiev, H. J. J. van Dam, Y. Alexeev, J. Anchell,
       V. Anisimov, F. W. Aquino, R. Atta-Fynn, J. Autschbach, N. P. Bauman,
     J. C. Becca, D. E. Bernholdt, K. Bhaskaran-Nair, S. Bogatko, P. Borowski,
         J. Boschen, J. Brabec, A. Bruner, E. Cauet, Y. Chen, G. N. Chuev,
      C. J. Cramer, J. Daily, M. J. O. Deegan, T. H. Dunning Jr., M. Dupuis,
   K. G. Dyall, G. I. Fann, S. A. Fischer, A. Fonari, H. Fruchtl, L. Gagliardi,
      J. Garza, N. Gawande, S. Ghosh, K. Glaesemann, A. W. Gotz, J. Hammond,
       V. Helms, E. D. Hermes, K. Hirao, S. Hirata, M. Jacquelin, L. Jensen,
   B. G. Johnson, H. Jonsson, R. A. Kendall, M. Klemm, R. Kobayashi, V. Konkov,
      S. Krishnamoorthy, M. Krishnan, Z. Lin, R. D. Lins, R. J. Littlefield,
      A. J. Logsdail, K. Lopata, W. Ma, A. V. Marenich, J. Martin del Campo,
   D. Mejia-Rodriguez, J. E. Moore, J. M. Mullin, T. Nakajima, D. R. Nascimento,
    J. A. Nichols, P. J. Nichols, J. Nieplocha, A. Otero-de-la-Roza, B. Palmer,
    A. Panyala, T. Pirojsirikul, B. Peng, R. Peverati, J. Pittner, L. Pollack,
   R. M. Richard, P. Sadayappan, G. C. Schatz, W. A. Shelton, D. W. Silverstein,
   D. M. A. Smith, T. A. Soares, D. Song, M. Swart, H. L. Taylor, G. S. Thomas,
            V. Tipparaju, D. G. Truhlar, K. Tsemekhman, T. Van Voorhis,
      A. Vazquez-Mayagoitia, P. Verma, O. Villa, A. Vishnu, K. D. Vogiatzis,
        D. Wang, J. H. Weare, M. J. Williamson, T. L. Windus, K. Wolinski,
        A. T. Wong, Q. Wu, C. Yang, Q. Yu, M. Zacharias, Z. Zhang, Y. Zhao,
                                and R. J. Harrison
                        "NWChem: Past, present, and future
                         J. Chem. Phys. 152, 184102 (2020)
                               doi:10.1063/5.0004997

                                      AUTHORS
                                      -------
  E. Apra, E. J. Bylaska, N. Govind, K. Kowalski, M. Valiev, D. Mejia-Rodriguez,
       A. Kunitsa, N. P. Bauman, A. Panyala, W. A. de Jong, T. P. Straatsma,
   H. J. J. van Dam, D. Wang, T. L. Windus, J. Hammond, J. Autschbach, A. Woods,
    K. Bhaskaran-Nair, J. Brabec, K. Lopata, S. A. Fischer, S. Krishnamoorthy,
     M. Jacquelin, W. Ma, M. Klemm, O. Villa, Y. Chen, V. Anisimov, F. Aquino,
     S. Hirata, M. T. Hackler, E. Hermes, L. Jensen, J. E. Moore, J. C. Becca,
      V. Konjkov, T. Risthaus, M. Malagoli, A. Marenich, A. Otero-de-la-Roza,
        J. Mullin, P. Nichols, R. Peverati, J. Pittner, Y. Zhao, P.-D. Fan,
        A. Fonari, M. J. Williamson, R. J. Harrison, J. R. Rehr, M. Dupuis,
     D. Silverstein, D. M. A. Smith, J. Nieplocha, V. Tipparaju, M. Krishnan,
     B. E. Van Kuiken, A. Vazquez-Mayagoitia, M. Swart, Q. Wu, T. Van Voorhis,
     A. A. Auer, M. Nooijen, L. D. Crosby, E. Brown, G. Cisneros, G. I. Fann,
   H. Fruchtl, J. Garza, K. Hirao, R. A. Kendall, J. A. Nichols, K. Tsemekhman,
    K. Wolinski, J. Anchell, D. E. Bernholdt, P. Borowski, T. Clark, D. Clerc,
   H. Dachsel, M. J. O. Deegan, K. Dyall, D. Elwood, E. Glendening, M. Gutowski,
   A. C. Hess, J. Jaffe, B. G. Johnson, J. Ju, R. Kobayashi, R. Kutteh, Z. Lin,
   R. Littlefield, X. Long, B. Meng, T. Nakajima, S. Niu, L. Pollack, M. Rosing,
   K. Glaesemann, G. Sandrone, M. Stave, H. Taylor, G. Thomas, J. H. van Lenthe,
                               A. T. Wong, Z. Zhang.

 Total times  cpu:     1517.1s     wall:     1517.5s
