 argument  1 = H2-4.0.nw



============================== echo of input deck ==============================
title "swnc: e theory=pspw4 xc=hf formula=H2 charge=0 mult=1"
#machinejob:expert

echo

start pspw_hf_H2

memory heap 1200 mb stack 1200 mb global 10 mb

charge 0

geometry
H    0.00000    0.00000   -2.00000
H    0.00000    0.00000    2.00000
end

nwpw
  ### pseudopotential block begin ###
  ### pseudopotential block end   ###
  simulation_cell
     SC 20.0000
     boundary_conditions aperiodic
  end

  cutoff 50.0
  mult 1
  xc hf
  lmbfgs
  tolerances 1.0e-9 1.0e-9

  virtual 18
end
set nwpw:cif_filename H2

#set nwpw:CI_maxit_orb 15
#set nwpw:CI_maxit_linesearch 15
set pspw:HFX_screening_radius 14.0


set nwpw:2qintegrals .true.
#set nwpw:3x3_virtual .true.

task pspw energy

================================================================================


                                         
                                         


             Northwest Computational Chemistry Package (NWChem) 7.2.2
             --------------------------------------------------------


                    Environmental Molecular Sciences Laboratory
                       Pacific Northwest National Laboratory
                                Richland, WA 99352

                              Copyright (c) 1994-2022
                       Pacific Northwest National Laboratory
                            Battelle Memorial Institute

             NWChem is an open-source computational chemistry package
                        distributed under the terms of the
                      Educational Community License (ECL) 2.0
             A copy of the license is included with this distribution
                              in the LICENSE.TXT file

                                  ACKNOWLEDGMENT
                                  --------------

            This software and its documentation were developed at the
            EMSL at Pacific Northwest National Laboratory, a multiprogram
            national laboratory, operated for the U.S. Department of Energy
            by Battelle under Contract Number DE-AC05-76RL01830. Support
            for this work was provided by the Department of Energy Office
            of Biological and Environmental Research, Office of Basic
            Energy Sciences, and the Office of Advanced Scientific Computing.


           Job information
           ---------------

    hostname        = LAPTOP-JJQSTSEL
    program         = nwchem
    date            = Thu May  1 22:21:34 2025

    compiled        = Fri_Jun_07_07:50:04_2024
    source          = /home/conda/feedstock_root/build_artifacts/nwchem_1717738148552/work
    nwchem branch   = 7.2.2
    nwchem revision = 64ba0f0
    ga revision     = 5.8.0
    use scalapack   = T
    input           = H2-4.0.nw
    prefix          = pspw_hf_H2.
    data base       = ./pspw_hf_H2.db
    status          = startup
    nproc           =        1
    time left       =     -1s



           Memory information
           ------------------

    heap     =  157286398 doubles =   1200.0 Mbytes
    stack    =  157286395 doubles =   1200.0 Mbytes
    global   =    1310720 doubles =     10.0 Mbytes (distinct from heap & stack)
    total    =  315883513 doubles =   2410.0 Mbytes
    verify   = yes
    hardfail = no 


           Directory information
           ---------------------

  0 permanent = .
  0 scratch   = .




                                NWChem Input Module
                                -------------------


               swnc: e theory=pspw4 xc=hf formula=H2 charge=0 mult=1
               -----------------------------------------------------

 Scaling coordinates for geometry "geometry" by  1.889725989
 (inverse scale =  0.529177249)

 ORDER OF PRIMARY AXIS IS BEING SET TO 4
 D4H symmetry detected

          ------
          auto-z
          ------
     1 autoz failed with cvr_scaling = 1.2 changing to 1.3
     2 autoz failed with cvr_scaling = 1.3 changing to 1.4
     3 autoz failed with cvr_scaling = 1.4 changing to 1.5
     4 autoz failed with cvr_scaling = 1.5 changing to 1.6
     5 autoz failed with cvr_scaling = 1.6 changing to 1.7

 AUTOZ failed to generate good internal coordinates.
 Cartesian coordinates will be used in optimizations.



                             Geometry "geometry" -> ""
                             -------------------------

 Output coordinates in angstroms (scale by  1.889725989 to convert to a.u.)

  No.       Tag          Charge          X              Y              Z
 ---- ---------------- ---------- -------------- -------------- --------------
    1 H                    1.0000     0.00000000     0.00000000    -2.00000000
    2 H                    1.0000     0.00000000     0.00000000     2.00000000

      Atomic Mass 
      ----------- 

      H                  1.007825


 Effective nuclear repulsion energy (a.u.)       0.1322943122

            Nuclear Dipole moment (a.u.) 
            ----------------------------
        X                 Y               Z
 ---------------- ---------------- ----------------
     0.0000000000     0.0000000000     0.0000000000

      Symmetry information
      --------------------

 Group name             D4h       
 Group number             28
 Group order              16
 No. of unique centers     1

      Symmetry unique atoms

     1


            XYZ format geometry
            -------------------
     2
 geometry
 H                     0.00000000     0.00000000    -2.00000000
 H                     0.00000000     0.00000000     2.00000000

          ****************************************************
          *                                                  *
          *               NWPW PSPW Calculation              *
          *                                                  *
          * [ (Grassmann/Stiefel manifold implementation)  ] *
          *                                                  *
          *      [ NorthWest Chemistry implementation ]      *
          *                                                  *
          *            version #5.10   06/12/02              *
          *                                                  *
          *    This code was developed by Eric J. Bylaska,   *
          *    and was based upon algorithms and code        *
          *    developed by the group of Prof. John H. Weare *
          *                                                  *
          ****************************************************
     >>>  JOB STARTED       AT Thu May  1 22:21:34 2025  <<<
          ================ input data ========================

 input psi filename:./pspw_hf_H2.movecs

 number of processors used:         1
 processor grid           :   1 x   1
 parallel mapping         :2d-hilbert
 parallel mapping         :  balanced
 number of threads        :         1
 parallel io              :       off

 options:
      boundary conditions  = aperiodic   (version4)
      electron spin        = restricted
      exchange-correlation = Hartree-Fock
      - HFX relaxed
      - HFX restricted orbitals :    1
      - HFX free-space coulomb solver


 elements involved in the cluster:
      1: H   valence charge:  1.0000  lmax=  1
             comment    : Parameterized (Chem.Phys.Lett., vol 322, page 447) Hamman psp
             pseudpotential type            :   0
             highest angular component      :   1
             local potential used           :   1
             number of non-local projections:   1
             aperiodic cutoff radius        :  1.000
             cutoff =   0.800   0.800


 total charge:   0.000

 atomic composition:
     H   :    2

 number of electrons: spin up=     1 (   1 per task)  down=     1 (   1 per task) (Fourier space)
 number of orbitals : spin up=     1 (   1 per task)  down=     1 (   1 per task) (Fourier space)

 supercell:
      cell_name:  cell_default                                      
      lattice:    a1=<  20.000   0.000   0.000 >
                  a2=<   0.000  20.000   0.000 >
                  a3=<   0.000   0.000  20.000 >
      reciprocal: b1=<   0.314   0.000   0.000 >
                  b2=<   0.000   0.314   0.000 >
                  b3=<   0.000   0.000   0.314 >
      lattice:    a=      20.000 b=     20.000 c=      20.000
                  alpha=  90.000 beta=  90.000 gamma=  90.000
                  omega=      8000.0

      density cutoff=100.000  fft= 96x 96x 96(   191162 waves   191162 per task)
      wavefnc cutoff= 50.000  fft= 96x 96x 96(    67522 waves    67522 per task)

 technical parameters:
      time step=      5.80     fictitious mass=  400000.0
      tolerance=0.100E-08 (energy)   0.100E-08 (density)
      maximum iterations =      1000 (   10 inner    100 outer )





== Energy Calculation ==


          ============ Grassmann lmbfgs iteration ============
     >>>  ITERATION STARTED AT Thu May  1 22:21:42 2025  <<<
    iter.           Energy         DeltaE       DeltaRho 
    ------------------------------------------------------
      10   -0.7871011082E+00   -0.15095E-02    0.71311E-02
     -  10 steepest descent iterations performed
      20   -0.7918816757E+00   -0.12327E-03    0.65021E-04
      30   -0.7921170435E+00   -0.60813E-05    0.54299E-05
      40   -0.7921369801E+00   -0.34181E-06    0.96252E-07
      50   -0.7921381600E+00   -0.20727E-07    0.45803E-08
      60   -0.7921382250E+00   -0.14791E-08    0.21748E-09
      70   -0.7921382280E+00   -0.68973E-09    0.54804E-11
  *** tolerance ok. iteration terminated
     >>>  ITERATION ENDED   AT Thu May  1 22:23:35 2025  <<<


==  Summary Of Results  ==

 number of electrons: spin up=    1.00000  down=    1.00000 (real space)

 total     energy    :  -0.7921382280E+00 (   -0.39607E+00/ion)
 total orbital energy:  -0.6061926652E+00 (   -0.60619E+00/electron)
 hartree   energy    :   0.6364797501E+00 (    0.63648E+00/electron)
 exc-corr  energy    :   0.0000000000E+00 (    0.00000E+00/electron)
 HF exchange energy  :  -0.3182398751E+00 (   -0.31824E+00/electron)
 ion-ion   energy    :   0.1322943122E+00 (    0.66147E-01/ion)

 kinetic (planewave) :   0.6453433926E+00 (    0.64534E+00/electron)
 V_local (planewave) :  -0.1737547507E+01 (   -0.17375E+01/electron)
 V_nl    (planewave) :  -0.1504683005E+00 (   -0.15047E+00/electron)
 V_Coul  (planewave) :   0.1272959500E+01 (    0.12730E+01/electron)
 V_xc.   (planewave) :   0.0000000000E+00 (    0.00000E+00/electron)
 K.S. HFX energy     :  -0.6364797501E+00 (   -0.63648E+00/electron)
 Virial Coefficient  :  -0.9530682652E+00

 orbital energies:
    -0.3030963E+00 (  -8.248eV)


== Virtual Orbital Calculation ==


 input epsi filename:./pspw_hf_H2.emovecs
     orbital   1 current e=-0.159E+00 (error=0.822E-09) iterations  62(  43 preconditioned, Ep,Sp= 20.0  200.0)
     orbital   2 current e= 0.674E-02 (error=0.900E-09) iterations  78(  46 preconditioned, Ep,Sp= 20.0  200.0)
     orbital   3 current e= 0.475E-01 (error=0.965E-09) iterations  50(  14 preconditioned, Ep,Sp= 20.0  200.0)
     orbital   4 current e= 0.475E-01 (error=0.965E-09) iterations  50(  14 preconditioned, Ep,Sp= 20.0  200.0)
     orbital   5 current e= 0.475E-01 (error=0.998E-09) iterations 103(  35 preconditioned, Ep,Sp= 20.0  200.0)
     orbital   6 current e= 0.497E-01 (error=0.910E-09) iterations  19(   1 preconditioned, Ep,Sp= 20.0  200.0)
     orbital   7 current e= 0.568E-01 (error=0.862E-09) iterations  84(  41 preconditioned, Ep,Sp= 20.0  200.0)
     orbital   8 current e= 0.695E-01 (error=0.892E-09) iterations 106(  49 preconditioned, Ep,Sp= 20.0  200.0)
     orbital   9 current e= 0.942E-01 (error=0.913E-09) iterations 102(  60 preconditioned, Ep,Sp= 20.0  200.0)
     orbital  10 current e= 0.958E-01 (error=0.970E-09) iterations  65(  20 preconditioned, Ep,Sp= 20.0  200.0)
     orbital  11 current e= 0.958E-01 (error=0.970E-09) iterations  65(  20 preconditioned, Ep,Sp= 20.0  200.0)
     orbital  12 current e= 0.963E-01 (error=0.847E-09) iterations  62(  17 preconditioned, Ep,Sp= 20.0  200.0)
     orbital  13 current e= 0.963E-01 (error=0.847E-09) iterations  62(  17 preconditioned, Ep,Sp= 20.0  200.0)
     orbital  14 current e= 0.987E-01 (error=0.997E-09) iterations  63(  15 preconditioned, Ep,Sp= 20.0  200.0)
     orbital  15 current e= 0.987E-01 (error=0.997E-09) iterations  63(  15 preconditioned, Ep,Sp= 20.0  200.0)
     orbital  16 current e= 0.988E-01 (error=0.999E-09) iterations  37(   1 preconditioned, Ep,Sp= 20.0  200.0)
     orbital  17 current e= 0.989E-01 (error=0.782E-09) iterations  23(   1 preconditioned, Ep,Sp= 20.0  200.0)
     orbital  18 current e= 0.993E-01 (error=0.843E-09) iterations  24(   1 preconditioned, Ep,Sp= 20.0  200.0)

 virtual orbital energies:
     0.9925208E-01 (   2.701eV)
     0.9887233E-01 (   2.690eV)
     0.9876186E-01 (   2.687eV)
     0.9868035E-01 (   2.685eV)
     0.9868035E-01 (   2.685eV)
     0.9627928E-01 (   2.620eV)
     0.9627928E-01 (   2.620eV)
     0.9582498E-01 (   2.608eV)
     0.9582498E-01 (   2.608eV)
     0.9423443E-01 (   2.564eV)
     0.6952458E-01 (   1.892eV)
     0.5677338E-01 (   1.545eV)
     0.4966452E-01 (   1.351eV)
     0.4753960E-01 (   1.294eV)
     0.4748958E-01 (   1.292eV)
     0.4748958E-01 (   1.292eV)
     0.6740587E-02 (   0.183eV)
    -0.1585960E+00 (  -4.316eV)


 == Generating One-Electron and Two-Electron Integrals ==

 begin_one_electron_integrals
    1    1        -0.6213362077
    2    1         0.0000038750
    3    1        -0.0203468789
    4    1         0.0000060583
    5    1        -0.0000000000
    6    1         0.0032572012
    7    1         0.0000000000
    8    1        -0.0000005368
    9    1         0.0252254102
   10    1        -0.0016481244
   11    1        -0.0000004349
   12    1        -0.0000000000
   13    1         0.0000000000
   14    1         0.0000000006
   15    1         0.0000002135
   16    1         0.0000000000
   17    1        -0.0000000002
   18    1        -0.0000000523
   19    1         0.0000000422
    2    2        -0.6133259058
    3    2        -0.0000337275
    4    2         0.0000000969
    5    2        -0.0000000000
    6    2         0.0000587641
    7    2         0.0000000002
    8    2         0.0243935342
    9    2         0.0000350201
   10    2        -0.0000528486
   11    2         0.0000000084
   12    2        -0.0000000000
   13    2        -0.0000000000
   14    2        -0.0000001627
   15    2        -0.0000000011
   16    2         0.0000000000
   17    2         0.0000000000
   18    2        -0.0000000839
   19    2        -0.0000001808
    3    3        -0.1905471087
    4    3        -0.0000055066
    5    3         0.0000000000
    6    3        -0.0031678679
    7    3        -0.0000000000
    8    3         0.0000014196
    9    3         0.0413456302
   10    3        -0.0011941532
   11    3         0.0000001005
   12    3        -0.0000000000
   13    3         0.0000000000
   14    3         0.0000000011
   15    3        -0.0000000681
   16    3        -0.0000000000
   17    3        -0.0000000001
   18    3        -0.0000000460
   19    3         0.0000000368
    4    4        -0.1834412040
    5    4        -0.0000000000
    6    4         0.0000154315
    7    4        -0.0000000000
    8    4        -0.0000000170
    9    4        -0.0000003261
   10    4         0.0000958932
   11    4         0.0513462834
   12    4         0.0000001518
   13    4         0.0000000044
   14    4         0.0000175733
   15    4        -0.0183288198
   16    4        -0.0000009638
   17    4         0.0000064327
   18    4        -0.0000000138
   19    4        -0.0000000022
    5    5        -0.1834412259
    6    5        -0.0000000000
    7    5        -0.0000107307
    8    5         0.0000000000
    9    5         0.0000000000
   10    5        -0.0000000002
   11    5        -0.0000001518
   12    5         0.0513463720
   13    5        -0.0000175734
   14    5         0.0000000044
   15    5         0.0000009638
   16    5        -0.0183288465
   17    5        -0.0000000000
   18    5         0.0000000581
   19    5         0.0000035602
    6    6        -0.1742184359
    7    6         0.0000000000
    8    6        -0.0000073647
    9    6         0.0001035936
   10    6         0.0518712764
   11    6        -0.0000955423
   12    6        -0.0000000001
   13    6        -0.0000000000
   14    6        -0.0000000699
   15    6         0.0000315329
   16    6         0.0000000016
   17    6        -0.0000000139
   18    6         0.0000000413
   19    6        -0.0000000298
    7    7        -0.1517619832
    8    7         0.0000000010
    9    7         0.0000000001
   10    7         0.0000000146
   11    7         0.0000000001
   12    7         0.0000169133
   13    7        -0.0000000188
   14    7         0.0000000006
   15    7        -0.0000000008
   16    7        -0.0000017109
   17    7        -0.0000000008
   18    7        -0.0000514784
   19    7         0.0207702459
    8    8        -0.1444241696
    9    8        -0.0000033449
   10    8         0.0000112536
   11    8         0.0000000042
   12    8         0.0000000000
   13    8        -0.0000000000
   14    8        -0.0000001088
   15    8        -0.0000000014
   16    8        -0.0000000000
   17    8        -0.0000000000
   18    8         0.0000001047
   19    8         0.0000002263
    9    9        -0.1301453398
   10    9        -0.0022481763
   11    9         0.0000009720
   12    9         0.0000000000
   13    9         0.0000000000
   14    9         0.0000000041
   15    9        -0.0000001843
   16    9        -0.0000000000
   17    9         0.0000000001
   18    9         0.0000000933
   19    9        -0.0000000748
   10   10        -0.1347563045
   11   10         0.0000006598
   12   10        -0.0000000000
   13   10         0.0000000000
   14   10        -0.0000000081
   15   10         0.0000012890
   16   10         0.0000000001
   17   10         0.0000000000
   18   10        -0.0000000398
   19   10         0.0000000335
   11   11        -0.1347782228
   12   11        -0.0000000000
   13   11         0.0000000002
   14   11         0.0000008108
   15   11         0.0102291626
   16   11         0.0000005077
   17   11        -0.0000039749
   18   11         0.0000000141
   19   11         0.0000000030
   12   12        -0.1347782246
   13   12        -0.0000008108
   14   12         0.0000000002
   15   12        -0.0000005077
   16   12         0.0102291620
   17   12        -0.0000000000
   18   12        -0.0000000201
   19   12        -0.0000073958
   13   13        -0.1426218999
   14   13        -0.0000000000
   15   13        -0.0000000001
   16   13         0.0000004377
   17   13         0.0000000000
   18   13        -0.0000029718
   19   13        -0.0000000289
   14   14        -0.1426219000
   15   14        -0.0000004377
   16   14        -0.0000000001
   17   14         0.0000000002
   18   14        -0.0000000038
   19   14        -0.0000000071
   15   15        -0.1173789139
   16   15        -0.0000000000
   17   15        -0.0000030194
   18   15        -0.0000000127
   19   15        -0.0000000031
   16   16        -0.1173789104
   17   16        -0.0000000002
   18   16         0.0000000295
   19   16         0.0000057004
   17   17        -0.1243206908
   18   17        -0.0000000005
   19   17         0.0000000010
   18   18        -0.1064194232
   19   18        -0.0000142634
   19   19        -0.0999622444
 end_one_electron_integrals

 begin_two_electron_integrals
    1    1    1    1        0.3182398751
    1    1    2    1       -0.0000038558
    1    1    3    1        0.0203512328
    1    1    4    1       -0.0000060625
    1    1    5    1        0.0000000000
    1    1    6    1       -0.0032597750
    1    1    7    1       -0.0000000000
    1    1    8    1        0.0000005568
    1    1    9    1       -0.0252244778
    1    1   10    1        0.0016411769
    1    1   11    1        0.0000004359
    1    1   12    1        0.0000000000
    1    1   13    1       -0.0000000000
    1    1   14    1       -0.0000000006
    1    1   15    1       -0.0000002135
    1    1   16    1       -0.0000000000
    1    1   17    1        0.0000000002
    1    1   18    1        0.0000000523
    1    1   19    1       -0.0000000422
    1    1    2    2        0.3215150732
    1    1    3    2        0.0000170104
    1    1    4    2       -0.0000000421
    1    1    5    2        0.0000000000
    1    1    6    2       -0.0000261539
    1    1    7    2       -0.0000000001
    1    1    8    2       -0.0210545979
    1    1    9    2       -0.0000154935
    1    1   10    2        0.0000221769
    1    1   11    2       -0.0000000034
    1    1   12    2        0.0000000000
    1    1   13    2        0.0000000000
    1    1   14    2        0.0000001378
    1    1   15    2        0.0000000007
    1    1   16    2       -0.0000000000
    1    1   17    2       -0.0000000000
    1    1   18    2        0.0000000726
    1    1   19    2        0.0000001565
    1    1    3    3        0.0997787753
    1    1    4    3        0.0000028096
    1    1    5    3       -0.0000000000
    1    1    6    3        0.0014324206
    1    1    7    3        0.0000000000
    1    1    8    3       -0.0000014282
    1    1    9    3       -0.0221530248
    1    1   10    3        0.0006332082
    1    1   11    3       -0.0000003668
    1    1   12    3       -0.0000000000
    1    1   13    3       -0.0000000000
    1    1   14    3       -0.0000000012
    1    1   15    3        0.0000001166
    1    1   16    3        0.0000000000
    1    1   17    3        0.0000000001
    1    1   18    3        0.0000000262
    1    1   19    3       -0.0000000210
    1    1    4    4        0.1165114161
    1    1    5    4        0.0000000000
    1    1    6    4       -0.0000078910
    1    1    7    4        0.0000000000
    1    1    8    4        0.0000000098
    1    1    9    4        0.0000004538
    1    1   10    4       -0.0000502409
    1    1   11    4       -0.0268870982
    1    1   12    4       -0.0000000795
    1    1   13    4       -0.0000000024
    1    1   14    4       -0.0000095252
    1    1   15    4        0.0094717706
    1    1   16    4        0.0000004981
    1    1   17    4       -0.0000032810
    1    1   18    4        0.0000000072
    1    1   19    4        0.0000000012
    1    1    5    5        0.1165114274
    1    1    6    5        0.0000000000
    1    1    7    5        0.0000052557
    1    1    8    5       -0.0000000000
    1    1    9    5       -0.0000000000
    1    1   10    5        0.0000000001
    1    1   11    5        0.0000000795
    1    1   12    5       -0.0268871442
    1    1   13    5        0.0000095252
    1    1   14    5       -0.0000000024
    1    1   15    5       -0.0000004981
    1    1   16    5        0.0094717842
    1    1   17    5        0.0000000000
    1    1   18    5       -0.0000000304
    1    1   19    5       -0.0000017742
    1    1    6    6        0.1117835563
    1    1    7    6       -0.0000000000
    1    1    8    6        0.0000047923
    1    1    9    6        0.0001088724
    1    1   10    6       -0.0271978063
    1    1   11    6        0.0000498622
    1    1   12    6        0.0000000000
    1    1   13    6        0.0000000000
    1    1   14    6        0.0000000376
    1    1   15    6       -0.0000162362
    1    1   16    6       -0.0000000008
    1    1   17    6        0.0000000072
    1    1   18    6       -0.0000000222
    1    1   19    6        0.0000000160
    1    1    7    7        0.1007820867
    1    1    8    7       -0.0000000005
    1    1    9    7       -0.0000000001
    1    1   10    7       -0.0000000073
    1    1   11    7       -0.0000000001
    1    1   12    7       -0.0000084169
    1    1   13    7        0.0000000088
    1    1   14    7       -0.0000000003
    1    1   15    7        0.0000000004
    1    1   16    7        0.0000008270
    1    1   17    7        0.0000000004
    1    1   18    7        0.0000258732
    1    1   19    7       -0.0104256556
    1    1    8    8        0.1016991978
    1    1    9    8        0.0000021822
    1    1   10    8       -0.0000067816
    1    1   11    8       -0.0000000020
    1    1   12    8       -0.0000000000
    1    1   13    8        0.0000000000
    1    1   14    8        0.0000001582
    1    1   15    8        0.0000000011
    1    1   16    8        0.0000000000
    1    1   17    8        0.0000000000
    1    1   18    8       -0.0000000557
    1    1   19    8       -0.0000001204
    1    1    9    9        0.1017891214
    1    1   10    9        0.0011127186
    1    1   11    9       -0.0000004078
    1    1   12    9       -0.0000000000
    1    1   13    9       -0.0000000000
    1    1   14    9       -0.0000000023
    1    1   15    9        0.0000000677
    1    1   16    9        0.0000000000
    1    1   17    9        0.0000000001
    1    1   18    9       -0.0000000510
    1    1   19    9        0.0000000409
    1    1   10   10        0.1162864731
    1    1   11   10       -0.0000002587
    1    1   12   10        0.0000000000
    1    1   13   10        0.0000000000
    1    1   14   10        0.0000000043
    1    1   15   10       -0.0000006995
    1    1   16   10       -0.0000000000
    1    1   17   10        0.0000000001
    1    1   18   10        0.0000000194
    1    1   19   10       -0.0000000162
    1    1   11   11        0.1167610168
    1    1   12   11        0.0000000000
    1    1   13   11       -0.0000000000
    1    1   14   11       -0.0000000360
    1    1   15   11       -0.0054928362
    1    1   16   11       -0.0000002726
    1    1   17   11        0.0000021638
    1    1   18   11       -0.0000000074
    1    1   19   11       -0.0000000016
    1    1   12   12        0.1167610178
    1    1   13   12        0.0000000360
    1    1   14   12       -0.0000000000
    1    1   15   12        0.0000002726
    1    1   16   12       -0.0054928360
    1    1   17   12        0.0000000000
    1    1   18   12        0.0000000114
    1    1   19   12        0.0000037347
    1    1   13   13        0.1204128446
    1    1   14   13        0.0000000000
    1    1   15   13        0.0000000003
    1    1   16   13       -0.0000008531
    1    1   17   13       -0.0000000000
    1    1   18   13        0.0000014128
    1    1   19   13        0.0000000139
    1    1   14   14        0.1204128447
    1    1   15   14        0.0000008531
    1    1   16   14        0.0000000003
    1    1   17   14       -0.0000000004
    1    1   18   14        0.0000000021
    1    1   19   14        0.0000000037
    1    1   15   15        0.1082625216
    1    1   16   15        0.0000000000
    1    1   17   15        0.0000015246
    1    1   18   15        0.0000000065
    1    1   19   15        0.0000000016
    1    1   16   16        0.1082625198
    1    1   17   16        0.0000000001
    1    1   18   16       -0.0000000149
    1    1   19   16       -0.0000028495
    1    1   17   17        0.1117119859
    1    1   18   17        0.0000000002
    1    1   19   17       -0.0000000005
    1    1   18   18        0.1027086745
    1    1   19   18        0.0000072330
    1    1   19   19        0.0996499815
    2    1    2    1        0.1883002679
    2    1    3    1        0.0000003943
    2    1    4    1        0.0000000127
    2    1    5    1       -0.0000000000
    2    1    6    1        0.0000064398
    2    1    7    1       -0.0000000001
    2    1    8    1       -0.0177181493
    2    1    9    1        0.0000040386
    2    1   10    1       -0.0000085150
    2    1   11    1        0.0000000015
    2    1   12    1        0.0000000000
    2    1   13    1        0.0000000000
    2    1   14    1        0.0000001127
    2    1   15    1        0.0000000004
    2    1   16    1       -0.0000000000
    2    1   17    1       -0.0000000000
    2    1   18    1        0.0000000611
    2    1   19    1        0.0000001318
    2    1    2    2       -0.0000068113
    2    1    3    2        0.0176355419
    2    1    4    2        0.0000107597
    2    1    5    2       -0.0000000000
    2    1    6    2        0.0067607601
    2    1    7    2       -0.0000000000
    2    1    8    2        0.0000038148
    2    1    9    2       -0.0230764092
    2    1   10    2       -0.0118310488
    2    1   11    2        0.0000028441
    2    1   12    2        0.0000000000
    2    1   13    2        0.0000000000
    2    1   14    2        0.0000000097
    2    1   15    2       -0.0000004222
    2    1   16    2       -0.0000000000
    2    1   17    2        0.0000000010
    2    1   18    2        0.0000000377
    2    1   19    2       -0.0000000316
    2    1    3    3        0.0002360288
    2    1    4    3       -0.0000005237
    2    1    5    3        0.0000000000
    2    1    6    3       -0.0003116056
    2    1    7    3        0.0000000000
    2    1    8    3       -0.0181015291
    2    1    9    3       -0.0000251803
    2    1   10    3        0.0000461601
    2    1   11    3       -0.0000000078
    2    1   12    3        0.0000000000
    2    1   13    3       -0.0000000001
    2    1   14    3       -0.0000004370
    2    1   15    3       -0.0000000027
    2    1   16    3       -0.0000000000
    2    1   17    3       -0.0000000000
    2    1   18    3        0.0000000324
    2    1   19    3        0.0000000697
    2    1    4    4        0.0002121063
    2    1    5    4       -0.0000000000
    2    1    6    4        0.0000004730
    2    1    7    4       -0.0000000000
    2    1    8    4        0.0000069367
    2    1    9    4        0.0000002876
    2    1   10    4       -0.0000004137
    2    1   11    4        0.0000246333
    2    1   12    4        0.0000000001
    2    1   13    4       -0.0000064314
    2    1   14    4       -0.0258299247
    2    1   15    4       -0.0003128037
    2    1   16    4       -0.0000000164
    2    1   17    4        0.0000001282
    2    1   18    4       -0.0000000011
    2    1   19    4       -0.0000000016
    2    1    5    5        0.0002121055
    2    1    6    5       -0.0000000000
    2    1    7    5        0.0000000127
    2    1    8    5       -0.0000000000
    2    1    9    5       -0.0000000000
    2    1   10    5        0.0000000000
    2    1   11    5       -0.0000000001
    2    1   12    5        0.0000246333
    2    1   13    5        0.0258299597
    2    1   14    5       -0.0000064314
    2    1   15    5        0.0000000165
    2    1   16    5       -0.0003128041
    2    1   17    5        0.0000000000
    2    1   18    5       -0.0000039196
    2    1   19    5       -0.0000000127
    2    1    6    6        0.0004914194
    2    1    7    6        0.0000000000
    2    1    8    6        0.0040013065
    2    1    9    6        0.0001704116
    2    1   10    6       -0.0002374669
    2    1   11    6       -0.0000000032
    2    1   12    6       -0.0000000000
    2    1   13    6        0.0000000109
    2    1   14    6        0.0000433395
    2    1   15    6        0.0000005258
    2    1   16    6        0.0000000000
    2    1   17    6       -0.0000000002
    2    1   18    6       -0.0000000264
    2    1   19    6       -0.0000000559
    2    1    7    7        0.0001874721
    2    1    8    7        0.0000000005
    2    1    9    7       -0.0000000001
    2    1   10    7       -0.0000000149
    2    1   11    7        0.0000000006
    2    1   12    7       -0.0000000224
    2    1   13    7        0.0000080082
    2    1   14    7       -0.0000000017
    2    1   15    7       -0.0000000080
    2    1   16    7        0.0000000086
    2    1   17    7       -0.0000000014
    2    1   18    7        0.0163015462
    2    1   19    7        0.0002996025
    2    1    8    8        0.0000014527
    2    1    9    8        0.0092996876
    2    1   10    8        0.0006606459
    2    1   11    8       -0.0000002883
    2    1   12    8       -0.0000000000
    2    1   13    8       -0.0000000000
    2    1   14    8       -0.0000000037
    2    1   15    8        0.0000001183
    2    1   16    8        0.0000000000
    2    1   17    8       -0.0000000002
    2    1   18    8       -0.0000000125
    2    1   19    8        0.0000000103
    2    1    9    9        0.0002870183
    2    1   10    9       -0.0002923515
    2    1   11    9        0.0000000475
    2    1   12    9       -0.0000000000
    2    1   13    9        0.0000000000
    2    1   14    9        0.0000000694
    2    1   15    9       -0.0000000043
    2    1   16    9        0.0000000000
    2    1   17    9        0.0000000000
    2    1   18    9       -0.0000000556
    2    1   19    9       -0.0000001190
    2    1   10   10        0.0004406087
    2    1   11   10       -0.0000000334
    2    1   12   10        0.0000000000
    2    1   13   10        0.0000000006
    2    1   14   10        0.0000022488
    2    1   15   10        0.0000000048
    2    1   16   10       -0.0000000000
    2    1   17   10       -0.0000000000
    2    1   18   10        0.0000000128
    2    1   19   10        0.0000000201
    2    1   11   11        0.0001681671
    2    1   12   11       -0.0000000000
    2    1   13   11        0.0000033570
    2    1   14   11        0.0133241473
    2    1   15   11        0.0000123152
    2    1   16   11        0.0000000006
    2    1   17   11       -0.0000000044
    2    1   18   11        0.0000000024
    2    1   19   11        0.0000000038
    2    1   12   12        0.0001681671
    2    1   13   12       -0.0133241475
    2    1   14   12        0.0000033570
    2    1   15   12       -0.0000000006
    2    1   16   12        0.0000123152
    2    1   17   12        0.0000000000
    2    1   18   12       -0.0000016282
    2    1   19   12       -0.0000000404
    2    1   13   13        0.0000072670
    2    1   14   13        0.0000000000
    2    1   15   13        0.0000012481
    2    1   16   13       -0.0041386493
    2    1   17   13       -0.0000000005
    2    1   18   13        0.0000000204
    2    1   19   13       -0.0000009537
    2    1   14   14        0.0000072670
    2    1   15   14        0.0041386481
    2    1   16   14        0.0000012481
    2    1   17   14       -0.0000019820
    2    1   18   14        0.0000000013
    2    1   19   14        0.0000000003
    2    1   15   15        0.0004528145
    2    1   16   15       -0.0000000000
    2    1   17   15       -0.0000000950
    2    1   18   15        0.0000000005
    2    1   19   15       -0.0000000004
    2    1   16   16        0.0004528145
    2    1   17   16       -0.0000000000
    2    1   18   16        0.0000002556
    2    1   19   16       -0.0000000102
    2    1   17   17        0.0002222032
    2    1   18   17       -0.0000000010
    2    1   19   17       -0.0000000019
    2    1   18   18       -0.0000087596
    2    1   19   18        0.0021000737
    2    1   19   19        0.0003685826
    3    1    3    1        0.0022698554
    3    1    4    1        0.0000001436
    3    1    5    1       -0.0000000000
    3    1    6    1       -0.0002839013
    3    1    7    1       -0.0000000000
    3    1    8    1       -0.0000014750
    3    1    9    1       -0.0029573410
    3    1   10    1        0.0000797476
    3    1   11    1       -0.0000006351
    3    1   12    1       -0.0000000000
    3    1   13    1       -0.0000000000
    3    1   14    1       -0.0000000014
    3    1   15    1        0.0000001657
    3    1   16    1        0.0000000000
    3    1   17    1        0.0000000001
    3    1   18    1        0.0000000063
    3    1   19    1       -0.0000000050
    3    1    2    2        0.0208198020
    3    1    3    2        0.0000034062
    3    1    4    2       -0.0000000068
    3    1    5    2        0.0000000000
    3    1    6    2       -0.0000049176
    3    1    7    2       -0.0000000000
    3    1    8    2       -0.0023687614
    3    1    9    2       -0.0000039734
    3    1   10    2        0.0000049249
    3    1   11    2       -0.0000000016
    3    1   12    2        0.0000000000
    3    1   13    2       -0.0000000002
    3    1   14    2       -0.0000006886
    3    1   15    2       -0.0000000006
    3    1   16    2       -0.0000000000
    3    1   17    2       -0.0000000000
    3    1   18    2        0.0000000086
    3    1   19    2        0.0000000185
    3    1    3    3        0.0005401281
    3    1    4    3       -0.0000034851
    3    1    5    3        0.0000000000
    3    1    6    3        0.0000628126
    3    1    7    3       -0.0000000000
    3    1    8    3        0.0000082737
    3    1    9    3       -0.0007162214
    3    1   10    3       -0.0000268553
    3    1   11    3        0.0000001554
    3    1   12    3        0.0000000000
    3    1   13    3        0.0000000000
    3    1   14    3        0.0000000074
    3    1   15    3       -0.0000002854
    3    1   16    3       -0.0000000000
    3    1   17    3       -0.0000000022
    3    1   18    3        0.0000000014
    3    1   19    3       -0.0000000012
    3    1    4    4        0.0009169869
    3    1    5    4        0.0000000000
    3    1    6    4       -0.0000009704
    3    1    7    4        0.0000000000
    3    1    8    4        0.0000000019
    3    1    9    4        0.0000006707
    3    1   10    4       -0.0000015352
    3    1   11    4       -0.0009807218
    3    1   12    4       -0.0000000029
    3    1   13    4        0.0000000023
    3    1   14    4        0.0000093933
    3    1   15    4        0.0004028199
    3    1   16    4        0.0000000212
    3    1   17    4       -0.0000038098
    3    1   18    4        0.0000000003
    3    1   19    4        0.0000000001
    3    1    5    5        0.0009169924
    3    1    6    5        0.0000000000
    3    1    7    5        0.0000019052
    3    1    8    5       -0.0000000000
    3    1    9    5       -0.0000000000
    3    1   10    5        0.0000000000
    3    1   11    5        0.0000000029
    3    1   12    5       -0.0009807209
    3    1   13    5       -0.0000093933
    3    1   14    5        0.0000000023
    3    1   15    5       -0.0000000212
    3    1   16    5        0.0004028290
    3    1   17    5        0.0000000000
    3    1   18    5        0.0000000056
    3    1   19    5       -0.0000004986
    3    1    6    6        0.0007794230
    3    1    7    6       -0.0000000000
    3    1    8    6       -0.0000030379
    3    1    9    6       -0.0000545402
    3    1   10    6       -0.0009449079
    3    1   11    6        0.0000019899
    3    1   12    6        0.0000000000
    3    1   13    6       -0.0000000000
    3    1   14    6       -0.0000000162
    3    1   15    6       -0.0000041281
    3    1   16    6       -0.0000000002
    3    1   17    6        0.0000000071
    3    1   18    6       -0.0000000008
    3    1   19    6        0.0000000006
    3    1    7    7        0.0002601455
    3    1    8    7       -0.0000000000
    3    1    9    7       -0.0000000000
    3    1   10    7       -0.0000000002
    3    1   11    7        0.0000000000
    3    1   12    7       -0.0000029379
    3    1   13    7        0.0000000014
    3    1   14    7       -0.0000000000
    3    1   15    7        0.0000000000
    3    1   16    7       -0.0000002316
    3    1   17    7        0.0000000000
    3    1   18    7       -0.0000082006
    3    1   19    7       -0.0002316756
    3    1    8    8        0.0005904186
    3    1    9    8       -0.0000004771
    3    1   10    8       -0.0000007079
    3    1   11    8        0.0000000014
    3    1   12    8        0.0000000000
    3    1   13    8       -0.0000000009
    3    1   14    8       -0.0000037198
    3    1   15    8       -0.0000000041
    3    1   16    8       -0.0000000000
    3    1   17    8        0.0000000000
    3    1   18    8       -0.0000000020
    3    1   19    8       -0.0000000043
    3    1    9    9        0.0009869212
    3    1   10    9        0.0001053968
    3    1   11    9       -0.0000026650
    3    1   12    9       -0.0000000000
    3    1   13    9       -0.0000000000
    3    1   14    9       -0.0000000013
    3    1   15    9        0.0000007178
    3    1   16    9        0.0000000000
    3    1   17    9       -0.0000000008
    3    1   18    9       -0.0000000020
    3    1   19    9        0.0000000017
    3    1   10   10        0.0013596784
    3    1   11   10       -0.0000010417
    3    1   12   10       -0.0000000000
    3    1   13   10       -0.0000000000
    3    1   14   10       -0.0000000014
    3    1   15   10       -0.0000007590
    3    1   16   10       -0.0000000000
    3    1   17   10       -0.0000000004
    3    1   18   10        0.0000000008
    3    1   19   10       -0.0000000005
    3    1   11   11        0.0012537259
    3    1   12   11        0.0000000000
    3    1   13   11       -0.0000000002
    3    1   14   11       -0.0000008412
    3    1   15   11       -0.0003890222
    3    1   16   11       -0.0000000193
    3    1   17   11       -0.0000013189
    3    1   18   11       -0.0000000004
    3    1   19   11       -0.0000000001
    3    1   12   12        0.0012537267
    3    1   13   12        0.0000008412
    3    1   14   12       -0.0000000002
    3    1   15   12        0.0000000193
    3    1   16   12       -0.0003890215
    3    1   17   12       -0.0000000000
    3    1   18   12       -0.0000000047
    3    1   19   12        0.0000010585
    3    1   13   13        0.0010476870
    3    1   14   13       -0.0000000000
    3    1   15   13       -0.0000000014
    3    1   16   13        0.0000047426
    3    1   17   13        0.0000000000
    3    1   18   13        0.0000018183
    3    1   19   13        0.0000000052
    3    1   14   14        0.0010476833
    3    1   15   14       -0.0000047426
    3    1   16   14       -0.0000000014
    3    1   17   14        0.0000000088
    3    1   18   14       -0.0000000004
    3    1   19   14        0.0000000001
    3    1   15   15        0.0005177225
    3    1   16   15       -0.0000000000
    3    1   17   15       -0.0000009196
    3    1   18   15        0.0000000002
    3    1   19   15        0.0000000001
    3    1   16   16        0.0005177266
    3    1   17   16       -0.0000000000
    3    1   18   16       -0.0000000007
    3    1   19   16       -0.0000015466
    3    1   17   17        0.0005275745
    3    1   18   17        0.0000000000
    3    1   19   17       -0.0000000000
    3    1   18   18        0.0002722718
    3    1   19   18       -0.0000034446
    3    1   19   19        0.0002652817
    4    1    4    1        0.0020920475
    4    1    5    1       -0.0000000000
    4    1    6    1       -0.0000001272
    4    1    7    1       -0.0000000000
    4    1    8    1        0.0000000040
    4    1    9    1        0.0000003762
    4    1   10    1       -0.0000047801
    4    1   11    1       -0.0024375994
    4    1   12    1       -0.0000000072
    4    1   13    1       -0.0000000004
    4    1   14    1       -0.0000014793
    4    1   15    1        0.0006169911
    4    1   16    1        0.0000000324
    4    1   17    1       -0.0000001299
    4    1   18    1        0.0000000007
    4    1   19    1        0.0000000001
    4    1    2    2       -0.0000035013
    4    1    3    2       -0.0000000041
    4    1    4    2        0.0000009204
    4    1    5    2       -0.0000000000
    4    1    6    2        0.0000000086
    4    1    7    2        0.0000000000
    4    1    8    2       -0.0000001301
    4    1    9    2        0.0000000078
    4    1   10    2       -0.0000000148
    4    1   11    2       -0.0000000865
    4    1   12    2        0.0000000000
    4    1   13    2       -0.0000005555
    4    1   14    2       -0.0022310330
    4    1   15    2       -0.0000010985
    4    1   16    2       -0.0000000001
    4    1   17    2        0.0000000006
    4    1   18    2       -0.0000000002
    4    1   19    2       -0.0000000003
    4    1    3    3       -0.0000623506
    4    1    4    3       -0.0034924678
    4    1    5    3        0.0000000000
    4    1    6    3       -0.0000193851
    4    1    7    3        0.0000000001
    4    1    8    3        0.0000000200
    4    1    9    3       -0.0000216007
    4    1   10    3       -0.0000003480
    4    1   11    3        0.0007520275
    4    1   12    3        0.0000000022
    4    1   13    3        0.0000000008
    4    1   14    3        0.0000031044
    4    1   15    3       -0.0002930833
    4    1   16    3       -0.0000000154
    4    1   17    3       -0.0000008877
    4    1   18    3       -0.0000000001
    4    1   19    3       -0.0000000001
    4    1    4    4       -0.0000255222
    4    1    5    4        0.0000000000
    4    1    6    4       -0.0006553712
    4    1    7    4        0.0000000060
    4    1    8    4        0.0000027668
    4    1    9    4        0.0018297403
    4    1   10    4        0.0004572925
    4    1   11    4       -0.0000290311
    4    1   12    4       -0.0000000000
    4    1   13    4       -0.0000000000
    4    1   14    4       -0.0000000218
    4    1   15    4       -0.0000229831
    4    1   16    4       -0.0000000012
    4    1   17    4       -0.0040405217
    4    1   18    4       -0.0000000027
    4    1   19    4        0.0000000002
    4    1    5    5       -0.0000228557
    4    1    6    5       -0.0000000000
    4    1    7    5        0.0014699541
    4    1    8    5       -0.0000000000
    4    1    9    5       -0.0000000000
    4    1   10    5       -0.0000000003
    4    1   11    5        0.0000000001
    4    1   12    5       -0.0000279297
    4    1   13    5        0.0000000242
    4    1   14    5       -0.0000000000
    4    1   15    5        0.0000000008
    4    1   16    5       -0.0000146122
    4    1   17    5        0.0000000164
    4    1   18    5        0.0000020785
    4    1   19    5       -0.0004180359
    4    1    6    6       -0.0000436143
    4    1    7    6        0.0000000000
    4    1    8    6        0.0000000090
    4    1    9    6        0.0000041991
    4    1   10    6       -0.0000390126
    4    1   11    6        0.0004161116
    4    1   12    6        0.0000000012
    4    1   13    6       -0.0000000001
    4    1   14    6       -0.0000003742
    4    1   15    6       -0.0036977772
    4    1   16    6       -0.0000001945
    4    1   17    6        0.0000079977
    4    1   18    6       -0.0000000022
    4    1   19    6       -0.0000000003
    4    1    7    7       -0.0000858905
    4    1    8    7        0.0000000000
    4    1    9    7       -0.0000000000
    4    1   10    7       -0.0000000000
    4    1   11    7       -0.0000000029
    4    1   12    7       -0.0026635516
    4    1   13    7        0.0000017493
    4    1   14    7       -0.0000000004
    4    1   15    7        0.0000000127
    4    1   16    7       -0.0002613813
    4    1   17    7        0.0000000000
    4    1   18    7       -0.0000000836
    4    1   19    7        0.0000186061
    4    1    8    8       -0.0000673253
    4    1    9    8        0.0000000337
    4    1   10    8       -0.0000000232
    4    1   11    8        0.0000010288
    4    1   12    8        0.0000000001
    4    1   13    8       -0.0000009204
    4    1   14    8       -0.0036965474
    4    1   15    8       -0.0000026929
    4    1   16    8       -0.0000000002
    4    1   17    8        0.0000000027
    4    1   18    8       -0.0000000002
    4    1   19    8       -0.0000000002
    4    1    9    9       -0.0000712859
    4    1   10    9       -0.0000220612
    4    1   11    9       -0.0026998333
    4    1   12    9       -0.0000000080
    4    1   13    9       -0.0000000005
    4    1   14    9       -0.0000017542
    4    1   15    9        0.0006941855
    4    1   16    9        0.0000000365
    4    1   17    9       -0.0000002809
    4    1   18    9        0.0000000004
    4    1   19    9        0.0000000002
    4    1   10   10       -0.0000671279
    4    1   11   10       -0.0010928103
    4    1   12   10       -0.0000000025
    4    1   13   10       -0.0000000015
    4    1   14   10       -0.0000002001
    4    1   15   10        0.0007040608
    4    1   16   10        0.0000000362
    4    1   17   10       -0.0000003387
    4    1   18   10        0.0000000010
    4    1   19   10        0.0000000001
    4    1   11   11       -0.0000481042
    4    1   12   11        0.0000000001
    4    1   13   11        0.0000000001
    4    1   14   11        0.0000000273
    4    1   15   11       -0.0000097804
    4    1   16   11       -0.0000000005
    4    1   17   11       -0.0000053334
    4    1   18   11        0.0000000019
    4    1   19   11       -0.0000000006
    4    1   12   12       -0.0000485404
    4    1   13   12       -0.0000000247
    4    1   14   12        0.0000000000
    4    1   15   12        0.0000000004
    4    1   16   12       -0.0000093928
    4    1   17   12       -0.0000000000
    4    1   18   12       -0.0000038575
    4    1   19   12        0.0009865545
    4    1   13   13       -0.0000211776
    4    1   14   13       -0.0000000004
    4    1   15   13       -0.0000000008
    4    1   16   13       -0.0000000086
    4    1   17   13        0.0000000007
    4    1   18   13        0.0015807824
    4    1   19   13        0.0000039040
    4    1   14   14       -0.0000225964
    4    1   15   14        0.0000000152
    4    1   16   14       -0.0000000000
    4    1   17   14        0.0000032780
    4    1   18   14       -0.0000003952
    4    1   19   14        0.0000000095
    4    1   15   15       -0.0000296670
    4    1   16   15        0.0000000000
    4    1   17   15       -0.0010107613
    4    1   18   15       -0.0000000009
    4    1   19   15        0.0000000556
    4    1   16   16       -0.0000277308
    4    1   17   16       -0.0000000490
    4    1   18   16        0.0000014384
    4    1   19   16       -0.0011254608
    4    1   17   17       -0.0000010104
    4    1   18   17       -0.0000000005
    4    1   19   17       -0.0000000000
    4    1   18   18       -0.0000887354
    4    1   19   18       -0.0000000154
    4    1   19   19       -0.0000856648
    5    1    5    1        0.0020920476
    5    1    6    1        0.0000000000
    5    1    7    1       -0.0000002139
    5    1    8    1       -0.0000000000
    5    1    9    1       -0.0000000000
    5    1   10    1        0.0000000000
    5    1   11    1        0.0000000072
    5    1   12    1       -0.0024376035
    5    1   13    1        0.0000014794
    5    1   14    1       -0.0000000004
    5    1   15    1       -0.0000000324
    5    1   16    1        0.0006169918
    5    1   17    1        0.0000000000
    5    1   18    1       -0.0000000028
    5    1   19    1        0.0000000104
    5    1    2    2        0.0000000000
    5    1    3    2       -0.0000000000
    5    1    4    2       -0.0000000000
    5    1    5    2        0.0000009204
    5    1    6    2       -0.0000000000
    5    1    7    2       -0.0000000015
    5    1    8    2        0.0000000000
    5    1    9    2        0.0000000000
    5    1   10    2        0.0000000000
    5    1   11    2        0.0000000000
    5    1   12    2       -0.0000000865
    5    1   13    2        0.0022310358
    5    1   14    2       -0.0000005555
    5    1   15    2        0.0000000001
    5    1   16    2       -0.0000010985
    5    1   17    2        0.0000000000
    5    1   18    2       -0.0000007681
    5    1   19    2       -0.0000000015
    5    1    3    3        0.0000000001
    5    1    4    3        0.0000000000
    5    1    5    3       -0.0034924448
    5    1    6    3        0.0000000000
    5    1    7    3        0.0000593464
    5    1    8    3       -0.0000000000
    5    1    9    3        0.0000000000
    5    1   10    3       -0.0000000000
    5    1   11    3       -0.0000000022
    5    1   12    3        0.0007520469
    5    1   13    3       -0.0000031044
    5    1   14    3        0.0000000008
    5    1   15    3        0.0000000154
    5    1   16    3       -0.0002930778
    5    1   17    3        0.0000000000
    5    1   18    3        0.0000000740
    5    1   19    3       -0.0000094070
    5    1    4    4        0.0000000001
    5    1    5    4        0.0000189850
    5    1    6    4       -0.0000000000
    5    1    7    4        0.0014699738
    5    1    8    4       -0.0000000000
    5    1    9    4       -0.0000000000
    5    1   10    4       -0.0000000003
    5    1   11    4        0.0000000001
    5    1   12    4        0.0000311957
    5    1   13    4        0.0000000105
    5    1   14    4       -0.0000000000
    5    1   15    4       -0.0000000001
    5    1   16    4        0.0000045656
    5    1   17    4        0.0000000164
    5    1   18    4        0.0000020786
    5    1   19    4       -0.0004181106
    5    1    5    5       -0.0000000000
    5    1    6    5       -0.0006553713
    5    1    7    5       -0.0000000060
    5    1    8    5        0.0000027668
    5    1    9    5        0.0018297484
    5    1   10    5        0.0004573837
    5    1   11    5        0.0000318064
    5    1   12    5        0.0000000000
    5    1   13    5       -0.0000000000
    5    1   14    5       -0.0000000096
    5    1   15    5        0.0000127314
    5    1   16    5        0.0000000007
    5    1   17    5        0.0040405350
    5    1   18    5       -0.0000000021
    5    1   19    5        0.0000000037
    5    1    6    6        0.0000000001
    5    1    7    6        0.0000146953
    5    1    8    6       -0.0000000000
    5    1    9    6       -0.0000000000
    5    1   10    6        0.0000000000
    5    1   11    6       -0.0000000012
    5    1   12    6        0.0004160170
    5    1   13    6        0.0000003743
    5    1   14    6       -0.0000000001
    5    1   15    6        0.0000001945
    5    1   16    6       -0.0036978274
    5    1   17    6       -0.0000000000
    5    1   18    6        0.0000001302
    5    1   19    6       -0.0000482663
    5    1    7    7        0.0000000002
    5    1    8    7       -0.0000000467
    5    1    9    7       -0.0000141921
    5    1   10    7       -0.0000255138
    5    1   11    7       -0.0026635142
    5    1   12    7        0.0000000029
    5    1   13    7       -0.0000000004
    5    1   14    7       -0.0000017493
    5    1   15    7       -0.0002613716
    5    1   16    7       -0.0000000127
    5    1   17    7        0.0000014170
    5    1   18    7       -0.0000000000
    5    1   19    7        0.0000000001
    5    1    8    8        0.0000000001
    5    1    9    8        0.0000000000
    5    1   10    8        0.0000000001
    5    1   11    8        0.0000000000
    5    1   12    8        0.0000010287
    5    1   13    8        0.0036965445
    5    1   14    8       -0.0000009204
    5    1   15    8        0.0000000001
    5    1   16    8       -0.0000026931
    5    1   17    8        0.0000000000
    5    1   18    8       -0.0000632929
    5    1   19    8       -0.0000001746
    5    1    9    9        0.0000000001
    5    1   10    9        0.0000000001
    5    1   11    9        0.0000000080
    5    1   12    9       -0.0026998261
    5    1   13    9        0.0000017542
    5    1   14    9       -0.0000000004
    5    1   15    9       -0.0000000365
    5    1   16    9        0.0006941928
    5    1   17    9       -0.0000000000
    5    1   18    9       -0.0000000722
    5    1   19    9        0.0000274554
    5    1   10   10        0.0000000001
    5    1   11   10        0.0000000039
    5    1   12   10       -0.0010927978
    5    1   13   10        0.0000002002
    5    1   14   10        0.0000000014
    5    1   15   10       -0.0000000378
    5    1   16   10        0.0007040749
    5    1   17   10        0.0000000000
    5    1   18   10        0.0000000093
    5    1   19   10       -0.0000193808
    5    1   11   11        0.0000000000
    5    1   12   11        0.0000457833
    5    1   13   11        0.0000000210
    5    1   14   11       -0.0000000000
    5    1   15   11       -0.0000000006
    5    1   16   11        0.0000118250
    5    1   17   11       -0.0000000000
    5    1   18   11       -0.0000038576
    5    1   19   11        0.0009865532
    5    1   12   12        0.0000000002
    5    1   13   12       -0.0000000000
    5    1   14   12       -0.0000000201
    5    1   15   12        0.0000117494
    5    1   16   12        0.0000000006
    5    1   17   12        0.0000053323
    5    1   18   12        0.0000000020
    5    1   19   12       -0.0000000027
    5    1   13   13       -0.0000000101
    5    1   14   13       -0.0000201819
    5    1   15   13        0.0000000005
    5    1   16   13       -0.0000000000
    5    1   17   13        0.0000032781
    5    1   18   13       -0.0000004052
    5    1   19   13       -0.0000000122
    5    1   14   14        0.0000000101
    5    1   15   14        0.0000000007
    5    1   16   14       -0.0000000050
    5    1   17   14       -0.0000000007
    5    1   18   14       -0.0015807878
    5    1   19   14       -0.0000039040
    5    1   15   15       -0.0000000025
    5    1   16   15        0.0000266083
    5    1   17   15       -0.0000000490
    5    1   18   15        0.0000014385
    5    1   19   15       -0.0011254605
    5    1   16   16        0.0000000027
    5    1   17   16        0.0010107621
    5    1   18   16       -0.0000000009
    5    1   19   16       -0.0000000541
    5    1   17   17        0.0000000000
    5    1   18   17       -0.0000000043
    5    1   19   17        0.0000002468
    5    1   18   18       -0.0000000003
    5    1   19   18       -0.0000000015
    5    1   19   19       -0.0000000001
    6    1    6    1        0.0018090780
    6    1    7    1        0.0000000000
    6    1    8    1        0.0000026281
    6    1    9    1        0.0003138456
    6    1   10    1       -0.0025060599
    6    1   11    1        0.0000041755
    6    1   12    1        0.0000000000
    6    1   13    1        0.0000000000
    6    1   14    1        0.0000000053
    6    1   15    1       -0.0000009386
    6    1   16    1       -0.0000000000
    6    1   17    1        0.0000000004
    6    1   18    1       -0.0000000029
    6    1   19    1        0.0000000021
    6    1    2    2       -0.0017180554
    6    1    3    2       -0.0000033337
    6    1    4    2        0.0000000079
    6    1    5    2       -0.0000000000
    6    1    6    2        0.0000061846
    6    1    7    2        0.0000000000
    6    1    8    2        0.0002866262
    6    1    9    2        0.0000045746
    6    1   10    2       -0.0000070810
    6    1   11    2        0.0000000023
    6    1   12    2       -0.0000000000
    6    1   13    2        0.0000000009
    6    1   14    2        0.0000034013
    6    1   15    2        0.0000000019
    6    1   16    2        0.0000000000
    6    1   17    2       -0.0000000000
    6    1   18    2       -0.0000000019
    6    1   19    2       -0.0000000043
    6    1    3    3       -0.0006248695
    6    1    4    3        0.0000011727
    6    1    5    3       -0.0000000000
    6    1    6    3       -0.0017361731
    6    1    7    3       -0.0000000000
    6    1    8    3       -0.0000170924
    6    1    9    3        0.0002549335
    6    1   10    3        0.0005812584
    6    1   11    3       -0.0000012427
    6    1   12    3       -0.0000000000
    6    1   13    3       -0.0000000000
    6    1   14    3       -0.0000000122
    6    1   15    3       -0.0000001715
    6    1   16    3       -0.0000000000
    6    1   17    3       -0.0000000001
    6    1   18    3        0.0000000002
    6    1   19    3       -0.0000000001
    6    1    4    4       -0.0011483740
    6    1    5    4       -0.0000000000
    6    1    6    4        0.0000019444
    6    1    7    4       -0.0000000000
    6    1    8    4        0.0000000007
    6    1    9    4        0.0000001873
    6    1   10    4       -0.0000019074
    6    1   11    4        0.0007202191
    6    1   12    4        0.0000000021
    6    1   13    4       -0.0000000048
    6    1   14    4       -0.0000194290
    6    1   15    4       -0.0023811315
    6    1   16    4       -0.0000001252
    6    1   17    4        0.0000059338
    6    1   18    4       -0.0000000015
    6    1   19    4       -0.0000000002
    6    1    5    5       -0.0011483760
    6    1    6    5       -0.0000000000
    6    1    7    5       -0.0000016814
    6    1    8    5        0.0000000000
    6    1    9    5       -0.0000000000
    6    1   10    5        0.0000000000
    6    1   11    5       -0.0000000021
    6    1   12    5        0.0007202198
    6    1   13    5        0.0000194290
    6    1   14    5       -0.0000000048
    6    1   15    5        0.0000001252
    6    1   16    5       -0.0023811440
    6    1   17    5       -0.0000000000
    6    1   18    5       -0.0000000010
    6    1   19    5        0.0000002424
    6    1    6    6       -0.0001778244
    6    1    7    6        0.0000000000
    6    1    8    6        0.0000069929
    6    1    9    6        0.0016471909
    6    1   10    6       -0.0007527151
    6    1   11    6       -0.0000015872
    6    1   12    6       -0.0000000000
    6    1   13    6        0.0000000000
    6    1   14    6        0.0000000367
    6    1   15    6        0.0000084750
    6    1   16    6        0.0000000004
    6    1   17    6       -0.0000000121
    6    1   18    6       -0.0000000036
    6    1   19    6        0.0000000028
    6    1    7    7       -0.0010169746
    6    1    8    7        0.0000000001
    6    1    9    7        0.0000000000
    6    1   10    7        0.0000000011
    6    1   11    7        0.0000000000
    6    1   12    7        0.0000031736
    6    1   13    7       -0.0000000010
    6    1   14    7        0.0000000000
    6    1   15    7       -0.0000000001
    6    1   16    7        0.0000001288
    6    1   17    7       -0.0000000001
    6    1   18    7        0.0000134186
    6    1   19    7        0.0016449088
    6    1    8    8       -0.0008271564
    6    1    9    8        0.0000022535
    6    1   10    8        0.0000001314
    6    1   11    8       -0.0000000012
    6    1   12    8       -0.0000000000
    6    1   13    8        0.0000000011
    6    1   14    8        0.0000044050
    6    1   15    8        0.0000000066
    6    1   16    8        0.0000000000
    6    1   17    8       -0.0000000000
    6    1   18    8       -0.0000000003
    6    1   19    8       -0.0000000006
    6    1    9    9       -0.0005639862
    6    1   10    9       -0.0017506379
    6    1   11    9        0.0000035130
    6    1   12    9        0.0000000000
    6    1   13    9        0.0000000000
    6    1   14    9        0.0000000042
    6    1   15    9       -0.0000007321
    6    1   16    9       -0.0000000000
    6    1   17    9        0.0000000001
    6    1   18    9       -0.0000000010
    6    1   19    9        0.0000000006
    6    1   10   10        0.0000227765
    6    1   11   10        0.0000008840
    6    1   12   10        0.0000000000
    6    1   13   10        0.0000000000
    6    1   14   10        0.0000000007
    6    1   15   10       -0.0000013579
    6    1   16   10       -0.0000000001
    6    1   17   10       -0.0000000001
    6    1   18   10        0.0000000052
    6    1   19   10       -0.0000000044
    6    1   11   11       -0.0016269175
    6    1   12   11       -0.0000000000
    6    1   13   11        0.0000000006
    6    1   14   11        0.0000024720
    6    1   15   11        0.0011700149
    6    1   16   11        0.0000000581
    6    1   17   11       -0.0000010991
    6    1   18   11        0.0000000011
    6    1   19   11        0.0000000002
    6    1   12   12       -0.0016269166
    6    1   13   12       -0.0000024720
    6    1   14   12        0.0000000006
    6    1   15   12       -0.0000000581
    6    1   16   12        0.0011700149
    6    1   17   12       -0.0000000000
    6    1   18   12        0.0000000040
    6    1   19   12       -0.0000012482
    6    1   13   13       -0.0007907106
    6    1   14   13        0.0000000000
    6    1   15   13        0.0000000030
    6    1   16   13       -0.0000099328
    6    1   17   13       -0.0000000000
    6    1   18   13       -0.0000018531
    6    1   19   13       -0.0000000047
    6    1   14   14       -0.0007907113
    6    1   15   14        0.0000099328
    6    1   16   14        0.0000000030
    6    1   17   14       -0.0000000160
    6    1   18   14        0.0000000005
    6    1   19   14       -0.0000000000
    6    1   15   15       -0.0009145812
    6    1   16   15       -0.0000000000
    6    1   17   15        0.0000006746
    6    1   18   15       -0.0000000000
    6    1   19   15       -0.0000000001
    6    1   16   16       -0.0009145802
    6    1   17   16        0.0000000000
    6    1   18   16        0.0000000020
    6    1   19   16        0.0000013506
    6    1   17   17       -0.0010938433
    6    1   18   17        0.0000000001
    6    1   19   17        0.0000000002
    6    1   18   18       -0.0009263704
    6    1   19   18        0.0000074081
    6    1   19   19       -0.0012373021
    7    1    7    1        0.0001376751
    7    1    8    1        0.0000000000
    7    1    9    1        0.0000000000
    7    1   10    1       -0.0000000001
    7    1   11    1       -0.0000000000
    7    1   12    1        0.0000000733
    7    1   13    1       -0.0000000013
    7    1   14    1       -0.0000000000
    7    1   15    1        0.0000000000
    7    1   16    1       -0.0000000552
    7    1   17    1        0.0000000000
    7    1   18    1        0.0000002686
    7    1   19    1       -0.0000811559
    7    1    2    2       -0.0000000000
    7    1    3    2       -0.0000000000
    7    1    4    2        0.0000000000
    7    1    5    2       -0.0000000014
    7    1    6    2        0.0000000000
    7    1    7    2        0.0000001082
    7    1    8    2        0.0000000000
    7    1    9    2        0.0000000000
    7    1   10    2       -0.0000000001
    7    1   11    2        0.0000000000
    7    1   12    2        0.0000000011
    7    1   13    2       -0.0000001403
    7    1   14    2        0.0000000000
    7    1   15    2       -0.0000000001
    7    1   16    2        0.0000000011
    7    1   17    2       -0.0000000000
    7    1   18    2        0.0001395216
    7    1   19    2        0.0000004113
    7    1    3    3       -0.0000000000
    7    1    4    3        0.0000000000
    7    1    5    3        0.0000037806
    7    1    6    3       -0.0000000000
    7    1    7    3       -0.0007507841
    7    1    8    3        0.0000000000
    7    1    9    3        0.0000000000
    7    1   10    3        0.0000000001
    7    1   11    3        0.0000000000
    7    1   12    3       -0.0000002388
    7    1   13    3        0.0000000080
    7    1   14    3        0.0000000000
    7    1   15    3       -0.0000000000
    7    1   16    3        0.0000002702
    7    1   17    3       -0.0000000000
    7    1   18    3       -0.0000014027
    7    1   19    3        0.0001790651
    7    1    4    4        0.0000000010
    7    1    5    4        0.0002556721
    7    1    6    4        0.0000000000
    7    1    7    4       -0.0000021264
    7    1    8    4        0.0000000000
    7    1    9    4       -0.0000000000
    7    1   10    4       -0.0000000000
    7    1   11    4       -0.0000000008
    7    1   12    4       -0.0006950839
    7    1   13    4        0.0000003627
    7    1   14    4       -0.0000000001
    7    1   15    4        0.0000000036
    7    1   16    4       -0.0000734613
    7    1   17    4       -0.0000000000
    7    1   18    4       -0.0000000070
    7    1   19    4        0.0000015150
    7    1    5    5       -0.0000000010
    7    1    6    5        0.0000003683
    7    1    7    5        0.0000000000
    7    1    8    5       -0.0000000081
    7    1    9    5       -0.0000007640
    7    1   10    5       -0.0000005108
    7    1   11    5       -0.0006950852
    7    1   12    5        0.0000000008
    7    1   13    5       -0.0000000001
    7    1   14    5       -0.0000003627
    7    1   15    5       -0.0000734685
    7    1   16    5       -0.0000000036
    7    1   17    5       -0.0000033046
    7    1   18    5        0.0000000000
    7    1   19    5        0.0000000000
    7    1    6    6        0.0000000000
    7    1    7    6       -0.0001772145
    7    1    8    6        0.0000000000
    7    1    9    6        0.0000000000
    7    1   10    6        0.0000000005
    7    1   11    6        0.0000000000
    7    1   12    6        0.0000008844
    7    1   13    6       -0.0000000025
    7    1   14    6        0.0000000000
    7    1   15    6       -0.0000000002
    7    1   16    6        0.0000034813
    7    1   17    6       -0.0000000000
    7    1   18    6       -0.0000012378
    7    1   19    6        0.0006959668
    7    1    7    7       -0.0000000000
    7    1    8    7        0.0000009094
    7    1    9    7        0.0005701786
    7    1   10    7        0.0003707833
    7    1   11    7        0.0000023423
    7    1   12    7        0.0000000000
    7    1   13    7        0.0000000000
    7    1   14    7        0.0000000047
    7    1   15    7        0.0000002545
    7    1   16    7        0.0000000000
    7    1   17    7       -0.0000000016
    7    1   18    7        0.0000000005
    7    1   19    7       -0.0000000004
    7    1    8    8        0.0000000000
    7    1    9    8       -0.0000000000
    7    1   10    8       -0.0000000008
    7    1   11    8        0.0000000000
    7    1   12    8       -0.0000000009
    7    1   13    8       -0.0000036479
    7    1   14    8        0.0000000009
    7    1   15    8       -0.0000000004
    7    1   16    8        0.0000000077
    7    1   17    8       -0.0000000001
    7    1   18    8        0.0008098105
    7    1   19    8        0.0000026246
    7    1    9    9       -0.0000000000
    7    1   10    9       -0.0000000003
    7    1   11    9       -0.0000000000
    7    1   12    9        0.0000025497
    7    1   13    9       -0.0000000012
    7    1   14    9       -0.0000000000
    7    1   15    9        0.0000000001
    7    1   16    9       -0.0000008154
    7    1   17    9        0.0000000000
    7    1   18    9        0.0000013524
    7    1   19    9       -0.0003847993
    7    1   10   10       -0.0000000002
    7    1   11   10       -0.0000000000
    7    1   12   10        0.0000010562
    7    1   13   10       -0.0000000017
    7    1   14   10       -0.0000000000
    7    1   15   10       -0.0000000000
    7    1   16   10        0.0000009693
    7    1   17   10        0.0000000000
    7    1   18   10        0.0000008320
    7    1   19   10       -0.0001696071
    7    1   11   11       -0.0000000007
    7    1   12   11        0.0003913509
    7    1   13   11       -0.0000007213
    7    1   14   11        0.0000000002
    7    1   15   11        0.0000000087
    7    1   16   11       -0.0001694484
    7    1   17   11        0.0000000000
    7    1   18   11        0.0000000071
    7    1   19   11       -0.0000007321
    7    1   12   12        0.0000000007
    7    1   13   12        0.0000000002
    7    1   14   12        0.0000007213
    7    1   15   12       -0.0001694491
    7    1   16   12       -0.0000000087
    7    1   17   12       -0.0000018616
    7    1   18   12       -0.0000000002
    7    1   19   12       -0.0000000000
    7    1   13   13       -0.0000001475
    7    1   14   13       -0.0002938520
    7    1   15   13       -0.0000003046
    7    1   16   13        0.0000000001
    7    1   17   13       -0.0000000072
    7    1   18   13        0.0000000004
    7    1   19   13       -0.0000000001
    7    1   14   14        0.0000001475
    7    1   15   14        0.0000000001
    7    1   16   14        0.0000003046
    7    1   17   14        0.0000000000
    7    1   18   14        0.0000019547
    7    1   19   14        0.0000000062
    7    1   15   15       -0.0000000098
    7    1   16   15        0.0000964380
    7    1   17   15        0.0000000000
    7    1   18   15       -0.0000000007
    7    1   19   15        0.0000016423
    7    1   16   16        0.0000000097
    7    1   17   16       -0.0000009155
    7    1   18   16        0.0000000002
    7    1   19   16        0.0000000001
    7    1   17   17       -0.0000000000
    7    1   18   17        0.0000000000
    7    1   19   17       -0.0000000006
    7    1   18   18       -0.0000000032
    7    1   19   18       -0.0000000025
    7    1   19   19       -0.0000000014
    8    1    8    1        0.0022008439
    8    1    9    1        0.0000014001
    8    1   10    1       -0.0000024826
    8    1   11    1        0.0000000002
    8    1   12    1       -0.0000000000
    8    1   13    1        0.0000000001
    8    1   14    1        0.0000002062
    8    1   15    1        0.0000000007
    8    1   16    1        0.0000000000
    8    1   17    1        0.0000000000
    8    1   18    1       -0.0000000080
    8    1   19    1       -0.0000000173
    8    1    2    2        0.0000010705
    8    1    3    2       -0.0021797303
    8    1    4    2       -0.0000004166
    8    1    5    2        0.0000000000
    8    1    6    2       -0.0001716897
    8    1    7    2        0.0000000000
    8    1    8    2       -0.0000001938
    8    1    9    2        0.0029035781
    8    1   10    2        0.0006061901
    8    1   11    2       -0.0000000101
    8    1   12    2        0.0000000000
    8    1   13    2       -0.0000000000
    8    1   14    2       -0.0000000007
    8    1   15    2        0.0000000622
    8    1   16    2        0.0000000000
    8    1   17    2       -0.0000000001
    8    1   18    2       -0.0000000056
    8    1   19    2        0.0000000046
    8    1    3    3        0.0000037898
    8    1    4    3        0.0000000058
    8    1    5    3       -0.0000000000
    8    1    6    3       -0.0000043777
    8    1    7    3        0.0000000000
    8    1    8    3       -0.0000860624
    8    1    9    3        0.0000020640
    8    1   10    3       -0.0000021431
    8    1   11    3        0.0000000038
    8    1   12    3        0.0000000000
    8    1   13    3       -0.0000000003
    8    1   14    3       -0.0000013159
    8    1   15    3       -0.0000000201
    8    1   16    3       -0.0000000000
    8    1   17    3        0.0000000000
    8    1   18    3       -0.0000000011
    8    1   19    3       -0.0000000024
    8    1    4    4        0.0000033462
    8    1    5    4       -0.0000000000
    8    1    6    4       -0.0000000127
    8    1    7    4       -0.0000000000
    8    1    8    4       -0.0000013717
    8    1    9    4        0.0000000026
    8    1   10    4       -0.0000000010
    8    1   11    4        0.0000015174
    8    1   12    4        0.0000000000
    8    1   13    4       -0.0000000149
    8    1   14    4       -0.0000599501
    8    1   15    4       -0.0000051674
    8    1   16    4       -0.0000000003
    8    1   17    4        0.0000000141
    8    1   18    4        0.0000000000
    8    1   19    4        0.0000000001
    8    1    5    5        0.0000033462
    8    1    6    5       -0.0000000000
    8    1    7    5       -0.0000000057
    8    1    8    5        0.0000000000
    8    1    9    5        0.0000000000
    8    1   10    5        0.0000000000
    8    1   11    5        0.0000000000
    8    1   12    5        0.0000015173
    8    1   13    5        0.0000599491
    8    1   14    5       -0.0000000149
    8    1   15    5        0.0000000003
    8    1   16    5       -0.0000051674
    8    1   17    5        0.0000000000
    8    1   18    5       -0.0000009592
    8    1   19    5       -0.0000000112
    8    1    6    6        0.0000051118
    8    1    7    6        0.0000000000
    8    1    8    6       -0.0000210683
    8    1    9    6       -0.0000005807
    8    1   10    6        0.0000012240
    8    1   11    6       -0.0000000023
    8    1   12    6       -0.0000000000
    8    1   13    6        0.0000000000
    8    1   14    6        0.0000001953
    8    1   15    6        0.0000000313
    8    1   16    6        0.0000000000
    8    1   17    6       -0.0000000000
    8    1   18    6        0.0000000001
    8    1   19    6        0.0000000001
    8    1    7    7        0.0000038370
    8    1    8    7        0.0000000000
    8    1    9    7       -0.0000000000
    8    1   10    7       -0.0000000004
    8    1   11    7        0.0000000000
    8    1   12    7        0.0000000060
    8    1   13    7       -0.0000008019
    8    1   14    7        0.0000000002
    8    1   15    7       -0.0000000002
    8    1   16    7        0.0000000115
    8    1   17    7       -0.0000000000
    8    1   18    7        0.0004426314
    8    1   19    7        0.0000068339
    8    1    8    8       -0.0000000481
    8    1    9    8       -0.0004362677
    8    1   10    8        0.0000603555
    8    1   11    8        0.0000001367
    8    1   12    8        0.0000000000
    8    1   13    8       -0.0000000000
    8    1   14    8       -0.0000000005
    8    1   15    8        0.0000002096
    8    1   16    8        0.0000000000
    8    1   17    8       -0.0000000011
    8    1   18    8        0.0000000012
    8    1   19    8       -0.0000000010
    8    1    9    9        0.0000038463
    8    1   10    9       -0.0000023222
    8    1   11    9        0.0000000110
    8    1   12    9       -0.0000000000
    8    1   13    9        0.0000000000
    8    1   14    9        0.0000001789
    8    1   15    9       -0.0000000025
    8    1   16    9       -0.0000000000
    8    1   17    9        0.0000000000
    8    1   18    9        0.0000000011
    8    1   19    9        0.0000000024
    8    1   10   10        0.0000024397
    8    1   11   10       -0.0000000070
    8    1   12   10       -0.0000000000
    8    1   13   10        0.0000000000
    8    1   14   10        0.0000000714
    8    1   15   10        0.0000000037
    8    1   16   10       -0.0000000000
    8    1   17   10       -0.0000000000
    8    1   18   10       -0.0000000004
    8    1   19   10       -0.0000000011
    8    1   11   11        0.0000036682
    8    1   12   11       -0.0000000000
    8    1   13   11       -0.0000001205
    8    1   14   11       -0.0004781827
    8    1   15   11       -0.0000013167
    8    1   16   11       -0.0000000000
    8    1   17   11        0.0000000104
    8    1   18   11       -0.0000000000
    8    1   19   11       -0.0000000000
    8    1   12   12        0.0000036682
    8    1   13   12        0.0004781816
    8    1   14   12       -0.0000001205
    8    1   15   12        0.0000000001
    8    1   16   12       -0.0000013167
    8    1   17   12       -0.0000000000
    8    1   18   12        0.0000009947
    8    1   19   12        0.0000000121
    8    1   13   13       -0.0000003588
    8    1   14   13        0.0000000000
    8    1   15   13        0.0000000298
    8    1   16   13       -0.0000989392
    8    1   17   13       -0.0000000003
    8    1   18   13        0.0000000002
    8    1   19   13        0.0000000352
    8    1   14   14       -0.0000003588
    8    1   15   14        0.0000989387
[...]
   16   13   16   16       -0.0002301552
   16   13   17   16       -0.0000000000
   16   13   18   16       -0.0000090728
   16   13   19   16       -0.0000003150
   16   13   17   17       -0.0001005331
   16   13   18   17       -0.0000000740
   16   13   19   17        0.0000000024
   16   13   18   18        0.0000112696
   16   13   19   18       -0.0025583564
   16   13   19   19       -0.0001703230
   17   13   17   13        0.0120031529
   17   13   18   13       -0.0000000027
   17   13   19   13        0.0000000030
   17   13   14   14       -0.0000000000
   17   13   15   14       -0.0000000000
   17   13   16   14       -0.0000102223
   17   13   17   14        0.0000000000
   17   13   18   14       -0.0000003288
   17   13   19   14       -0.0002239867
   17   13   15   15        0.0000000014
   17   13   16   15        0.0000005444
   17   13   17   15        0.0000000357
   17   13   18   15       -0.0016322211
   17   13   19   15       -0.0000496240
   17   13   16   16       -0.0000000001
   17   13   17   16       -0.0001175216
   17   13   18   16       -0.0000004863
   17   13   19   16       -0.0000000019
   17   13   17   17       -0.0000000000
   17   13   18   17        0.0000018589
   17   13   19   17        0.0000000651
   17   13   18   18       -0.0000000021
   17   13   19   18       -0.0000000065
   17   13   19   19       -0.0000000011
   18   13   18   13        0.0065967266
   18   13   19   13        0.0000122839
   18   13   14   14        0.0000405561
   18   13   15   14       -0.0000000117
   18   13   16   14       -0.0000000003
   18   13   17   14        0.0000003290
   18   13   18   14        0.0000000187
   18   13   19   14        0.0000000199
   18   13   15   15        0.0000183365
   18   13   16   15       -0.0000000068
   18   13   17   15       -0.0010223641
   18   13   18   15       -0.0000000058
   18   13   19   15        0.0000013190
   18   13   16   16       -0.0001417280
   18   13   17   16       -0.0000003077
   18   13   18   16        0.0000116662
   18   13   19   16       -0.0043451204
   18   13   17   17        0.0000016234
   18   13   18   17       -0.0000000005
   18   13   19   17        0.0000000001
   18   13   18   18       -0.0002709386
   18   13   19   18       -0.0000000211
   18   13   19   19       -0.0002303551
   19   13   19   13        0.0009752157
   19   13   14   14        0.0000000930
   19   13   15   14        0.0000049749
   19   13   16   14       -0.0000000028
   19   13   17   14        0.0002239722
   19   13   18   14        0.0000000206
   19   13   19   14        0.0000000003
   19   13   15   15        0.0000002761
   19   13   16   15        0.0000000004
   19   13   17   15        0.0000066380
   19   13   18   15        0.0000003026
   19   13   19   15        0.0000000290
   19   13   16   16       -0.0000006976
   19   13   17   16        0.0000000031
   19   13   18   16       -0.0009990720
   19   13   19   16       -0.0000386864
   19   13   17   17        0.0000000175
   19   13   18   17       -0.0000000004
   19   13   19   17       -0.0000000000
   19   13   18   18       -0.0000004917
   19   13   19   18       -0.0000196067
   19   13   19   19       -0.0000014578
   14   14   14   14        0.1161352881
   14   14   15   14       -0.0000001254
   14   14   16   14        0.0000000005
   14   14   17   14        0.0000000482
   14   14   18   14       -0.0000000357
   14   14   19   14        0.0000000009
   14   14   15   15        0.1046501940
   14   14   16   15        0.0000011690
   14   14   17   15        0.0000249094
   14   14   18   15        0.0000000048
   14   14   19   15       -0.0000000169
   14   14   16   16        0.0882493606
   14   14   17   16        0.0000000141
   14   14   18   16        0.0000001331
   14   14   19   16       -0.0000450690
   14   14   17   17        0.1018874577
   14   14   18   17        0.0000000043
   14   14   19   17       -0.0000000035
   14   14   18   18        0.0971782007
   14   14   19   18        0.0000113656
   14   14   19   19        0.0920139064
   15   14   15   14        0.0050861439
   15   14   16   14        0.0000008336
   15   14   17   14        0.0000131572
   15   14   18   14       -0.0000000005
   15   14   19   14       -0.0000000015
   15   14   15   15        0.0002301538
   15   14   16   15        0.0000000062
   15   14   17   15       -0.0000000315
   15   14   18   15        0.0000000006
   15   14   19   15       -0.0000000032
   15   14   16   16        0.0001476217
   15   14   17   16        0.0000000005
   15   14   18   16       -0.0000063919
   15   14   19   16       -0.0000002077
   15   14   17   17        0.0001005331
   15   14   18   17        0.0000000762
   15   14   19   17        0.0000000024
   15   14   18   18       -0.0000112707
   15   14   19   18        0.0025583448
   15   14   19   19        0.0001703204
   16   14   16   14        0.0004882442
   16   14   17   14        0.0000000055
   16   14   18   14        0.0000000280
   16   14   19   14       -0.0000024020
   16   14   15   15        0.0000000477
   16   14   16   15        0.0000098381
   16   14   17   15        0.0000000001
   16   14   18   15       -0.0000021518
   16   14   19   15        0.0000000032
   16   14   16   16        0.0000000662
   16   14   17   16       -0.0000000325
   16   14   18   16        0.0000000019
   16   14   19   16        0.0000000002
   16   14   17   17        0.0000000304
   16   14   18   17       -0.0002498452
   16   14   19   17       -0.0000015797
   16   14   18   18       -0.0000000005
   16   14   19   18        0.0000007694
   16   14   19   19        0.0000000472
   17   14   17   14        0.0120031540
   17   14   18   14        0.0000000037
   17   14   19   14       -0.0000000021
   17   14   15   15       -0.0000006048
   17   14   16   15        0.0000000007
   17   14   17   15        0.0001175216
   17   14   18   15        0.0000004980
   17   14   19   15        0.0000000272
   17   14   16   16       -0.0000007041
   17   14   17   16        0.0000000357
   17   14   18   16       -0.0016322276
   17   14   19   16       -0.0000496244
   17   14   17   17       -0.0000001359
   17   14   18   17       -0.0000000008
   17   14   19   17       -0.0000000006
   17   14   18   18        0.0000001671
   17   14   19   18       -0.0000261356
   17   14   19   19       -0.0000038192
   18   14   18   14        0.0065959563
   18   14   19   14        0.0000122822
   18   14   15   15        0.0000000017
   18   14   16   15       -0.0000600925
   18   14   17   15        0.0000003089
   18   14   18   15       -0.0000116646
   18   14   19   15        0.0043443245
   18   14   16   16        0.0000000302
   18   14   17   16       -0.0010223284
   18   14   18   16       -0.0000000013
   18   14   19   16        0.0000013024
   18   14   17   17        0.0000000002
   18   14   18   17        0.0000000129
   18   14   19   17        0.0000006500
   18   14   18   18        0.0000000685
   18   14   19   18        0.0000000046
   18   14   19   19        0.0000000587
   19   14   19   14        0.0009751974
   19   14   15   15       -0.0000000001
   19   14   16   15       -0.0000002143
   19   14   17   15       -0.0000000006
   19   14   18   15        0.0009990613
   19   14   19   15        0.0000386829
   19   14   16   16        0.0000000010
   19   14   17   16        0.0000066384
   19   14   18   16        0.0000002998
   19   14   19   16       -0.0000000052
   19   14   17   17        0.0000000008
   19   14   18   17       -0.0000014145
   19   14   19   17       -0.0000001224
   19   14   18   18        0.0000000015
   19   14   19   18        0.0000000052
   19   14   19   19        0.0000000008
   15   15   15   15        0.1067759276
   15   15   16   15        0.0000008447
   15   15   17   15        0.0000579428
   15   15   18   15        0.0000000071
   15   15   19   15        0.0000000077
   15   15   16   16        0.0869287345
   15   15   17   16       -0.0000000029
   15   15   18   16        0.0000002278
   15   15   19   16       -0.0000427229
   15   15   17   17        0.0977813958
   15   15   18   17        0.0000000043
   15   15   19   17       -0.0000000034
   15   15   18   18        0.0912043194
   15   15   19   18        0.0001511468
   15   15   19   19        0.0916127029
   16   15   16   15        0.0015698830
   16   15   17   15       -0.0000000030
   16   15   18   15       -0.0000000623
   16   15   19   15       -0.0000516884
   16   15   16   16       -0.0000008447
   16   15   17   16        0.0000576450
   16   15   18   16        0.0000000000
   16   15   19   16       -0.0000000124
   16   15   17   17        0.0000000000
   16   15   18   17       -0.0000000002
   16   15   19   17        0.0000000157
   16   15   18   18       -0.0000000033
   16   15   19   18       -0.0000000023
   16   15   19   19       -0.0000000026
   17   15   17   15        0.0083314862
   17   15   18   15        0.0000000039
   17   15   19   15       -0.0000000027
   17   15   16   16        0.0000593362
   17   15   17   16        0.0000000000
   17   15   18   16       -0.0000232804
   17   15   19   16        0.0000295364
   17   15   17   17       -0.0000047672
   17   15   18   17        0.0000000031
   17   15   19   17        0.0000000004
   17   15   18   18        0.0000960658
   17   15   19   18       -0.0000009647
   17   15   19   19        0.0000992417
   18   15   18   15        0.0013349592
   18   15   19   15        0.0000261812
   18   15   16   16       -0.0000000008
   18   15   17   16        0.0000232800
   18   15   18   16       -0.0000000047
   18   15   19   16       -0.0000000034
   18   15   17   17        0.0000000029
   18   15   18   17        0.0000064252
   18   15   19   17       -0.0000000845
   18   15   18   18       -0.0000000023
   18   15   19   18       -0.0000000013
   18   15   19   19        0.0000000000
   19   15   19   15        0.0054388383
   19   15   16   16       -0.0000000128
   19   15   17   16       -0.0000294879
   19   15   18   16       -0.0000000030
   19   15   19   16       -0.0000000038
   19   15   17   17        0.0000000006
   19   15   18   17       -0.0000002058
   19   15   19   17        0.0000090219
   19   15   18   18       -0.0000000103
   19   15   19   18        0.0000000015
   19   15   19   19       -0.0000000108
   16   16   16   16        0.1067759755
   16   16   17   16        0.0000000088
   16   16   18   16       -0.0000000641
   16   16   19   16        0.0001482466
   16   16   17   17        0.0977813968
   16   16   18   17       -0.0000000037
   16   16   19   17        0.0000000028
   16   16   18   18        0.0912043125
   16   16   19   18        0.0001511472
   16   16   19   19        0.0916126376
   17   16   17   16        0.0083314880
   17   16   18   16       -0.0000000031
   17   16   19   16        0.0000000024
   17   16   17   17       -0.0000000002
   17   16   18   17       -0.0000000417
   17   16   19   17       -0.0000019062
   17   16   18   18        0.0000000046
   17   16   19   18       -0.0000000008
   17   16   19   19        0.0000000047
   18   16   18   16        0.0013349917
   18   16   19   16        0.0000261799
   18   16   17   17        0.0000000194
   18   16   18   17        0.0000000004
   18   16   19   17        0.0000000000
   18   16   18   18       -0.0000005335
   18   16   19   18        0.0000243359
   18   16   19   19        0.0000012033
   19   16   19   16        0.0054397081
   19   16   17   17       -0.0000018144
   19   16   18   17       -0.0000000001
   19   16   19   17        0.0000000004
   19   16   18   18        0.0002055251
   19   16   19   18        0.0000010810
   19   16   19   19        0.0002165910
   17   17   17   17        0.1027675963
   17   17   18   17        0.0000000002
   17   17   19   17       -0.0000000002
   17   17   18   18        0.0939846207
   17   17   19   18        0.0000843396
   17   17   19   19        0.0916619630
   18   17   18   17        0.0016146810
   18   17   19   17        0.0000094941
   18   17   18   18       -0.0000000005
   18   17   19   18       -0.0000000002
   18   17   19   19       -0.0000000004
   19   17   19   17        0.0013355150
   19   17   18   18       -0.0000000004
   19   17   19   18       -0.0000000004
   19   17   19   19       -0.0000000006
   18   18   18   18        0.1013287792
   18   18   19   18        0.0000000283
   18   18   19   19        0.0934870915
   19   18   19   18        0.0039053855
   19   18   19   19        0.0001848987
   19   19   19   19        0.0961324875
 end_two_electron_integrals


 output epsi filename:./pspw_hf_H2.emovecs

 Total PSPW energy     :  -0.7921382280E+00


=== Spin Contamination ===

 <Sexact^2> =    0.0000000000000000     
 <S^2>      =    0.0000000000000000     



== Center of Charge ==

spin up     (    0.0000,    0.0000,    0.0001 )
spin down   (    0.0000,    0.0000,    0.0001 )
     total  (    0.0000,    0.0000,    0.0001 )
ionic       (    0.0000,    0.0000,    0.0000 )


== Molecular Dipole wrt Center of Mass ==

mu   =  (   -0.0000,   -0.0000,   -0.0001 ) au
|mu| =     0.0001 au,       0.0003 Debye

 output psi filename:./pspw_hf_H2.movecs

 Writing Crystallographic Information File:./H2.cif
   - cell not shifted (nwpw:cif_shift_cell .false.)


== Timing ==

cputime in seconds
  prologue    :   0.726864E+01
  main loop   :   0.152121E+04
  epilogue    :   0.167659E-01
  total       :   0.152850E+04
  cputime/step:   0.100743E+02       (     151 evalulations,      63 linesearches)


Time spent doing                        total          step       percent
  total time                 :   0.152850E+04  0.101225E+02       100.0 %
  i/o time                   :   0.422983E+00  0.280121E-02         0.0 %
  FFTs                       :   0.130964E+04  0.867312E+01        85.7 %
  dot products               :   0.182895E+01  0.121122E-01         0.1 %
  geodesic                   :   0.164279E+00  0.108794E-02         0.0 %
  ffm_dgemm                  :   0.197161E-01  0.130570E-03         0.0 %
  fmf_dgemm                  :   0.108425E+00  0.718045E-03         0.0 %
  mmm_dgemm                  :   0.182149E-02  0.120628E-04         0.0 %
  m_diagonalize              :   0.126493E-02  0.837705E-05         0.0 %
  local pseudopotentials     :   0.240871E-01  0.159517E-03         0.0 %
  non-local pseudopotentials :   0.329073E+01  0.217929E-01         0.2 %
  structure factors          :   0.137865E+01  0.913013E-02         0.1 %
  phase factors              :   0.616200E-05  0.408079E-07         0.0 %
  masking and packing        :   0.531241E+02  0.351815E+00         3.5 %
  queue fft                  :   0.370574E+01  0.245413E-01         0.2 %
  queue fft (serial)         :   0.154348E+01  0.102217E-01         0.1 %
  queue fft (message passing):   0.199208E+01  0.131926E-01         0.1 %
  HFX potential              :   0.804111E+03  0.532524E+01        52.6 %
  non-local psp FFM          :   0.168400E+01  0.111523E-01         0.1 %
  non-local psp FMF          :   0.438512E+00  0.290406E-02         0.0 %
  non-local psp FFM A        :   0.552372E+00  0.365809E-02         0.0 %
  non-local psp FFM B        :   0.355448E+00  0.235396E-02         0.0 %

== HFX Counters ==
  HFX Evalulations         =   151
  Lin ACE HFX Evalulations =     0


     >>>  JOB COMPLETED     AT Thu May  1 22:47:14 2025  <<<

 Task  times  cpu:     1539.6s     wall:     1528.5s
 Summary of allocated global arrays
-----------------------------------
  No active global arrays


MA_summarize_allocated_blocks: starting scan ...
MA_summarize_allocated_blocks: scan completed: 0 heap blocks, 0 stack blocks
MA usage statistics:

	allocation statistics:
					      heap	     stack
					      ----	     -----
	current number of blocks	         0	         0
	maximum number of blocks	       313	        17
	current total bytes		         0	         0
	maximum total bytes		 955123784	 228700344
	maximum total K-bytes		    955124	    228701
	maximum total M-bytes		       956	       229


                                NWChem Input Module
                                -------------------




                                     CITATION
                                     --------
                Please cite the following reference when publishing
                           results obtained with NWChem:

          E. Apra, E. J. Bylaska, W. A. de Jong, N. Govind, K. Kowalski,
       T. P. Straatsma, M. Valiev, H. J. J. van Dam, Y. Alexeev, J. Anchell,
       V. Anisimov, F. W. Aquino, R. Atta-Fynn, J. Autschbach, N. P. Bauman,
     J. C. Becca, D. E. Bernholdt, K. Bhaskaran-Nair, S. Bogatko, P. Borowski,
         J. Boschen, J. Brabec, A. Bruner, E. Cauet, Y. Chen, G. N. Chuev,
      C. J. Cramer, J. Daily, M. J. O. Deegan, T. H. Dunning Jr., M. Dupuis,
   K. G. Dyall, G. I. Fann, S. A. Fischer, A. Fonari, H. Fruchtl, L. Gagliardi,
      J. Garza, N. Gawande, S. Ghosh, K. Glaesemann, A. W. Gotz, J. Hammond,
       V. Helms, E. D. Hermes, K. Hirao, S. Hirata, M. Jacquelin, L. Jensen,
   B. G. Johnson, H. Jonsson, R. A. Kendall, M. Klemm, R. Kobayashi, V. Konkov,
      S. Krishnamoorthy, M. Krishnan, Z. Lin, R. D. Lins, R. J. Littlefield,
      A. J. Logsdail, K. Lopata, W. Ma, A. V. Marenich, J. Martin del Campo,
   D. Mejia-Rodriguez, J. E. Moore, J. M. Mullin, T. Nakajima, D. R. Nascimento,
    J. A. Nichols, P. J. Nichols, J. Nieplocha, A. Otero-de-la-Roza, B. Palmer,
    A. Panyala, T. Pirojsirikul, B. Peng, R. Peverati, J. Pittner, L. Pollack,
   R. M. Richard, P. Sadayappan, G. C. Schatz, W. A. Shelton, D. W. Silverstein,
   D. M. A. Smith, T. A. Soares, D. Song, M. Swart, H. L. Taylor, G. S. Thomas,
            V. Tipparaju, D. G. Truhlar, K. Tsemekhman, T. Van Voorhis,
      A. Vazquez-Mayagoitia, P. Verma, O. Villa, A. Vishnu, K. D. Vogiatzis,
        D. Wang, J. H. Weare, M. J. Williamson, T. L. Windus, K. Wolinski,
        A. T. Wong, Q. Wu, C. Yang, Q. Yu, M. Zacharias, Z. Zhang, Y. Zhao,
                                and R. J. Harrison
                        "NWChem: Past, present, and future
                         J. Chem. Phys. 152, 184102 (2020)
                               doi:10.1063/5.0004997

                                      AUTHORS
                                      -------
  E. Apra, E. J. Bylaska, N. Govind, K. Kowalski, M. Valiev, D. Mejia-Rodriguez,
       A. Kunitsa, N. P. Bauman, A. Panyala, W. A. de Jong, T. P. Straatsma,
   H. J. J. van Dam, D. Wang, T. L. Windus, J. Hammond, J. Autschbach, A. Woods,
    K. Bhaskaran-Nair, J. Brabec, K. Lopata, S. A. Fischer, S. Krishnamoorthy,
     M. Jacquelin, W. Ma, M. Klemm, O. Villa, Y. Chen, V. Anisimov, F. Aquino,
     S. Hirata, M. T. Hackler, E. Hermes, L. Jensen, J. E. Moore, J. C. Becca,
      V. Konjkov, T. Risthaus, M. Malagoli, A. Marenich, A. Otero-de-la-Roza,
        J. Mullin, P. Nichols, R. Peverati, J. Pittner, Y. Zhao, P.-D. Fan,
        A. Fonari, M. J. Williamson, R. J. Harrison, J. R. Rehr, M. Dupuis,
     D. Silverstein, D. M. A. Smith, J. Nieplocha, V. Tipparaju, M. Krishnan,
     B. E. Van Kuiken, A. Vazquez-Mayagoitia, M. Swart, Q. Wu, T. Van Voorhis,
     A. A. Auer, M. Nooijen, L. D. Crosby, E. Brown, G. Cisneros, G. I. Fann,
   H. Fruchtl, J. Garza, K. Hirao, R. A. Kendall, J. A. Nichols, K. Tsemekhman,
    K. Wolinski, J. Anchell, D. E. Bernholdt, P. Borowski, T. Clark, D. Clerc,
   H. Dachsel, M. J. O. Deegan, K. Dyall, D. Elwood, E. Glendening, M. Gutowski,
   A. C. Hess, J. Jaffe, B. G. Johnson, J. Ju, R. Kobayashi, R. Kutteh, Z. Lin,
   R. Littlefield, X. Long, B. Meng, T. Nakajima, S. Niu, L. Pollack, M. Rosing,
   K. Glaesemann, G. Sandrone, M. Stave, H. Taylor, G. Thomas, J. H. van Lenthe,
                               A. T. Wong, Z. Zhang.

 Total times  cpu:     1539.7s     wall:     1528.5s
