 argument  1 = H2-4.5.nw



============================== echo of input deck ==============================
title "swnc: e theory=pspw4 xc=hf formula=H2 charge=0 mult=1"
#machinejob:expert

echo

start pspw_hf_H2

memory heap 1200 mb stack 1200 mb global 10 mb

charge 0

geometry
H    0.00000    0.00000   -2.25000
H    0.00000    0.00000    2.25000
end

nwpw
  ### pseudopotential block begin ###
  ### pseudopotential block end   ###
  simulation_cell
     SC 20.0000
     boundary_conditions aperiodic
  end

  cutoff 50.0
  mult 1
  xc hf
  lmbfgs
  tolerances 1.0e-9 1.0e-9

  virtual 18
end
set nwpw:cif_filename H2

#set nwpw:CI_maxit_orb 15
#set nwpw:CI_maxit_linesearch 15
set pspw:HFX_screening_radius 14.0


set nwpw:2qintegrals .true.
#set nwpw:3x3_virtual .true.

task pspw energy

================================================================================


                                         
                                         


             Northwest Computational Chemistry Package (NWChem) 7.2.2
             --------------------------------------------------------


                    Environmental Molecular Sciences Laboratory
                       Pacific Northwest National Laboratory
                                Richland, WA 99352

                              Copyright (c) 1994-2022
                       Pacific Northwest National Laboratory
                            Battelle Memorial Institute

             NWChem is an open-source computational chemistry package
                        distributed under the terms of the
                      Educational Community License (ECL) 2.0
             A copy of the license is included with this distribution
                              in the LICENSE.TXT file

                                  ACKNOWLEDGMENT
                                  --------------

            This software and its documentation were developed at the
            EMSL at Pacific Northwest National Laboratory, a multiprogram
            national laboratory, operated for the U.S. Department of Energy
            by Battelle under Contract Number DE-AC05-76RL01830. Support
            for this work was provided by the Department of Energy Office
            of Biological and Environmental Research, Office of Basic
            Energy Sciences, and the Office of Advanced Scientific Computing.


           Job information
           ---------------

    hostname        = LAPTOP-JJQSTSEL
    program         = nwchem
    date            = Thu May  1 22:53:54 2025

    compiled        = Fri_Jun_07_07:50:04_2024
    source          = /home/conda/feedstock_root/build_artifacts/nwchem_1717738148552/work
    nwchem branch   = 7.2.2
    nwchem revision = 64ba0f0
    ga revision     = 5.8.0
    use scalapack   = T
    input           = H2-4.5.nw
    prefix          = pspw_hf_H2.
    data base       = ./pspw_hf_H2.db
    status          = startup
    nproc           =        1
    time left       =     -1s



           Memory information
           ------------------

    heap     =  157286400 doubles =   1200.0 Mbytes
    stack    =  157286397 doubles =   1200.0 Mbytes
    global   =    1310720 doubles =     10.0 Mbytes (distinct from heap & stack)
    total    =  315883517 doubles =   2410.0 Mbytes
    verify   = yes
    hardfail = no 


           Directory information
           ---------------------

  0 permanent = .
  0 scratch   = .




                                NWChem Input Module
                                -------------------


               swnc: e theory=pspw4 xc=hf formula=H2 charge=0 mult=1
               -----------------------------------------------------

 Scaling coordinates for geometry "geometry" by  1.889725989
 (inverse scale =  0.529177249)

 ORDER OF PRIMARY AXIS IS BEING SET TO 4
 D4H symmetry detected

          ------
          auto-z
          ------
     1 autoz failed with cvr_scaling = 1.2 changing to 1.3
     2 autoz failed with cvr_scaling = 1.3 changing to 1.4
     3 autoz failed with cvr_scaling = 1.4 changing to 1.5
     4 autoz failed with cvr_scaling = 1.5 changing to 1.6
     5 autoz failed with cvr_scaling = 1.6 changing to 1.7

 AUTOZ failed to generate good internal coordinates.
 Cartesian coordinates will be used in optimizations.



                             Geometry "geometry" -> ""
                             -------------------------

 Output coordinates in angstroms (scale by  1.889725989 to convert to a.u.)

  No.       Tag          Charge          X              Y              Z
 ---- ---------------- ---------- -------------- -------------- --------------
    1 H                    1.0000     0.00000000     0.00000000    -2.25000000
    2 H                    1.0000     0.00000000     0.00000000     2.25000000

      Atomic Mass 
      ----------- 

      H                  1.007825


 Effective nuclear repulsion energy (a.u.)       0.1175949442

            Nuclear Dipole moment (a.u.) 
            ----------------------------
        X                 Y               Z
 ---------------- ---------------- ----------------
     0.0000000000     0.0000000000     0.0000000000

      Symmetry information
      --------------------

 Group name             D4h       
 Group number             28
 Group order              16
 No. of unique centers     1

      Symmetry unique atoms

     1


            XYZ format geometry
            -------------------
     2
 geometry
 H                     0.00000000     0.00000000    -2.25000000
 H                     0.00000000     0.00000000     2.25000000

          ****************************************************
          *                                                  *
          *               NWPW PSPW Calculation              *
          *                                                  *
          * [ (Grassmann/Stiefel manifold implementation)  ] *
          *                                                  *
          *      [ NorthWest Chemistry implementation ]      *
          *                                                  *
          *            version #5.10   06/12/02              *
          *                                                  *
          *    This code was developed by Eric J. Bylaska,   *
          *    and was based upon algorithms and code        *
          *    developed by the group of Prof. John H. Weare *
          *                                                  *
          ****************************************************
     >>>  JOB STARTED       AT Thu May  1 22:53:54 2025  <<<
          ================ input data ========================

 input psi filename:./pspw_hf_H2.movecs

 number of processors used:         1
 processor grid           :   1 x   1
 parallel mapping         :2d-hilbert
 parallel mapping         :  balanced
 number of threads        :         1
 parallel io              :       off

 options:
      boundary conditions  = aperiodic   (version4)
      electron spin        = restricted
      exchange-correlation = Hartree-Fock
      - HFX relaxed
      - HFX restricted orbitals :    1
      - HFX free-space coulomb solver


 elements involved in the cluster:
      1: H   valence charge:  1.0000  lmax=  1
             comment    : Parameterized (Chem.Phys.Lett., vol 322, page 447) Hamman psp
             pseudpotential type            :   0
             highest angular component      :   1
             local potential used           :   1
             number of non-local projections:   1
             aperiodic cutoff radius        :  1.000
             cutoff =   0.800   0.800


 total charge:   0.000

 atomic composition:
     H   :    2

 number of electrons: spin up=     1 (   1 per task)  down=     1 (   1 per task) (Fourier space)
 number of orbitals : spin up=     1 (   1 per task)  down=     1 (   1 per task) (Fourier space)

 supercell:
      cell_name:  cell_default                                      
      lattice:    a1=<  20.000   0.000   0.000 >
                  a2=<   0.000  20.000   0.000 >
                  a3=<   0.000   0.000  20.000 >
      reciprocal: b1=<   0.314   0.000   0.000 >
                  b2=<   0.000   0.314   0.000 >
                  b3=<   0.000   0.000   0.314 >
      lattice:    a=      20.000 b=     20.000 c=      20.000
                  alpha=  90.000 beta=  90.000 gamma=  90.000
                  omega=      8000.0

      density cutoff=100.000  fft= 96x 96x 96(   191162 waves   191162 per task)
      wavefnc cutoff= 50.000  fft= 96x 96x 96(    67522 waves    67522 per task)

 technical parameters:
      time step=      5.80     fictitious mass=  400000.0
      tolerance=0.100E-08 (energy)   0.100E-08 (density)
      maximum iterations =      1000 (   10 inner    100 outer )





== Energy Calculation ==


          ============ Grassmann lmbfgs iteration ============
     >>>  ITERATION STARTED AT Thu May  1 22:54:02 2025  <<<
    iter.           Energy         DeltaE       DeltaRho 
    ------------------------------------------------------
      10   -0.7755627555E+00   -0.14689E-02    0.71989E-02
     -  10 steepest descent iterations performed
      20   -0.7801790595E+00   -0.12802E-03    0.54639E-04
      30   -0.7804460162E+00   -0.68594E-05    0.48686E-05
      40   -0.7804676179E+00   -0.43347E-06    0.11201E-06
      50   -0.7804691179E+00   -0.24140E-07    0.85885E-08
      60   -0.7804692002E+00   -0.21691E-08    0.12057E-09
      70   -0.7804692043E+00   -0.85167E-09    0.57534E-11
  *** tolerance ok. iteration terminated
     >>>  ITERATION ENDED   AT Thu May  1 22:55:50 2025  <<<


==  Summary Of Results  ==

 number of electrons: spin up=    1.00000  down=    1.00000 (real space)

 total     energy    :  -0.7804692043E+00 (   -0.39023E+00/ion)
 total orbital energy:  -0.5876429165E+00 (   -0.58764E+00/electron)
 hartree   energy    :   0.6208424640E+00 (    0.62084E+00/electron)
 exc-corr  energy    :   0.0000000000E+00 (    0.00000E+00/electron)
 HF exchange energy  :  -0.3104212320E+00 (   -0.31042E+00/electron)
 ion-ion   energy    :   0.1175949442E+00 (    0.58797E-01/ion)

 kinetic (planewave) :   0.6544696980E+00 (    0.65447E+00/electron)
 V_local (planewave) :  -0.1711106907E+01 (   -0.17111E+01/electron)
 V_nl    (planewave) :  -0.1518481717E+00 (   -0.15185E+00/electron)
 V_Coul  (planewave) :   0.1241684928E+01 (    0.12417E+01/electron)
 V_xc.   (planewave) :   0.0000000000E+00 (    0.00000E+00/electron)
 K.S. HFX energy     :  -0.6208424640E+00 (   -0.62084E+00/electron)
 Virial Coefficient  :  -0.9492725980E+00

 orbital energies:
    -0.2938215E+00 (  -7.995eV)


== Virtual Orbital Calculation ==


 input epsi filename:./pspw_hf_H2.emovecs
     orbital   1 current e=-0.168E+00 (error=0.944E-09) iterations  60(  43 preconditioned, Ep,Sp= 20.0  200.0)
     orbital   2 current e= 0.707E-02 (error=0.982E-09) iterations  86(  47 preconditioned, Ep,Sp= 20.0  200.0)
     orbital   3 current e= 0.474E-01 (error=0.867E-09) iterations  50(  14 preconditioned, Ep,Sp= 20.0  200.0)
     orbital   4 current e= 0.474E-01 (error=0.866E-09) iterations  50(  14 preconditioned, Ep,Sp= 20.0  200.0)
     orbital   5 current e= 0.473E-01 (error=0.971E-09) iterations 111(  37 preconditioned, Ep,Sp= 20.0  200.0)
     orbital   6 current e= 0.496E-01 (error=0.866E-09) iterations  19(   1 preconditioned, Ep,Sp= 20.0  200.0)
     orbital   7 current e= 0.571E-01 (error=0.878E-09) iterations  83(  40 preconditioned, Ep,Sp= 20.0  200.0)
     orbital   8 current e= 0.702E-01 (error=0.977E-09) iterations 113(  51 preconditioned, Ep,Sp= 20.0  200.0)
     orbital   9 current e= 0.933E-01 (error=0.849E-09) iterations 104(  59 preconditioned, Ep,Sp= 20.0  200.0)
     orbital  10 current e= 0.958E-01 (error=0.940E-09) iterations  63(  19 preconditioned, Ep,Sp= 20.0  200.0)
     orbital  11 current e= 0.958E-01 (error=0.940E-09) iterations  63(  19 preconditioned, Ep,Sp= 20.0  200.0)
     orbital  12 current e= 0.960E-01 (error=0.869E-09) iterations  62(  15 preconditioned, Ep,Sp= 20.0  200.0)
     orbital  13 current e= 0.960E-01 (error=0.869E-09) iterations  62(  15 preconditioned, Ep,Sp= 20.0  200.0)
     orbital  14 current e= 0.987E-01 (error=0.926E-09) iterations  37(   1 preconditioned, Ep,Sp= 20.0  200.0)
     orbital  15 current e= 0.986E-01 (error=0.981E-09) iterations  62(  16 preconditioned, Ep,Sp= 20.0  200.0)
     orbital  16 current e= 0.986E-01 (error=0.981E-09) iterations  62(  16 preconditioned, Ep,Sp= 20.0  200.0)
     orbital  17 current e= 0.988E-01 (error=0.940E-09) iterations  23(   1 preconditioned, Ep,Sp= 20.0  200.0)
     orbital  18 current e= 0.991E-01 (error=0.950E-09) iterations  24(   1 preconditioned, Ep,Sp= 20.0  200.0)

 virtual orbital energies:
     0.9912903E-01 (   2.697eV)
     0.9879666E-01 (   2.688eV)
     0.9865003E-01 (   2.684eV)
     0.9864868E-01 (   2.684eV)
     0.9864868E-01 (   2.684eV)
     0.9597394E-01 (   2.612eV)
     0.9597394E-01 (   2.612eV)
     0.9582866E-01 (   2.608eV)
     0.9582866E-01 (   2.608eV)
     0.9326183E-01 (   2.538eV)
     0.7021983E-01 (   1.911eV)
     0.5705220E-01 (   1.552eV)
     0.4956870E-01 (   1.349eV)
     0.4736857E-01 (   1.289eV)
     0.4736857E-01 (   1.289eV)
     0.4731313E-01 (   1.287eV)
     0.7070208E-02 (   0.192eV)
    -0.1684653E+00 (  -4.584eV)


 == Generating One-Electron and Two-Electron Integrals ==

 begin_one_electron_integrals
    1    1        -0.6042426902
    2    1         0.0000075673
    3    1         0.0210315087
    4    1        -0.0026499669
    5    1        -0.0000072648
    6    1        -0.0000000000
    7    1        -0.0000000000
    8    1        -0.0000015668
    9    1         0.0263952544
   10    1        -0.0014721209
   11    1         0.0000007872
   12    1         0.0000000000
   13    1         0.0000000000
   14    1         0.0000000028
   15    1         0.0000000000
   16    1         0.0000002700
   17    1        -0.0000000004
   18    1        -0.0000000418
   19    1        -0.0000000320
    2    2        -0.6013270126
    3    2         0.0000444261
    4    2        -0.0000838993
    5    2        -0.0000001955
    6    2        -0.0000000000
    7    2         0.0000000003
    8    2         0.0221774049
    9    2         0.0000542596
   10    2        -0.0000821063
   11    2        -0.0000000035
   12    2        -0.0000000000
   13    2         0.0000000000
   14    2         0.0000001791
   15    2         0.0000000000
   16    2        -0.0000000008
   17    2        -0.0000000000
   18    2        -0.0000000598
   19    2         0.0000001246
    3    3        -0.1888111891
    4    3        -0.0065579125
    5    3        -0.0000152273
    6    3        -0.0000000000
    7    3         0.0000000000
    8    3        -0.0000003486
    9    3        -0.0404359504
   10    3         0.0008175425
   11    3        -0.0000001699
   12    3        -0.0000000000
   13    3        -0.0000000000
   14    3        -0.0000000002
   15    3         0.0000000000
   16    3         0.0000000574
   17    3        -0.0000000004
   18    3         0.0000000344
   19    3         0.0000000261
    4    4        -0.1761846664
    5    4         0.0000121577
    6    4         0.0000000000
    7    4        -0.0000000000
    8    4         0.0000126998
    9    4        -0.0023995481
   10    4        -0.0568181932
   11    4        -0.0001162623
   12    4        -0.0000000001
   13    4        -0.0000000000
   14    4        -0.0000004691
   15    4        -0.0000000003
   16    4        -0.0000448089
   17    4         0.0000001047
   18    4        -0.0000000338
   19    4        -0.0000000236
    5    5        -0.1811386813
    6    5         0.0000000000
    7    5        -0.0000000000
    8    5         0.0000000388
    9    5        -0.0000052672
   10    5        -0.0001368681
   11    5         0.0476309346
   12    5         0.0000000100
   13    5         0.0000000026
   14    5         0.0001745707
   15    5         0.0000001425
   16    5         0.0187961209
   17    5        -0.0000449373
   18    5         0.0000000088
   19    5        -0.0000000012
    6    6        -0.1811387061
    7    6         0.0000116394
    8    6        -0.0000000000
    9    6        -0.0000000000
   10    6        -0.0000000000
   11    6        -0.0000000100
   12    6         0.0476310788
   13    6         0.0001745715
   14    6        -0.0000000026
   15    6        -0.0187962308
   16    6         0.0000001425
   17    6        -0.0000000000
   18    6        -0.0000001099
   19    6         0.0000030667
    7    7        -0.1501983926
    8    7         0.0000000003
    9    7         0.0000000003
   10    7         0.0000000086
   11    7        -0.0000000001
   12    7        -0.0000180301
   13    7        -0.0000000816
   14    7        -0.0000000002
   15    7         0.0000028472
   16    7        -0.0000000005
   17    7         0.0000000005
   18    7        -0.0001113980
   19    7        -0.0180869398
    8    8        -0.1413767118
    9    8        -0.0000040598
   10    8         0.0000205080
   11    8        -0.0000000102
   12    8         0.0000000000
   13    8         0.0000000000
   14    8         0.0000001575
   15    8        -0.0000000000
   16    8        -0.0000000034
   17    8         0.0000000000
   18    8         0.0000000795
   19    8        -0.0000001677
    9    9        -0.1293726212
   10    9        -0.0053952950
   11    9        -0.0000008085
   12    9        -0.0000000000
   13    9        -0.0000000000
   14    9        -0.0000000100
   15    9        -0.0000000000
   16    9        -0.0000001113
   17    9         0.0000000001
   18    9         0.0000000666
   19    9         0.0000000507
   10   10        -0.1419533505
   11   10        -0.0000012628
   12   10         0.0000000000
   13   10         0.0000000000
   14   10         0.0000000000
   15   10        -0.0000000000
   16   10         0.0000001523
   17   10        -0.0000000012
   18   10        -0.0000000404
   19   10        -0.0000000317
   11   11        -0.1291098777
   12   11        -0.0000000000
   13   11         0.0000000006
   14   11         0.0000409762
   15   11        -0.0000000636
   16   11        -0.0081565299
   17   11         0.0000188062
   18   11        -0.0000000071
   19   11         0.0000000014
   12   12        -0.1291098810
   13   12         0.0000409762
   14   12        -0.0000000006
   15   12         0.0081565519
   16   12        -0.0000000636
   17   12         0.0000000000
   18   12         0.0000000308
   19   12        -0.0000060060
   13   13        -0.1420771395
   14   13         0.0000000000
   15   13         0.0000183551
   16   13        -0.0000000004
   17   13         0.0000000000
   18   13        -0.0000035861
   19   13         0.0000000372
   14   14        -0.1420771397
   15   14        -0.0000000004
   16   14        -0.0000183549
   17   14         0.0000000411
   18   14         0.0000000031
   19   14        -0.0000000044
   15   15        -0.1172106588
   16   15        -0.0000000000
   17   15        -0.0000000001
   18   15        -0.0000000553
   19   15         0.0000062338
   16   16        -0.1172106894
   17   16        -0.0000124459
   18   16        -0.0000000090
   19   16         0.0000000017
   17   17        -0.1225781811
   18   17         0.0000000003
   19   17         0.0000000002
   18   18        -0.1049212387
   19   18         0.0000397711
   19   19        -0.0978529592
 end_one_electron_integrals

 begin_two_electron_integrals
    1    1    1    1        0.3104212320
    1    1    2    1       -0.0000075432
    1    1    3    1       -0.0210312442
    1    1    4    1        0.0026543439
    1    1    5    1        0.0000072749
    1    1    6    1        0.0000000000
    1    1    7    1        0.0000000000
    1    1    8    1        0.0000016020
    1    1    9    1       -0.0263940012
    1    1   10    1        0.0014647298
    1    1   11    1       -0.0000007873
    1    1   12    1       -0.0000000000
    1    1   13    1       -0.0000000000
    1    1   14    1       -0.0000000028
    1    1   15    1       -0.0000000000
    1    1   16    1       -0.0000002698
    1    1   17    1        0.0000000004
    1    1   18    1        0.0000000418
    1    1   19    1        0.0000000320
    1    1    2    2        0.3143781621
    1    1    3    2       -0.0000215921
    1    1    4    2        0.0000355214
    1    1    5    2        0.0000000807
    1    1    6    2        0.0000000000
    1    1    7    2       -0.0000000002
    1    1    8    2       -0.0198202310
    1    1    9    2       -0.0000231324
    1    1   10    2        0.0000327227
    1    1   11    2        0.0000000015
    1    1   12    2        0.0000000000
    1    1   13    2       -0.0000000000
    1    1   14    2       -0.0000001570
    1    1   15    2       -0.0000000000
    1    1   16    2        0.0000000008
    1    1   17    2        0.0000000000
    1    1   18    2        0.0000000534
    1    1   19    2       -0.0000001116
    1    1    3    3        0.0991882742
    1    1    4    3        0.0032040640
    1    1    5    3        0.0000077619
    1    1    6    3        0.0000000000
    1    1    7    3       -0.0000000000
    1    1    8    3        0.0000009948
    1    1    9    3        0.0218693051
    1    1   10    3       -0.0003700167
    1    1   11    3       -0.0000002311
    1    1   12    3       -0.0000000000
    1    1   13    3        0.0000000000
    1    1   14    3       -0.0000000018
    1    1   15    3       -0.0000000000
    1    1   16    3       -0.0000001097
    1    1   17    3        0.0000000005
    1    1   18    3       -0.0000000198
    1    1   19    3       -0.0000000151
    1    1    4    4        0.1128385070
    1    1    5    4       -0.0000060268
    1    1    6    4       -0.0000000000
    1    1    7    4        0.0000000000
    1    1    8    4       -0.0000079088
    1    1    9    4        0.0011457967
    1    1   10    4        0.0299669245
    1    1   11    4        0.0000608008
    1    1   12    4        0.0000000000
    1    1   13    4        0.0000000000
    1    1   14    4        0.0000002474
    1    1   15    4        0.0000000002
    1    1   16    4        0.0000229770
    1    1   17    4       -0.0000000537
    1    1   18    4        0.0000000182
    1    1   19    4        0.0000000127
    1    1    5    5        0.1152963982
    1    1    6    5       -0.0000000000
    1    1    7    5        0.0000000000
    1    1    8    5       -0.0000000220
    1    1    9    5        0.0000023471
    1    1   10    5        0.0000720248
    1    1   11    5       -0.0249601612
    1    1   12    5       -0.0000000052
    1    1   13    5       -0.0000000014
    1    1   14    5       -0.0000919278
    1    1   15    5       -0.0000000733
    1    1   16    5       -0.0096616374
    1    1   17    5        0.0000231361
    1    1   18    5       -0.0000000046
    1    1   19    5        0.0000000006
    1    1    6    6        0.1152964105
    1    1    7    6       -0.0000056958
    1    1    8    6        0.0000000000
    1    1    9    6        0.0000000000
    1    1   10    6        0.0000000000
    1    1   11    6        0.0000000052
    1    1   12    6       -0.0249602358
    1    1   13    6       -0.0000919282
    1    1   14    6        0.0000000014
    1    1   15    6        0.0096616936
    1    1   16    6       -0.0000000733
    1    1   17    6        0.0000000000
    1    1   18    6        0.0000000571
    1    1   19    6       -0.0000015243
    1    1    7    7        0.0999546748
    1    1    8    7       -0.0000000002
    1    1    9    7       -0.0000000001
    1    1   10    7       -0.0000000043
    1    1   11    7        0.0000000000
    1    1   12    7        0.0000089756
    1    1   13    7        0.0000000397
    1    1   14    7        0.0000000001
    1    1   15    7       -0.0000013892
    1    1   16    7        0.0000000002
    1    1   17    7       -0.0000000002
    1    1   18    7        0.0000559362
    1    1   19    7        0.0090735517
    1    1    8    8        0.1002613992
    1    1    9    8        0.0000026584
    1    1   10    8       -0.0000119627
    1    1   11    8        0.0000000056
    1    1   12    8       -0.0000000000
    1    1   13    8       -0.0000000000
    1    1   14    8       -0.0000002117
    1    1   15    8        0.0000000000
    1    1   16    8        0.0000000024
    1    1   17    8       -0.0000000000
    1    1   18    8       -0.0000000422
    1    1   19    8        0.0000000889
    1    1    9    9        0.1020099858
    1    1   10    9        0.0027984716
    1    1   11    9        0.0000003643
    1    1   12    9        0.0000000000
    1    1   13    9        0.0000000000
    1    1   14    9        0.0000000052
    1    1   15    9        0.0000000000
    1    1   16    9        0.0000000423
    1    1   17    9       -0.0000000001
    1    1   18    9       -0.0000000370
    1    1   19    9       -0.0000000282
    1    1   10   10        0.1198743015
    1    1   11   10        0.0000006278
    1    1   12   10       -0.0000000000
    1    1   13   10       -0.0000000000
    1    1   14   10       -0.0000000004
    1    1   15   10        0.0000000000
    1    1   16   10       -0.0000000753
    1    1   17   10        0.0000000006
    1    1   18   10        0.0000000199
    1    1   19   10        0.0000000156
    1    1   11   11        0.1137723778
    1    1   12   11        0.0000000000
    1    1   13   11       -0.0000000003
    1    1   14   11       -0.0000192715
    1    1   15   11        0.0000000341
    1    1   16   11        0.0043783562
    1    1   17   11       -0.0000100532
    1    1   18   11        0.0000000037
    1    1   19   11       -0.0000000007
    1    1   12   12        0.1137723795
    1    1   13   12       -0.0000192715
    1    1   14   12        0.0000000003
    1    1   15   12       -0.0043783680
    1    1   16   12        0.0000000341
    1    1   17   12       -0.0000000000
    1    1   18   12       -0.0000000172
    1    1   19   12        0.0000030289
    1    1   13   13        0.1201299086
    1    1   14   13       -0.0000000000
    1    1   15   13       -0.0000088089
    1    1   16   13        0.0000000002
    1    1   17   13       -0.0000000000
    1    1   18   13        0.0000017089
    1    1   19   13       -0.0000000176
    1    1   14   14        0.1201299087
    1    1   15   14        0.0000000002
    1    1   16   14        0.0000088088
    1    1   17   14       -0.0000000196
    1    1   18   14       -0.0000000016
    1    1   19   14        0.0000000023
    1    1   15   15        0.1081691716
    1    1   16   15        0.0000000000
    1    1   17   15        0.0000000000
    1    1   18   15        0.0000000281
    1    1   19   15       -0.0000031101
    1    1   16   16        0.1081691865
    1    1   17   16        0.0000060563
    1    1   18   16        0.0000000046
    1    1   19   16       -0.0000000009
    1    1   17   17        0.1107889169
    1    1   18   17       -0.0000000002
    1    1   19   17       -0.0000000001
    1    1   18   18        0.1019305657
    1    1   19   18       -0.0000201881
    1    1   19   19        0.0985265531
    2    1    2    1        0.1958945714
    2    1    3    1        0.0000011219
    2    1    4    1       -0.0000128314
    2    1    5    1       -0.0000000340
    2    1    6    1        0.0000000000
    2    1    7    1       -0.0000000002
    2    1    8    1       -0.0174658816
    2    1    9    1        0.0000080042
    2    1   10    1       -0.0000166969
    2    1   11    1       -0.0000000005
    2    1   12    1        0.0000000000
    2    1   13    1       -0.0000000000
    2    1   14    1       -0.0000001346
    2    1   15    1       -0.0000000000
    2    1   16    1        0.0000000007
    2    1   17    1        0.0000000000
    2    1   18    1        0.0000000469
    2    1   19    1       -0.0000000984
    2    1    2    2       -0.0000131795
    2    1    3    2       -0.0198766015
    2    1    4    2       -0.0064393723
    2    1    5    2       -0.0000141322
    2    1    6    2       -0.0000000000
    2    1    7    2        0.0000000000
    2    1    8    2        0.0000069002
    2    1    9    2       -0.0262170014
    2    1   10    2       -0.0110552626
    2    1   11    2       -0.0000015813
    2    1   12    2       -0.0000000000
    2    1   13    2       -0.0000000000
    2    1   14    2       -0.0000000149
    2    1   15    2       -0.0000000000
    2    1   16    2       -0.0000003607
    2    1   17    2        0.0000000001
    2    1   18    2        0.0000000334
    2    1   19    2        0.0000000262
    2    1    3    3        0.0002454202
    2    1    4    3       -0.0003376120
    2    1    5    3       -0.0000007974
    2    1    6    3       -0.0000000000
    2    1    7    3       -0.0000000000
    2    1    8    3        0.0191753900
    2    1    9    3        0.0000548082
    2    1   10    3       -0.0000414591
    2    1   11    3        0.0000000000
    2    1   12    3       -0.0000000000
    2    1   13    3       -0.0000000000
    2    1   14    3       -0.0000005305
    2    1   15    3        0.0000000000
    2    1   16    3        0.0000000048
    2    1   17    3       -0.0000000000
    2    1   18    3       -0.0000000259
    2    1   19    3        0.0000000539
    2    1    4    4        0.0005490541
    2    1    5    4        0.0000007419
    2    1    6    4        0.0000000000
    2    1    7    4       -0.0000000001
    2    1    8    4       -0.0037130588
    2    1    9    4       -0.0002090040
    2    1   10    4        0.0002588559
    2    1   11    4       -0.0000001742
    2    1   12    4       -0.0000000000
    2    1   13    4        0.0000000010
    2    1   14    4        0.0000662095
    2    1   15    4       -0.0000000000
    2    1   16    4       -0.0000008597
    2    1   17    4        0.0000000020
    2    1   18    4        0.0000000171
    2    1   19    4       -0.0000000340
    2    1    5    5        0.0002381853
    2    1    6    5       -0.0000000000
    2    1    7    5       -0.0000000000
    2    1    8    5       -0.0000091201
    2    1    9    5       -0.0000004949
    2    1   10    5        0.0000006403
    2    1   11    5        0.0000778003
    2    1   12    5        0.0000000000
    2    1   13    5       -0.0000004219
    2    1   14    5       -0.0280021716
    2    1   15    5        0.0000000027
    2    1   16    5        0.0003621540
    2    1   17    5       -0.0000008460
    2    1   18    5        0.0000000009
    2    1   19    5       -0.0000000012
    2    1    6    6        0.0002381835
    2    1    7    6       -0.0000000152
    2    1    8    6       -0.0000000000
    2    1    9    6       -0.0000000000
    2    1   10    6       -0.0000000000
    2    1   11    6       -0.0000000000
    2    1   12    6        0.0000778007
    2    1   13    6       -0.0280022480
    2    1   14    6        0.0000004219
    2    1   15    6       -0.0003621560
    2    1   16    6        0.0000000027
    2    1   17    6       -0.0000000000
    2    1   18    6        0.0000044805
    2    1   19    6       -0.0000000278
    2    1    7    7        0.0002070949
    2    1    8    7        0.0000000005
    2    1    9    7        0.0000000000
    2    1   10    7       -0.0000000116
    2    1   11    7       -0.0000000003
    2    1   12    7        0.0000000017
    2    1   13    7        0.0000093702
    2    1   14    7       -0.0000000003
    2    1   15    7       -0.0000000611
    2    1   16    7       -0.0000000061
    2    1   17    7        0.0000000008
    2    1   18    7        0.0177162966
    2    1   19    7       -0.0003974727
    2    1    8    8        0.0000028031
    2    1    9    8        0.0099288524
    2    1   10    8        0.0009365151
    2    1   11    8        0.0000002315
    2    1   12    8        0.0000000000
    2    1   13    8        0.0000000000
    2    1   14    8        0.0000000082
    2    1   15    8        0.0000000000
    2    1   16    8        0.0000001289
    2    1   17    8       -0.0000000002
    2    1   18    8       -0.0000000089
    2    1   19    8       -0.0000000071
    2    1    9    9        0.0003051562
    2    1   10    9       -0.0003374648
    2    1   11    9       -0.0000000136
    2    1   12    9       -0.0000000000
    2    1   13    9       -0.0000000000
    2    1   14    9       -0.0000003068
    2    1   15    9        0.0000000000
    2    1   16    9        0.0000000021
    2    1   17    9       -0.0000000000
    2    1   18    9       -0.0000000468
    2    1   19    9        0.0000000971
    2    1   10   10        0.0005261210
    2    1   11   10        0.0000000029
    2    1   12   10       -0.0000000000
    2    1   13   10       -0.0000000000
    2    1   14   10       -0.0000009204
    2    1   15   10        0.0000000000
    2    1   16   10        0.0000000066
    2    1   17   10       -0.0000000000
    2    1   18   10        0.0000000097
    2    1   19   10       -0.0000000125
    2    1   11   11        0.0001032071
    2    1   12   11       -0.0000000000
    2    1   13   11        0.0000002182
    2    1   14   11        0.0146874238
    2    1   15   11       -0.0000000003
    2    1   16   11       -0.0000399460
    2    1   17   11        0.0000000945
    2    1   18   11       -0.0000000018
    2    1   19   11        0.0000000026
    2    1   12   12        0.0001032070
    2    1   13   12        0.0146874245
    2    1   14   12       -0.0000002182
    2    1   15   12        0.0000399461
    2    1   16   12       -0.0000000003
    2    1   17   12        0.0000000000
    2    1   18   12        0.0000019909
    2    1   19   12       -0.0000000647
    2    1   13   13        0.0001008509
    2    1   14   13       -0.0000000000
    2    1   15   13        0.0038818058
    2    1   16   13       -0.0000000879
    2    1   17   13        0.0000000001
    2    1   18   13        0.0000000446
    2    1   19   13        0.0000008906
    2    1   14   14        0.0001008508
    2    1   15   14       -0.0000000879
    2    1   16   14       -0.0038817954
    2    1   17   14        0.0000088926
    2    1   18   14       -0.0000000010
    2    1   19   14        0.0000000000
    2    1   15   15        0.0005040734
    2    1   16   15        0.0000000000
    2    1   17   15       -0.0000000000
    2    1   18   15       -0.0000004170
    2    1   19   15        0.0000000026
    2    1   16   16        0.0005040720
    2    1   17   16       -0.0000006019
    2    1   18   16        0.0000000003
    2    1   19   16        0.0000000007
    2    1   17   17        0.0002454182
    2    1   18   17        0.0000000007
    2    1   19   17       -0.0000000012
    2    1   18   18       -0.0000283949
    2    1   19   18       -0.0026369680
    2    1   19   19        0.0004352172
    3    1    3    1        0.0024951515
    3    1    4    1       -0.0001305458
    3    1    5    1        0.0000003405
    3    1    6    1        0.0000000000
    3    1    7    1       -0.0000000000
    3    1    8    1        0.0000016690
    3    1    9    1        0.0032972004
    3    1   10    1        0.0000739587
    3    1   11    1       -0.0000006330
    3    1   12    1       -0.0000000000
    3    1   13    1       -0.0000000000
    3    1   14    1       -0.0000000039
    3    1   15    1       -0.0000000000
    3    1   16    1       -0.0000001621
    3    1   17    1        0.0000000006
    3    1   18    1       -0.0000000052
    3    1   19    1       -0.0000000040
    3    1    2    2       -0.0216279488
    3    1    3    2        0.0000042887
    3    1    4    2       -0.0000068806
    3    1    5    2       -0.0000000141
    3    1    6    2       -0.0000000000
    3    1    7    2        0.0000000000
    3    1    8    2        0.0023764738
    3    1    9    2        0.0000054747
    3    1   10    2       -0.0000074600
    3    1   11    2        0.0000000009
    3    1   12    2       -0.0000000000
    3    1   13    2       -0.0000000000
    3    1   14    2       -0.0000007759
    3    1   15    2        0.0000000000
    3    1   16    2        0.0000000011
    3    1   17    2       -0.0000000000
    3    1   18    2       -0.0000000067
    3    1   19    2        0.0000000140
    3    1    3    3       -0.0005699749
    3    1    4    3       -0.0000461663
    3    1    5    3        0.0000039422
    3    1    6    3        0.0000000000
    3    1    7    3        0.0000000000
    3    1    8    3        0.0000102699
    3    1    9    3       -0.0008014711
    3    1   10    3       -0.0000477549
    3    1   11    3       -0.0000001142
    3    1   12    3       -0.0000000000
    3    1   13    3       -0.0000000000
    3    1   14    3       -0.0000000102
    3    1   15    3       -0.0000000000
    3    1   16    3       -0.0000004021
    3    1   17    3        0.0000000037
    3    1   18    3        0.0000000012
    3    1   19    3        0.0000000010
    3    1    4    4       -0.0009284782
    3    1    5    4        0.0000006689
    3    1    6    4        0.0000000000
    3    1    7    4       -0.0000000000
    3    1    8    4       -0.0000036546
    3    1    9    4       -0.0000560449
    3    1   10    4       -0.0012230934
    3    1   11    4       -0.0000023549
    3    1   12    4       -0.0000000000
    3    1   13    4        0.0000000000
    3    1   14    4        0.0000000200
    3    1   15    4       -0.0000000000
    3    1   16    4       -0.0000046544
    3    1   17    4        0.0000000019
    3    1   18    4       -0.0000000009
    3    1   19    4       -0.0000000006
    3    1    5    5       -0.0008994920
    3    1    6    5       -0.0000000000
    3    1    7    5       -0.0000000000
    3    1    8    5        0.0000000005
    3    1    9    5        0.0000006864
    3    1   10    5       -0.0000027944
    3    1   11    5        0.0009406149
    3    1   12    5        0.0000000002
    3    1   13    5       -0.0000000001
    3    1   14    5       -0.0000089331
    3    1   15    5        0.0000000023
    3    1   16    5        0.0003075158
    3    1   17    5        0.0000033711
    3    1   18    5        0.0000000002
    3    1   19    5       -0.0000000000
    3    1    6    6       -0.0008994983
    3    1    7    6        0.0000021353
    3    1    8    6       -0.0000000000
    3    1    9    6        0.0000000000
    3    1   10    6       -0.0000000000
    3    1   11    6       -0.0000000002
    3    1   12    6        0.0009406143
    3    1   13    6       -0.0000089331
    3    1   14    6        0.0000000001
    3    1   15    6       -0.0003075183
    3    1   16    6        0.0000000023
    3    1   17    6        0.0000000000
    3    1   18    6        0.0000000086
    3    1   19    6        0.0000004724
    3    1    7    7       -0.0002199734
    3    1    8    7       -0.0000000000
    3    1    9    7        0.0000000000
    3    1   10    7        0.0000000001
    3    1   11    7        0.0000000000
    3    1   12    7       -0.0000032994
    3    1   13    7       -0.0000000121
    3    1   14    7       -0.0000000000
    3    1   15    7        0.0000000205
    3    1   16    7       -0.0000000000
    3    1   17    7        0.0000000000
    3    1   18    7        0.0000102065
    3    1   19    7       -0.0001503564
    3    1    8    8       -0.0005498824
    3    1    9    8        0.0000007832
    3    1   10    8        0.0000012731
    3    1   11    8        0.0000000144
    3    1   12    8        0.0000000000
    3    1   13    8       -0.0000000001
    3    1   14    8       -0.0000041532
    3    1   15    8       -0.0000000000
    3    1   16    8        0.0000000069
    3    1   17    8       -0.0000000000
    3    1   18    8        0.0000000016
    3    1   19    8       -0.0000000033
    3    1    9    9       -0.0011072616
    3    1   10    9       -0.0001114136
    3    1   11    9       -0.0000029828
    3    1   12    9       -0.0000000000
    3    1   13    9       -0.0000000000
    3    1   14    9       -0.0000000120
    3    1   15    9       -0.0000000000
    3    1   16    9       -0.0000006733
    3    1   17    9        0.0000000009
    3    1   18    9        0.0000000018
    3    1   19    9        0.0000000014
    3    1   10   10       -0.0017475031
    3    1   11   10       -0.0000009600
    3    1   12   10       -0.0000000000
    3    1   13   10        0.0000000000
    3    1   14   10       -0.0000000047
    3    1   15   10        0.0000000000
    3    1   16   10        0.0000007922
    3    1   17   10       -0.0000000024
    3    1   18   10       -0.0000000011
    3    1   19   10       -0.0000000008
    3    1   11   11       -0.0011142285
    3    1   12   11       -0.0000000000
    3    1   13   11        0.0000000000
    3    1   14   11        0.0000017401
    3    1   15   11       -0.0000000023
    3    1   16   11       -0.0002985000
    3    1   17   11        0.0000024452
    3    1   18   11       -0.0000000002
    3    1   19   11        0.0000000000
    3    1   12   12       -0.0011142298
    3    1   13   12        0.0000017401
    3    1   14   12       -0.0000000000
    3    1   15   12        0.0002985045
    3    1   16   12       -0.0000000023
    3    1   17   12        0.0000000000
    3    1   18   12       -0.0000000019
    3    1   19   12       -0.0000008738
    3    1   13   13       -0.0011373064
    3    1   14   13        0.0000000000
    3    1   15   13        0.0000066141
    3    1   16   13       -0.0000000001
    3    1   17   13        0.0000000000
    3    1   18   13       -0.0000020527
    3    1   19   13        0.0000000104
    3    1   14   14       -0.0011373021
    3    1   15   14       -0.0000000001
    3    1   16   14       -0.0000066141
    3    1   17   14        0.0000000116
    3    1   18   14        0.0000000001
    3    1   19   14       -0.0000000001
    3    1   15   15       -0.0005390738
    3    1   16   15        0.0000000000
    3    1   17   15       -0.0000000000
    3    1   18   15        0.0000000042
    3    1   19   15        0.0000018141
    3    1   16   16       -0.0005390735
    3    1   17   16       -0.0000007320
    3    1   18   16       -0.0000000002
    3    1   19   16        0.0000000000
    3    1   17   17       -0.0005015821
    3    1   18   17        0.0000000000
    3    1   19   17        0.0000000000
    3    1   18   18       -0.0002469274
    3    1   19   18       -0.0000042218
    3    1   19   19       -0.0002016245
    4    1    4    1        0.0021792181
    4    1    5    1        0.0000004965
    4    1    6    1        0.0000000000
    4    1    7    1        0.0000000000
    4    1    8    1       -0.0000036086
    4    1    9    1       -0.0001040955
    4    1   10    1        0.0031043797
    4    1   11    1        0.0000053369
    4    1   12    1        0.0000000000
    4    1   13    1        0.0000000000
    4    1   14    1        0.0000000257
    4    1   15    1        0.0000000000
    4    1   16    1        0.0000011448
    4    1   17    1       -0.0000000027
    4    1   18    1        0.0000000026
    4    1   19    1        0.0000000018
    4    1    2    2        0.0014974196
    4    1    3    2       -0.0000040180
    4    1    4    2        0.0000091179
    4    1    5    2        0.0000000170
    4    1    6    2        0.0000000000
    4    1    7    2       -0.0000000000
    4    1    8    2       -0.0001503510
    4    1    9    2       -0.0000060311
    4    1   10    2        0.0000111935
    4    1   11    2       -0.0000000133
    4    1   12    2       -0.0000000000
    4    1   13    2        0.0000000001
    4    1   14    2        0.0000051814
    4    1   15    2       -0.0000000000
    4    1   16    2       -0.0000000055
    4    1   17    2        0.0000000000
    4    1   18    2        0.0000000011
    4    1   19    2       -0.0000000022
    4    1    3    3        0.0009052723
    4    1    4    3        0.0019501191
    4    1    5    3       -0.0000023496
    4    1    6    3       -0.0000000000
    4    1    7    3        0.0000000000
    4    1    8    3       -0.0000229175
    4    1    9    3        0.0003078500
    4    1   10    3        0.0005641759
    4    1   11    3        0.0000016411
    4    1   12    3        0.0000000000
    4    1   13    3        0.0000000000
    4    1   14    3        0.0000000247
    4    1   15    3        0.0000000000
    4    1   16    3        0.0000001013
    4    1   17    3       -0.0000000013
    4    1   18    3        0.0000000001
    4    1   19    3        0.0000000000
    4    1    4    4        0.0007263684
    4    1    5    4       -0.0000023513
    4    1    6    4       -0.0000000000
    4    1    7    4       -0.0000000000
    4    1    8    4        0.0000091584
    4    1    9    4        0.0018790389
    4    1   10    4       -0.0003361996
    4    1   11    4        0.0000018347
    4    1   12    4        0.0000000000
    4    1   13    4       -0.0000000000
    4    1   14    4       -0.0000000581
    4    1   15    4        0.0000000001
    4    1   16    4        0.0000143417
    4    1   17    4       -0.0000000140
    4    1   18    4       -0.0000000031
    4    1   19    4       -0.0000000023
    4    1    5    5        0.0014159293
    4    1    6    5       -0.0000000000
    4    1    7    5        0.0000000000
    4    1    8    5        0.0000000038
    4    1    9    5        0.0000004614
    4    1   10    5       -0.0000017553
    4    1   11    5       -0.0005980454
    4    1   12    5       -0.0000000001
    4    1   13    5        0.0000000004
    4    1   14    5        0.0000238737
    4    1   15    5       -0.0000000210
    4    1   16    5       -0.0027670466
    4    1   17    5       -0.0000017314
    4    1   18    5       -0.0000000012
    4    1   19    5        0.0000000001
    4    1    6    6        0.0014159358
    4    1    7    6       -0.0000028941
    4    1    8    6       -0.0000000000
    4    1    9    6        0.0000000000
    4    1   10    6       -0.0000000000
    4    1   11    6        0.0000000001
    4    1   12    6       -0.0005980455
    4    1   13    6        0.0000238738
    4    1   14    6       -0.0000000004
    4    1   15    6        0.0027670608
    4    1   16    6       -0.0000000210
    4    1   17    6       -0.0000000000
    4    1   18    6        0.0000000038
    4    1   19    6       -0.0000003005
    4    1    7    7        0.0012379910
    4    1    8    7       -0.0000000001
    4    1    9    7       -0.0000000000
    4    1   10    7       -0.0000000009
    4    1   11    7        0.0000000000
    4    1   12    7        0.0000053393
    4    1   13    7        0.0000000196
    4    1   14    7        0.0000000000
    4    1   15    7       -0.0000001619
    4    1   16    7        0.0000000001
    4    1   17    7       -0.0000000001
    4    1   18    7       -0.0000124719
    4    1   19    7        0.0018713102
    4    1    8    8        0.0010619005
    4    1    9    8       -0.0000036331
    4    1   10    8       -0.0000006707
    4    1   11    8       -0.0000000249
    4    1   12    8       -0.0000000000
    4    1   13    8        0.0000000001
    4    1   14    8        0.0000074065
    4    1   15    8        0.0000000000
    4    1   16    8       -0.0000000141
    4    1   17    8        0.0000000000
    4    1   18    8       -0.0000000000
    4    1   19    8        0.0000000001
    4    1    9    9        0.0008127047
    4    1   10    9        0.0020483059
    4    1   11    9        0.0000054831
    4    1   12    9        0.0000000000
    4    1   13    9        0.0000000000
    4    1   14    9        0.0000000257
    4    1   15    9        0.0000000000
    4    1   16    9        0.0000011048
    4    1   17    9       -0.0000000028
    4    1   18    9        0.0000000009
    4    1   19    9        0.0000000005
    4    1   10   10        0.0006054570
    4    1   11   10        0.0000014956
    4    1   12   10        0.0000000000
    4    1   13   10       -0.0000000000
    4    1   14   10        0.0000000066
    4    1   15   10        0.0000000000
    4    1   16   10        0.0000022154
    4    1   17   10       -0.0000000056
    4    1   18   10       -0.0000000044
    4    1   19   10       -0.0000000034
    4    1   11   11        0.0016557011
    4    1   12   11       -0.0000000000
    4    1   13   11       -0.0000000000
    4    1   14   11       -0.0000028882
    4    1   15   11        0.0000000107
    4    1   16   11        0.0013689786
    4    1   17   11       -0.0000029325
    4    1   18   11        0.0000000008
    4    1   19   11       -0.0000000001
    4    1   12   12        0.0016557006
    4    1   13   12       -0.0000028882
    4    1   14   12        0.0000000000
    4    1   15   12       -0.0013689815
    4    1   16   12        0.0000000107
    4    1   17   12       -0.0000000000
    4    1   18   12       -0.0000000012
    4    1   19   12        0.0000014669
    4    1   13   13        0.0011456960
    4    1   14   13       -0.0000000000
    4    1   15   13       -0.0000175813
    4    1   16   13        0.0000000004
    4    1   17   13       -0.0000000000
    4    1   18   13        0.0000031893
    4    1   19   13       -0.0000000147
    4    1   14   14        0.0011456950
    4    1   15   14        0.0000000004
    4    1   16   14        0.0000175813
    4    1   17   14       -0.0000000203
    4    1   18   14       -0.0000000001
    4    1   19   14        0.0000000000
    4    1   15   15        0.0013567860
    4    1   16   15        0.0000000000
    4    1   17   15        0.0000000000
    4    1   18   15       -0.0000000054
    4    1   19   15       -0.0000024855
    4    1   16   16        0.0013567912
    4    1   17   16        0.0000011411
    4    1   18   16        0.0000000001
    4    1   19   16        0.0000000000
    4    1   17   17        0.0013690960
    4    1   18   17        0.0000000000
    4    1   19   17       -0.0000000001
    4    1   18   18        0.0011723956
    4    1   19   18        0.0000107884
    4    1   19   19        0.0014216896
    5    1    5    1        0.0020855468
    5    1    6    1        0.0000000000
    5    1    7    1        0.0000000000
    5    1    8    1       -0.0000000079
    5    1    9    1       -0.0000001876
    5    1   10    1        0.0000075121
    5    1   11    1       -0.0022983959
    5    1   12    1       -0.0000000005
    5    1   13    1       -0.0000000001
    5    1   14    1       -0.0000093143
    5    1   15    1       -0.0000000040
    5    1   16    1       -0.0005292437
    5    1   17    1        0.0000013401
    5    1   18    1       -0.0000000003
    5    1   19    1        0.0000000001
    5    1    2    2        0.0000045860
    5    1    3    2       -0.0000000073
    5    1    4    2        0.0000000180
    5    1    5    2        0.0000013355
    5    1    6    2       -0.0000000000
    5    1    7    2       -0.0000000000
    5    1    8    2        0.0000001996
    5    1    9    2       -0.0000000140
    5    1   10    2        0.0000000300
    5    1   11    2        0.0000068413
    5    1   12    2        0.0000000000
    5    1   13    2       -0.0000000349
    5    1   14    2       -0.0023143672
    5    1   15    2        0.0000000000
    5    1   16    2        0.0000022669
    5    1   17    2       -0.0000000051
    5    1   18    2        0.0000000001
    5    1   19    2       -0.0000000002
    5    1    3    3        0.0000663673
    5    1    4    3        0.0000136638
    5    1    5    3        0.0035839772
    5    1    6    3       -0.0000000000
    5    1    7    3       -0.0000000000
    5    1    8    3        0.0000000152
    5    1    9    3       -0.0000242680
    5    1   10    3       -0.0000022972
    5    1   11    3       -0.0007079036
    5    1   12    3       -0.0000000001
    5    1   13    3       -0.0000000001
    5    1   14    3       -0.0000064180
    5    1   15    3       -0.0000000028
    5    1   16    3       -0.0003723546
    5    1   17    3        0.0000020097
    5    1   18    3       -0.0000000001
    5    1   19    3        0.0000000000
    5    1    4    4        0.0000425798
    5    1    5    4        0.0006195810
    5    1    6    4       -0.0000000000
    5    1    7    4       -0.0000000000
    5    1    8    4        0.0000000114
    5    1    9    4        0.0000024620
    5    1   10    4       -0.0000406444
    5    1   11    4       -0.0002436198
    5    1   12    4       -0.0000000000
    5    1   13    4       -0.0000000000
    5    1   14    4       -0.0000015821
    5    1   15    4       -0.0000000298
    5    1   16    4       -0.0039285180
    5    1   17    4       -0.0000002867
    5    1   18    4       -0.0000000016
    5    1   19    4        0.0000000001
    5    1    5    5        0.0000281164
    5    1    6    5        0.0000000000
    5    1    7    5       -0.0000000011
    5    1    8    5        0.0000036270
    5    1    9    5        0.0018491302
    5    1   10    5        0.0003656689
    5    1   11    5        0.0000306846
    5    1   12    5        0.0000000000
    5    1   13    5        0.0000000000
    5    1   14    5        0.0000001360
    5    1   15    5       -0.0000000001
    5    1   16    5       -0.0000137149
    5    1   17    5        0.0041259601
    5    1   18    5       -0.0000000021
    5    1   19    5       -0.0000000016
    5    1    6    6        0.0000247302
    5    1    7    6        0.0014970353
    5    1    8    6       -0.0000000000
    5    1    9    6       -0.0000000000
    5    1   10    6       -0.0000000002
    5    1   11    6        0.0000000000
    5    1   12    6        0.0000292423
    5    1   13    6        0.0000001379
    5    1   14    6        0.0000000000
    5    1   15    6        0.0000137167
    5    1   16    6       -0.0000000001
    5    1   17    6        0.0000000030
    5    1   18    6        0.0000034637
    5    1   19    6        0.0003348024
    5    1    7    7        0.0000888552
    5    1    8    7       -0.0000000000
    5    1    9    7       -0.0000000000
    5    1   10    7       -0.0000000000
    5    1   11    7        0.0000000025
    5    1   12    7       -0.0027232904
    5    1   13    7       -0.0000108127
    5    1   14    7        0.0000000002
    5    1   15    7       -0.0000366613
    5    1   16    7        0.0000000002
    5    1   17    7       -0.0000000000
    5    1   18    7        0.0000001513
    5    1   19    7        0.0000187012
    5    1    8    8        0.0000709329
    5    1    9    8       -0.0000000475
    5    1   10    8        0.0000000315
    5    1   11    8        0.0000129190
    5    1   12    8        0.0000000000
    5    1   13    8       -0.0000000569
    5    1   14    8       -0.0037751859
    5    1   15    8       -0.0000000000
    5    1   16    8        0.0000049428
    5    1   17    8       -0.0000000097
    5    1   18    8        0.0000000000
    5    1   19    8       -0.0000000001
    5    1    9    9        0.0000765432
    5    1   10    9        0.0000205782
    5    1   11    9       -0.0027451626
    5    1   12    9       -0.0000000006
    5    1   13    9       -0.0000000002
    5    1   14    9       -0.0000112641
    5    1   15    9       -0.0000000048
    5    1   16    9       -0.0006335011
    5    1   17    9        0.0000014985
    5    1   18    9       -0.0000000003
    5    1   19    9        0.0000000001
    5    1   10   10        0.0000629483
    5    1   11   10       -0.0008778971
    5    1   12   10        0.0000000002
    5    1   13   10        0.0000000010
    5    1   14   10       -0.0000031568
    5    1   15   10       -0.0000000069
    5    1   16   10       -0.0008349272
    5    1   17   10        0.0000018967
    5    1   18   10       -0.0000000007
    5    1   19   10        0.0000000001
    5    1   11   11        0.0000530057
    5    1   12   11        0.0000000000
    5    1   13   11        0.0000000000
    5    1   14   11        0.0000000454
    5    1   15   11       -0.0000000000
    5    1   16   11       -0.0000053117
    5    1   17   11        0.0001411896
    5    1   18   11        0.0000000014
    5    1   19   11        0.0000000018
    5    1   12   12        0.0000530643
    5    1   13   12        0.0000000537
    5    1   14   12       -0.0000000000
    5    1   15   12        0.0000052611
    5    1   16   12       -0.0000000001
    5    1   17   12        0.0000000002
    5    1   18   12       -0.0000015419
    5    1   19   12       -0.0007342141
    5    1   13   13        0.0000227011
    5    1   14   13        0.0000000000
    5    1   15   13        0.0000000014
    5    1   16   13        0.0000000006
    5    1   17   13       -0.0000000001
    5    1   18   13       -0.0016346460
    5    1   19   13        0.0000074146
    5    1   14   14        0.0000242274
    5    1   15   14        0.0000000000
    5    1   16   14       -0.0000000014
    5    1   17   14       -0.0000041800
    5    1   18   14        0.0000000299
    5    1   19   14       -0.0000000087
    5    1   15   15        0.0000277180
    5    1   16   15        0.0000000000
    5    1   17   15       -0.0000000059
    5    1   18   15        0.0000055199
    5    1   19   15        0.0012406439
    5    1   16   16        0.0000249486
    5    1   17   16       -0.0008513629
    5    1   18   16        0.0000000004
    5    1   19   16       -0.0000000080
    5    1   17   17        0.0000072227
    5    1   18   17       -0.0000000003
    5    1   19   17        0.0000000000
    5    1   18   18        0.0000918439
    5    1   19   18       -0.0000000226
    5    1   19   19        0.0000883479
    6    1    6    1        0.0020855455
    6    1    7    1        0.0000002420
    6    1    8    1       -0.0000000000
    6    1    9    1       -0.0000000000
    6    1   10    1        0.0000000000
    6    1   11    1        0.0000000005
    6    1   12    1       -0.0022984027
    6    1   13    1       -0.0000093144
    6    1   14    1        0.0000000001
    6    1   15    1        0.0005292468
    6    1   16    1       -0.0000000040
    6    1   17    1        0.0000000000
    6    1   18    1        0.0000000044
    6    1   19    1        0.0000000171
    6    1    2    2        0.0000000000
    6    1    3    2       -0.0000000000
    6    1    4    2       -0.0000000000
    6    1    5    2       -0.0000000000
    6    1    6    2        0.0000013355
    6    1    7    2        0.0000000021
    6    1    8    2        0.0000000000
    6    1    9    2       -0.0000000000
    6    1   10    2       -0.0000000000
    6    1   11    2       -0.0000000000
    6    1   12    2        0.0000068413
    6    1   13    2       -0.0023143733
    6    1   14    2        0.0000000349
    6    1   15    2       -0.0000022669
    6    1   16    2        0.0000000000
    6    1   17    2        0.0000000000
    6    1   18    2        0.0000007156
    6    1   19    2       -0.0000000036
    6    1    3    3        0.0000000000
    6    1    4    3        0.0000000000
    6    1    5    3       -0.0000000000
    6    1    6    3        0.0035839553
    6    1    7    3        0.0000612094
    6    1    8    3        0.0000000000
    6    1    9    3       -0.0000000000
    6    1   10    3       -0.0000000000
    6    1   11    3        0.0000000001
    6    1   12    3       -0.0007079265
    6    1   13    3       -0.0000064181
    6    1   14    3        0.0000000001
    6    1   15    3        0.0003723548
    6    1   16    3       -0.0000000028
    6    1   17    3        0.0000000000
    6    1   18    3        0.0000001266
    6    1   19    3        0.0000089719
    6    1    4    4        0.0000000000
    6    1    5    4       -0.0000000000
    6    1    6    4        0.0006195886
    6    1    7    4        0.0000103536
    6    1    8    4       -0.0000000000
    6    1    9    4        0.0000000000
    6    1   10    4       -0.0000000000
    6    1   11    4        0.0000000001
    6    1   12    4       -0.0002434795
    6    1   13    4       -0.0000015815
    6    1   14    4        0.0000000000
    6    1   15    4        0.0039285680
    6    1   16    4       -0.0000000298
    6    1   17    4       -0.0000000000
    6    1   18    4        0.0000003252
    6    1   19    4        0.0000497115
    6    1    5    5        0.0000000000
    6    1    6    5       -0.0000189986
    6    1    7    5        0.0014970579
    6    1    8    5       -0.0000000000
    6    1    9    5       -0.0000000000
    6    1   10    5       -0.0000000002
    6    1   11    5        0.0000000000
    6    1   12    5       -0.0000327156
    6    1   13    5       -0.0000000881
    6    1   14    5        0.0000000000
    6    1   15    5        0.0000020155
    6    1   16    5       -0.0000000000
    6    1   17    5        0.0000000030
    6    1   18    5        0.0000034643
    6    1   19    5        0.0003349134
    6    1    6    6       -0.0000000000
    6    1    7    6        0.0000000011
    6    1    8    6        0.0000036270
    6    1    9    6        0.0018491426
    6    1   10    6        0.0003657811
    6    1   11    6       -0.0000337337
    6    1   12    6       -0.0000000000
    6    1   13    6       -0.0000000000
    6    1   14    6       -0.0000000896
    6    1   15    6       -0.0000000000
    6    1   16    6       -0.0000022333
    6    1   17    6       -0.0041259432
    6    1   18    6       -0.0000000017
    6    1   19    6       -0.0000000013
    6    1    7    7        0.0000000000
    6    1    8    7        0.0000000645
    6    1    9    7        0.0000148296
    6    1   10    7        0.0000158913
    6    1   11    7       -0.0027232556
    6    1   12    7       -0.0000000025
    6    1   13    7       -0.0000000002
    6    1   14    7       -0.0000108126
    6    1   15    7        0.0000000003
    6    1   16    7        0.0000366580
    6    1   17    7        0.0000014016
    6    1   18    7       -0.0000000000
    6    1   19    7        0.0000000001
    6    1    8    8        0.0000000000
    6    1    9    8       -0.0000000000
    6    1   10    8       -0.0000000000
    6    1   11    8        0.0000000000
    6    1   12    8        0.0000129190
    6    1   13    8       -0.0037751879
    6    1   14    8        0.0000000568
    6    1   15    8       -0.0000049433
    6    1   16    8        0.0000000001
    6    1   17    8        0.0000000000
    6    1   18    8        0.0000650332
    6    1   19    8       -0.0000004232
    6    1    9    9        0.0000000000
    6    1   10    9       -0.0000000000
    6    1   11    9        0.0000000006
    6    1   12    9       -0.0027451524
    6    1   13    9       -0.0000112641
    6    1   14    9        0.0000000002
    6    1   15    9        0.0006335092
    6    1   16    9       -0.0000000048
    6    1   17    9       -0.0000000000
    6    1   18    9        0.0000001367
    6    1   19    9        0.0000199253
    6    1   10   10        0.0000000000
    6    1   11   10        0.0000000005
    6    1   12   10       -0.0008778875
    6    1   13   10       -0.0000031568
    6    1   14   10        0.0000000011
    6    1   15   10        0.0008349409
    6    1   16   10       -0.0000000057
    6    1   17   10       -0.0000000000
    6    1   18   10       -0.0000001104
    6    1   19   10       -0.0000258297
    6    1   11   11        0.0000000001
    6    1   12   11       -0.0000491301
    6    1   13   11       -0.0000000583
    6    1   14   11        0.0000000000
    6    1   15   11       -0.0000090024
    6    1   16   11        0.0000000000
    6    1   17   11        0.0000000002
    6    1   18   11       -0.0000015420
    6    1   19   11       -0.0007342123
    6    1   12   12       -0.0000000000
    6    1   13   12       -0.0000000000
    6    1   14   12       -0.0000000591
    6    1   15   12        0.0000000001
    6    1   16   12        0.0000085629
    6    1   17   12       -0.0001411971
    6    1   18   12        0.0000000014
    6    1   19   12        0.0000000004
    6    1   13   13       -0.0000000006
    6    1   14   13       -0.0000203004
    6    1   15   13       -0.0000000000
    6    1   16   13        0.0000000404
    6    1   17   13        0.0000041799
    6    1   18   13       -0.0000000215
    6    1   19   13       -0.0000000089
    6    1   14   14        0.0000000007
    6    1   15   14       -0.0000000193
    6    1   16   14        0.0000000005
    6    1   17   14       -0.0000000001
    6    1   18   14       -0.0016346536
    6    1   19   14        0.0000074147
    6    1   15   15        0.0000000003
    6    1   16   15        0.0000224259
    6    1   17   15       -0.0008513676
    6    1   18   15       -0.0000000006
    6    1   19   15       -0.0000000088
    6    1   16   16       -0.0000000004
    6    1   17   16        0.0000000059
    6    1   18   16       -0.0000055202
    6    1   19   16       -0.0012406412
    6    1   17   17        0.0000000000
    6    1   18   17        0.0000000075
    6    1   19   17        0.0000030974
    6    1   18   18        0.0000000003
    6    1   19   18       -0.0000000010
    6    1   19   19        0.0000000002
    7    1    7    1        0.0001422578
    7    1    8    1        0.0000000000
    7    1    9    1       -0.0000000000
    7    1   10    1       -0.0000000000
    7    1   11    1       -0.0000000000
    7    1   12    1       -0.0000000727
    7    1   13    1       -0.0000000022
    7    1   14    1        0.0000000000
    7    1   15    1        0.0000000670
    7    1   16    1        0.0000000000
    7    1   17    1       -0.0000000000
    7    1   18    1        0.0000004760
    7    1   19    1        0.0000602623
    7    1    2    2        0.0000000000
    7    1    3    2        0.0000000000
    7    1    4    2       -0.0000000000
    7    1    5    2       -0.0000000000
    7    1    6    2        0.0000000020
    7    1    7    2        0.0000001582
    7    1    8    2        0.0000000000
    7    1    9    2        0.0000000000
    7    1   10    2       -0.0000000001
    7    1   11    2       -0.0000000000
    7    1   12    2       -0.0000000013
    7    1   13    2       -0.0000001283
    7    1   14    2        0.0000000000
    7    1   15    2       -0.0000000018
    7    1   16    2       -0.0000000000
    7    1   17    2        0.0000000000
    7    1   18    2        0.0001454716
    7    1   19    2       -0.0000009980
    7    1    3    3        0.0000000000
    7    1    4    3        0.0000000000
    7    1    5    3       -0.0000000000
    7    1    6    3        0.0000041501
    7    1    7    3        0.0007933111
    7    1    8    3        0.0000000000
    7    1    9    3       -0.0000000000
    7    1   10    3       -0.0000000001
    7    1   11    3        0.0000000000
    7    1   12    3       -0.0000002039
    7    1   13    3       -0.0000000111
    7    1   14    3        0.0000000000
    7    1   15    3        0.0000003885
    7    1   16    3        0.0000000000
    7    1   17    3       -0.0000000000
    7    1   18    3        0.0000022273
    7    1   19    3        0.0001585458
    7    1    4    4        0.0000000000
    7    1    5    4        0.0000000000
    7    1    6    4        0.0000001374
    7    1    7    4        0.0001610243
    7    1    8    4       -0.0000000000
    7    1    9    4       -0.0000000000
    7    1   10    4       -0.0000000004
    7    1   11    4        0.0000000000
    7    1   12    4        0.0000015535
    7    1   13    4        0.0000000072
    7    1   14    4        0.0000000000
    7    1   15    4        0.0000037699
    7    1   16    4       -0.0000000000
    7    1   17    4       -0.0000000000
    7    1   18    4        0.0000039324
    7    1   19    4        0.0007476901
    7    1    5    5       -0.0000000002
    7    1    6    5        0.0002635741
    7    1    7    5        0.0000023653
    7    1    8    5       -0.0000000000
    7    1    9    5       -0.0000000000
    7    1   10    5       -0.0000000000
    7    1   11    5        0.0000000007
    7    1   12    5       -0.0007233063
    7    1   13    5       -0.0000027217
    7    1   14    5        0.0000000000
    7    1   15    5       -0.0000224055
    7    1   16    5        0.0000000002
    7    1   17    5        0.0000000000
    7    1   18    5        0.0000000168
    7    1   19    5        0.0000020943
    7    1    6    6        0.0000000002
    7    1    7    6        0.0000000000
    7    1    8    6        0.0000000105
    7    1    9    6        0.0000007986
    7    1   10    6        0.0000002897
    7    1   11    6       -0.0007233090
    7    1   12    6       -0.0000000007
    7    1   13    6       -0.0000000000
    7    1   14    6       -0.0000027217
    7    1   15    6        0.0000000002
    7    1   16    6        0.0000224058
    7    1   17    6       -0.0000036716
    7    1   18    6       -0.0000000000
    7    1   19    6        0.0000000000
    7    1    7    7        0.0000000000
    7    1    8    7        0.0000011749
    7    1    9    7        0.0006056552
    7    1   10    7        0.0002655673
    7    1   11    7       -0.0000026042
    7    1   12    7       -0.0000000000
    7    1   13    7        0.0000000000
    7    1   14    7       -0.0000000145
    7    1   15    7        0.0000000000
    7    1   16    7       -0.0000000051
    7    1   17    7        0.0000000018
    7    1   18    7        0.0000000004
    7    1   19    7        0.0000000003
    7    1    8    8        0.0000000000
    7    1    9    8       -0.0000000000
    7    1   10    8       -0.0000000006
    7    1   11    8       -0.0000000000
    7    1   12    8        0.0000000132
    7    1   13    8       -0.0000039686
    7    1   14    8        0.0000000001
    7    1   15    8       -0.0000000135
    7    1   16    8       -0.0000000003
    7    1   17    8        0.0000000000
    7    1   18    8        0.0008533154
    7    1   19    8       -0.0000060788
    7    1    9    9       -0.0000000000
    7    1   10    9       -0.0000000001
    7    1   11    9        0.0000000000
    7    1   12    9       -0.0000027588
    7    1   13    9       -0.0000000111
    7    1   14    9        0.0000000000
    7    1   15    9        0.0000007336
    7    1   16    9        0.0000000000
    7    1   17    9       -0.0000000000
    7    1   18    9        0.0000025304
    7    1   19    9        0.0003003450
    7    1   10   10       -0.0000000001
    7    1   11   10        0.0000000000
    7    1   12   10       -0.0000008695
    7    1   13   10       -0.0000000043
    7    1   14   10        0.0000000000
    7    1   15   10       -0.0000011414
    7    1   16   10        0.0000000000
    7    1   17   10       -0.0000000000
    7    1   18   10        0.0000010853
    7    1   19   10        0.0001132197
    7    1   11   11       -0.0000000004
    7    1   12   11        0.0003494690
    7    1   13   11        0.0000011248
    7    1   14   11       -0.0000000000
    7    1   15   11       -0.0001562838
    7    1   16   11        0.0000000010
    7    1   17   11        0.0000000000
    7    1   18   11       -0.0000000047
    7    1   19   11       -0.0000006000
    7    1   12   12        0.0000000004
    7    1   13   12        0.0000000000
    7    1   14   12        0.0000011248
    7    1   15   12        0.0000000010
    7    1   16   12        0.0001562782
    7    1   17   12       -0.0000025748
    7    1   18   12        0.0000000001
    7    1   19   12       -0.0000000000
    7    1   13   13        0.0000000098
    7    1   14   13        0.0003166517
    7    1   15   13        0.0000000000
    7    1   16   13        0.0000001199
    7    1   17   13        0.0000000025
    7    1   18   13       -0.0000000001
    7    1   19   13        0.0000000001
    7    1   14   14       -0.0000000098
    7    1   15   14       -0.0000001199
    7    1   16   14       -0.0000000000
    7    1   17   14        0.0000000000
    7    1   18   14       -0.0000021300
    7    1   19   14        0.0000000122
    7    1   15   15       -0.0000000021
    7    1   16   15       -0.0001420847
    7    1   17   15       -0.0000004017
    7    1   18   15       -0.0000000001
    7    1   19   15        0.0000000000
    7    1   16   16        0.0000000021
    7    1   17   16        0.0000000000
    7    1   18   16       -0.0000000077
    7    1   19   16       -0.0000018786
    7    1   17   17        0.0000000000
    7    1   18   17        0.0000000000
    7    1   19   17        0.0000000045
    7    1   18   18       -0.0000000028
    7    1   19   18        0.0000000023
    7    1   19   19       -0.0000000010
    8    1    8    1        0.0020938858
    8    1    9    1        0.0000017754
    8    1   10    1       -0.0000037474
    8    1   11    1        0.0000000009
    8    1   12    1       -0.0000000000
    8    1   13    1       -0.0000000000
    8    1   14    1       -0.0000002641
    8    1   15    1        0.0000000000
    8    1   16    1        0.0000000013
    8    1   17    1       -0.0000000000
    8    1   18    1       -0.0000000059
    8    1   19    1        0.0000000124
    8    1    2    2        0.0000023393
    8    1    3    2        0.0022744304
    8    1    4    2        0.0001977629
    8    1    5    2        0.0000005829
    8    1    6    2        0.0000000000
    8    1    7    2       -0.0000000000
    8    1    8    2       -0.0000004787
    8    1    9    2        0.0030624373
    8    1   10    2        0.0005625880
    8    1   11    2       -0.0000000842
    8    1   12    2       -0.0000000000
    8    1   13    2        0.0000000000
    8    1   14    2        0.0000000007
    8    1   15    2        0.0000000000
    8    1   16    2        0.0000000605
    8    1   17    2       -0.0000000000
    8    1   18    2       -0.0000000045
    8    1   19    2       -0.0000000035
    8    1    3    3        0.0000026891
    8    1    4    3       -0.0000034366
    8    1    5    3        0.0000000065
    8    1    6    3       -0.0000000000
    8    1    7    3       -0.0000000000
    8    1    8    3        0.0000946023
    8    1    9    3       -0.0000021997
    8    1   10    3        0.0000031717
    8    1   11    3        0.0000000069
    8    1   12    3        0.0000000000
    8    1   13    3       -0.0000000000
    8    1   14    3       -0.0000014996
    8    1   15    3        0.0000000000
    8    1   16    3        0.0000000237
    8    1   17    3       -0.0000000000
    8    1   18    3        0.0000000009
    8    1   19    3       -0.0000000018
    8    1    4    4        0.0000027936
    8    1    5    4       -0.0000000181
    8    1    6    4       -0.0000000000
    8    1    7    4       -0.0000000000
    8    1    8    4        0.0000079183
    8    1    9    4        0.0000015870
    8    1   10    4       -0.0000038607
    8    1   11    4       -0.0000000018
    8    1   12    4       -0.0000000000
    8    1   13    4        0.0000000000
    8    1   14    4        0.0000002402
    8    1   15    4       -0.0000000000
    8    1   16    4       -0.0000000376
    8    1   17    4        0.0000000000
    8    1   18    4       -0.0000000001
    8    1   19    4        0.0000000001
    8    1    5    5        0.0000023657
    8    1    6    5       -0.0000000000
    8    1    7    5        0.0000000000
    8    1    8    5        0.0000015533
    8    1    9    5        0.0000000020
    8    1   10    5       -0.0000000051
    8    1   11    5        0.0000015222
    8    1   12    5        0.0000000000
    8    1   13    5       -0.0000000006
    8    1   14    5       -0.0000398751
    8    1   15    5        0.0000000000
    8    1   16    5        0.0000045612
    8    1   17    5        0.0000000028
    8    1   18    5       -0.0000000000
    8    1   19    5        0.0000000000
    8    1    6    6        0.0000023657
    8    1    7    6        0.0000000066
    8    1    8    6        0.0000000000
    8    1    9    6       -0.0000000000
    8    1   10    6       -0.0000000000
    8    1   11    6        0.0000000000
    8    1   12    6        0.0000015222
    8    1   13    6       -0.0000398741
    8    1   14    6        0.0000000006
    8    1   15    6       -0.0000045612
    8    1   16    6        0.0000000000
    8    1   17    6        0.0000000000
    8    1   18    6        0.0000010917
    8    1   19    6       -0.0000000171
    8    1    7    7        0.0000031619
    8    1    8    7        0.0000000000
    8    1    9    7       -0.0000000000
    8    1   10    7       -0.0000000003
    8    1   11    7       -0.0000000000
    8    1   12    7       -0.0000000052
    8    1   13    7       -0.0000009279
    8    1   14    7        0.0000000000
    8    1   15    7       -0.0000000143
    8    1   16    7       -0.0000000002
    8    1   17    7        0.0000000000
    8    1   18    7        0.0004534771
    8    1   19    7       -0.0000081711
    8    1    8    8       -0.0000001261
    8    1    9    8       -0.0004393211
    8    1   10    8        0.0000426419
    8    1   11    8       -0.0000001739
    8    1   12    8       -0.0000000000
    8    1   13    8        0.0000000000
    8    1   14    8        0.0000000002
    8    1   15    8        0.0000000000
    8    1   16    8        0.0000002186
    8    1   17    8        0.0000000007
    8    1   18    8        0.0000000009
    8    1   19    8        0.0000000007
    8    1    9    9        0.0000018412
    8    1   10    9       -0.0000007689
    8    1   11    9       -0.0000000107
    8    1   12    9        0.0000000000
    8    1   13    9       -0.0000000000
    8    1   14    9       -0.0000002353
    8    1   15    9       -0.0000000000
    8    1   16    9       -0.0000000005
    8    1   17    9       -0.0000000000
    8    1   18    9        0.0000000008
    8    1   19    9       -0.0000000017
    8    1   10   10       -0.0000006073
    8    1   11   10        0.0000000099
    8    1   12   10        0.0000000000
    8    1   13   10       -0.0000000000
    8    1   14   10       -0.0000001036
    8    1   15   10        0.0000000000
    8    1   16   10        0.0000000055
    8    1   17   10       -0.0000000000
    8    1   18   10       -0.0000000003
    8    1   19   10        0.0000000007
    8    1   11   11        0.0000058091
    8    1   12   11       -0.0000000000
    8    1   13   11       -0.0000000073
    8    1   14   11       -0.0004933545
    8    1   15   11        0.0000000000
    8    1   16   11        0.0000018004
    8    1   17   11        0.0000000098
    8    1   18   11        0.0000000000
    8    1   19   11       -0.0000000000
    8    1   12   12        0.0000058090
    8    1   13   12       -0.0004933532
    8    1   14   12        0.0000000073
    8    1   15   12       -0.0000018003
    8    1   16   12       -0.0000000000
    8    1   17   12        0.0000000000
    8    1   18   12       -0.0000011719
    8    1   19   12        0.0000000205
    8    1   13   13       -0.0000036842
    8    1   14   13       -0.0000000000
    8    1   15   13        0.0000784732
    8    1   16   13       -0.0000000018
    8    1   17   13       -0.0000000000
    8    1   18   13       -0.0000000032
    8    1   19   13       -0.0000000030
    8    1   14   14       -0.0000036842
    8    1   15   14       -0.0000000018
[...]
   16   13   16   16       -0.0000000047
   16   13   17   16       -0.0000000003
   16   13   18   16        0.0000051011
   16   13   19   16       -0.0000002800
   16   13   17   17       -0.0000000022
   16   13   18   17        0.0001315667
   16   13   19   17        0.0000017613
   16   13   18   18       -0.0000000004
   16   13   19   18        0.0000000573
   16   13   19   19       -0.0000000012
   17   13   17   13        0.0119575152
   17   13   18   13        0.0000000021
   17   13   19   13        0.0000000020
   17   13   14   14       -0.0000000000
   17   13   15   14        0.0000026621
   17   13   16   14       -0.0000000002
   17   13   17   14        0.0000000000
   17   13   18   14       -0.0000104122
   17   13   19   14        0.0002334608
   17   13   15   15        0.0000000000
   17   13   16   15        0.0000008803
   17   13   17   15        0.0001209838
   17   13   18   15        0.0000000251
   17   13   19   15       -0.0000000077
   17   13   16   16       -0.0000000007
   17   13   17   16       -0.0000000027
   17   13   18   16        0.0009667503
   17   13   19   16       -0.0000367134
   17   13   17   17        0.0000000000
   17   13   18   17       -0.0000012729
   17   13   19   17        0.0000000288
   17   13   18   18        0.0000000011
   17   13   19   18        0.0000000004
   17   13   19   19       -0.0000000000
   18   13   18   13        0.0066050973
   18   13   19   13       -0.0000280576
   18   13   14   14        0.0000398164
   18   13   15   14       -0.0000000002
   18   13   16   14        0.0000001291
   18   13   17   14        0.0000104122
   18   13   18   14       -0.0000000152
   18   13   19   14        0.0000000158
   18   13   15   15       -0.0001397935
   18   13   16   15        0.0000000003
   18   13   17   15        0.0000000177
   18   13   18   15       -0.0000274499
   18   13   19   15       -0.0044725052
   18   13   16   16        0.0000284513
   18   13   17   16        0.0007750004
   18   13   18   16       -0.0000000005
   18   13   19   16        0.0000000947
   18   13   17   17       -0.0000026903
   18   13   18   17        0.0000000002
   18   13   19   17       -0.0000000002
   18   13   18   18       -0.0002716405
   18   13   19   18        0.0000001145
   18   13   19   19       -0.0002308147
   19   13   19   13        0.0009753131
   19   13   14   14       -0.0000002986
   19   13   15   14       -0.0000000001
   19   13   16   14        0.0000041000
   19   13   17   14       -0.0002334668
   19   13   18   14        0.0000000162
   19   13   19   14       -0.0000000002
   19   13   15   15        0.0000012012
   19   13   16   15        0.0000000003
   19   13   17   15        0.0000000003
   19   13   18   15       -0.0009985712
   19   13   19   15        0.0000549608
   19   13   16   16       -0.0000003932
   19   13   17   16        0.0000181783
   19   13   18   16        0.0000000217
   19   13   19   16        0.0000000123
   19   13   17   17       -0.0000001116
   19   13   18   17       -0.0000000000
   19   13   19   17       -0.0000000000
   19   13   18   18        0.0000010359
   19   13   19   18       -0.0000197121
   19   13   19   19        0.0000021260
   14   14   14   14        0.1162599600
   14   14   15   14       -0.0000000002
   14   14   16   14        0.0000011580
   14   14   17   14        0.0000007223
   14   14   18   14       -0.0000000028
   14   14   19   14        0.0000000008
   14   14   15   15        0.0881868970
   14   14   16   15        0.0000001423
   14   14   17   15       -0.0000000009
   14   14   18   15       -0.0000002395
   14   14   19   15       -0.0000431563
   14   14   16   16        0.1050907143
   14   14   17   16       -0.0000274573
   14   14   18   16        0.0000000035
   14   14   19   16       -0.0000000016
   14   14   17   17        0.1020011015
   14   14   18   17       -0.0000000034
   14   14   19   17       -0.0000000025
   14   14   18   18        0.0972308068
   14   14   19   18       -0.0000286540
   14   14   19   19        0.0920327982
   15   14   15   14        0.0003187809
   15   14   16   14        0.0000000664
   15   14   17   14       -0.0000000000
   15   14   18   14       -0.0000000088
   15   14   19   14       -0.0000029262
   15   14   15   15       -0.0000000047
   15   14   16   15       -0.0000089573
   15   14   17   15        0.0000000278
   15   14   18   15        0.0000000001
   15   14   19   15        0.0000000001
   15   14   16   16       -0.0000000037
   15   14   17   16       -0.0000000000
   15   14   18   16       -0.0000027738
   15   14   19   16        0.0000001038
   15   14   17   17       -0.0000000022
   15   14   18   17        0.0001315831
   15   14   19   17        0.0000017606
   15   14   18   18        0.0000000018
   15   14   19   18        0.0000000595
   15   14   19   19       -0.0000000071
   16   14   16   14        0.0049972616
   16   14   17   14        0.0000144159
   16   14   18   14       -0.0000000004
   16   14   19   14       -0.0000000002
   16   14   15   15       -0.0001417882
   16   14   16   15       -0.0000000007
   16   14   17   15       -0.0000000003
   16   14   18   15       -0.0000019104
   16   14   19   15        0.0000000503
   16   14   16   16       -0.0002280115
   16   14   17   16        0.0000000317
   16   14   18   16       -0.0000000000
   16   14   19   16       -0.0000000024
   16   14   17   17       -0.0000961183
   16   14   18   17       -0.0000000025
   16   14   19   17       -0.0000000011
   16   14   18   18        0.0000282881
   16   14   19   18        0.0025784912
   16   14   19   19       -0.0001852430
   17   14   17   14        0.0119575402
   17   14   18   14       -0.0000000027
   17   14   19   14       -0.0000000013
   17   14   15   15       -0.0000003345
   17   14   16   15       -0.0000000004
   17   14   17   15       -0.0000000027
   17   14   18   15        0.0009667748
   17   14   19   15       -0.0000367147
   17   14   16   16       -0.0000006657
   17   14   17   16       -0.0001209834
   17   14   18   16       -0.0000000187
   17   14   19   16       -0.0000000055
   17   14   17   17        0.0000007924
   17   14   18   17        0.0000000002
   17   14   19   17       -0.0000000003
   17   14   18   18        0.0000009258
   17   14   19   18        0.0000195093
   17   14   19   19       -0.0000028654
   18   14   18   14        0.0066043356
   18   14   19   14       -0.0000280536
   18   14   15   15        0.0000000010
   18   14   16   15       -0.0000538877
   18   14   17   15        0.0007751894
   18   14   18   15        0.0000000019
   18   14   19   15        0.0000001074
   18   14   16   16        0.0000000001
   18   14   17   16       -0.0000000175
   18   14   18   16        0.0000274461
   18   14   19   16        0.0044716961
   18   14   17   17       -0.0000000004
   18   14   18   17        0.0000000447
   18   14   19   17       -0.0000128902
   18   14   18   18        0.0000000040
   18   14   19   18        0.0000000031
   18   14   19   19        0.0000000031
   19   14   19   14        0.0009752947
   19   14   15   15        0.0000000004
   19   14   16   15        0.0000003943
   19   14   17   15        0.0000181767
   19   14   18   15        0.0000000236
   19   14   19   15       -0.0000000145
   19   14   16   16       -0.0000000000
   19   14   17   16       -0.0000000006
   19   14   18   16        0.0009985527
   19   14   19   16       -0.0000549539
   19   14   17   17        0.0000000005
   19   14   18   17       -0.0000012701
   19   14   19   17        0.0000001017
   19   14   18   18        0.0000000008
   19   14   19   18        0.0000000002
   19   14   19   19        0.0000000000
   15   15   15   15        0.1074007647
   15   15   16   15       -0.0000001356
   15   15   17   15       -0.0000000004
   15   15   18   15        0.0000004471
   15   15   19   15        0.0001496287
   15   15   16   16        0.0863842341
   15   15   17   16       -0.0000105660
   15   15   18   16       -0.0000000008
   15   15   19   16       -0.0000000018
   15   15   17   17        0.0980415921
   15   15   18   17        0.0000000033
   15   15   19   17        0.0000000024
   15   15   18   18        0.0912330549
   15   15   19   18       -0.0001520262
   15   15   19   19        0.0917236951
   16   15   16   15        0.0011203385
   16   15   17   15       -0.0000204994
   16   15   18   15       -0.0000000000
   16   15   19   15       -0.0000000017
   16   15   16   16        0.0000001356
   16   15   17   16        0.0000000001
   16   15   18   16       -0.0000000386
   16   15   19   16       -0.0000515289
   16   15   17   17       -0.0000000000
   16   15   18   17        0.0000000000
   16   15   19   17        0.0000001189
   16   15   18   18        0.0000000026
   16   15   19   18       -0.0000000023
   16   15   19   19        0.0000000010
   17   15   17   15        0.0084585070
   17   15   18   15        0.0000000029
   17   15   19   15        0.0000000022
   17   15   16   16        0.0000000002
   17   15   17   16       -0.0000000000
   17   15   18   16        0.0000181151
   17   15   19   16        0.0002373820
   17   15   17   17       -0.0000000002
   17   15   18   17        0.0000000094
   17   15   19   17       -0.0000026589
   17   15   18   18       -0.0000000006
   17   15   19   18        0.0000000004
   17   15   19   19       -0.0000000008
   18   15   18   15        0.0011094302
   18   15   19   15       -0.0000062919
   18   15   16   16       -0.0000003702
   18   15   17   16       -0.0000181143
   18   15   18   16        0.0000000026
   18   15   19   16       -0.0000000016
   18   15   17   17        0.0000000916
   18   15   18   17        0.0000000000
   18   15   19   17       -0.0000000000
   18   15   18   18        0.0000013533
   18   15   19   18        0.0000227406
   18   15   19   19       -0.0000003119
   19   15   19   15        0.0055703332
   19   15   16   16       -0.0000440252
   19   15   17   16       -0.0002371803
   19   15   18   16       -0.0000000019
   19   15   19   16        0.0000000019
   19   15   17   17       -0.0000008704
   19   15   18   17        0.0000000000
   19   15   19   17       -0.0000000002
   19   15   18   18        0.0002137844
   19   15   19   18       -0.0000010393
   19   15   19   19        0.0002258009
   16   16   16   16        0.1074003340
   16   16   17   16       -0.0000199454
   16   16   18   16        0.0000000054
   16   16   19   16        0.0000000009
   16   16   17   17        0.0980415475
   16   16   18   17       -0.0000000036
   16   16   19   17       -0.0000000027
   16   16   18   18        0.0912326353
   16   16   19   18       -0.0001520315
   16   16   19   19        0.0917232933
   17   16   17   16        0.0084584395
   17   16   18   16       -0.0000000034
   17   16   19   16       -0.0000000023
   17   16   17   17       -0.0000283524
   17   16   18   17        0.0000000023
   17   16   19   17       -0.0000000001
   17   16   18   18       -0.0000691423
   17   16   19   18       -0.0000008877
   17   16   19   19       -0.0000805554
   18   16   18   16        0.0011093912
   18   16   19   16       -0.0000062958
   18   16   17   17        0.0000000021
   18   16   18   17       -0.0000015566
   18   16   19   17       -0.0000001362
   18   16   18   18       -0.0000000018
   18   16   19   18       -0.0000000001
   18   16   19   19        0.0000000001
   19   16   19   16        0.0055694078
   19   16   17   17       -0.0000000003
   19   16   18   17       -0.0000002603
   19   16   19   17       -0.0000180325
   19   16   18   18       -0.0000000015
   19   16   19   18        0.0000000011
   19   16   19   19       -0.0000000017
   17   17   17   17        0.1028707989
   17   17   18   17       -0.0000000001
   17   17   19   17       -0.0000000001
   17   17   18   18        0.0940354780
   17   17   19   18       -0.0000916914
   17   17   19   19        0.0916900618
   18   17   18   17        0.0016136305
   18   17   19   17       -0.0000103629
   18   17   18   18        0.0000000003
   18   17   19   18       -0.0000000001
   18   17   19   19        0.0000000002
   19   17   19   17        0.0013376371
   19   17   18   18       -0.0000000002
   19   17   19   18        0.0000000002
   19   17   19   19       -0.0000000004
   18   18   18   18        0.1013386649
   18   18   19   18       -0.0000001068
   18   18   19   19        0.0934662044
   19   18   19   18        0.0039191583
   19   18   19   19       -0.0002046208
   19   19   19   19        0.0960752011
 end_two_electron_integrals


 output epsi filename:./pspw_hf_H2.emovecs

 Total PSPW energy     :  -0.7804692043E+00


=== Spin Contamination ===

 <Sexact^2> =    0.0000000000000000     
 <S^2>      =    0.0000000000000000     



== Center of Charge ==

spin up     (    0.0000,    0.0000,    0.0002 )
spin down   (    0.0000,    0.0000,    0.0002 )
     total  (    0.0000,    0.0000,    0.0002 )
ionic       (    0.0000,    0.0000,    0.0000 )


== Molecular Dipole wrt Center of Mass ==

mu   =  (   -0.0000,   -0.0000,   -0.0004 ) au
|mu| =     0.0004 au,       0.0009 Debye

 output psi filename:./pspw_hf_H2.movecs

 Writing Crystallographic Information File:./H2.cif
   - cell not shifted (nwpw:cif_shift_cell .false.)


== Timing ==

cputime in seconds
  prologue    :   0.705706E+01
  main loop   :   0.136521E+04
  epilogue    :   0.130389E-01
  total       :   0.137228E+04
  cputime/step:   0.904110E+01       (     151 evalulations,      63 linesearches)


Time spent doing                        total          step       percent
  total time                 :   0.137228E+04  0.908792E+01       100.0 %
  i/o time                   :   0.374076E+00  0.247732E-02         0.0 %
  FFTs                       :   0.117641E+04  0.779077E+01        85.7 %
  dot products               :   0.169693E+01  0.112379E-01         0.1 %
  geodesic                   :   0.154677E+00  0.102435E-02         0.0 %
  ffm_dgemm                  :   0.170699E-01  0.113046E-03         0.0 %
  fmf_dgemm                  :   0.101500E+00  0.672185E-03         0.0 %
  mmm_dgemm                  :   0.195535E-02  0.129494E-04         0.0 %
  m_diagonalize              :   0.125970E-02  0.834240E-05         0.0 %
  local pseudopotentials     :   0.201541E-01  0.133471E-03         0.0 %
  non-local pseudopotentials :   0.302353E+01  0.200234E-01         0.2 %
  structure factors          :   0.125667E+01  0.832231E-02         0.1 %
  phase factors              :   0.615900E-05  0.407881E-07         0.0 %
  masking and packing        :   0.455292E+02  0.301518E+00         3.3 %
  queue fft                  :   0.351392E+01  0.232710E-01         0.3 %
  queue fft (serial)         :   0.145235E+01  0.961821E-02         0.1 %
  queue fft (message passing):   0.190009E+01  0.125834E-01         0.1 %
  HFX potential              :   0.741809E+03  0.491264E+01        54.1 %
  non-local psp FFM          :   0.158657E+01  0.105071E-01         0.1 %
  non-local psp FMF          :   0.398230E+00  0.263728E-02         0.0 %
  non-local psp FFM A        :   0.529589E+00  0.350721E-02         0.0 %
  non-local psp FFM B        :   0.331658E+00  0.219641E-02         0.0 %

== HFX Counters ==
  HFX Evalulations         =   151
  Lin ACE HFX Evalulations =     0


     >>>  JOB COMPLETED     AT Thu May  1 23:17:10 2025  <<<

 Task  times  cpu:     1395.1s     wall:     1372.3s
 Summary of allocated global arrays
-----------------------------------
  No active global arrays


MA_summarize_allocated_blocks: starting scan ...
MA_summarize_allocated_blocks: scan completed: 0 heap blocks, 0 stack blocks
MA usage statistics:

	allocation statistics:
					      heap	     stack
					      ----	     -----
	current number of blocks	         0	         0
	maximum number of blocks	       313	        17
	current total bytes		         0	         0
	maximum total bytes		 955123768	 228700296
	maximum total K-bytes		    955124	    228701
	maximum total M-bytes		       956	       229


                                NWChem Input Module
                                -------------------




                                     CITATION
                                     --------
                Please cite the following reference when publishing
                           results obtained with NWChem:

          E. Apra, E. J. Bylaska, W. A. de Jong, N. Govind, K. Kowalski,
       T. P. Straatsma, M. Valiev, H. J. J. van Dam, Y. Alexeev, J. Anchell,
       V. Anisimov, F. W. Aquino, R. Atta-Fynn, J. Autschbach, N. P. Bauman,
     J. C. Becca, D. E. Bernholdt, K. Bhaskaran-Nair, S. Bogatko, P. Borowski,
         J. Boschen, J. Brabec, A. Bruner, E. Cauet, Y. Chen, G. N. Chuev,
      C. J. Cramer, J. Daily, M. J. O. Deegan, T. H. Dunning Jr., M. Dupuis,
   K. G. Dyall, G. I. Fann, S. A. Fischer, A. Fonari, H. Fruchtl, L. Gagliardi,
      J. Garza, N. Gawande, S. Ghosh, K. Glaesemann, A. W. Gotz, J. Hammond,
       V. Helms, E. D. Hermes, K. Hirao, S. Hirata, M. Jacquelin, L. Jensen,
   B. G. Johnson, H. Jonsson, R. A. Kendall, M. Klemm, R. Kobayashi, V. Konkov,
      S. Krishnamoorthy, M. Krishnan, Z. Lin, R. D. Lins, R. J. Littlefield,
      A. J. Logsdail, K. Lopata, W. Ma, A. V. Marenich, J. Martin del Campo,
   D. Mejia-Rodriguez, J. E. Moore, J. M. Mullin, T. Nakajima, D. R. Nascimento,
    J. A. Nichols, P. J. Nichols, J. Nieplocha, A. Otero-de-la-Roza, B. Palmer,
    A. Panyala, T. Pirojsirikul, B. Peng, R. Peverati, J. Pittner, L. Pollack,
   R. M. Richard, P. Sadayappan, G. C. Schatz, W. A. Shelton, D. W. Silverstein,
   D. M. A. Smith, T. A. Soares, D. Song, M. Swart, H. L. Taylor, G. S. Thomas,
            V. Tipparaju, D. G. Truhlar, K. Tsemekhman, T. Van Voorhis,
      A. Vazquez-Mayagoitia, P. Verma, O. Villa, A. Vishnu, K. D. Vogiatzis,
        D. Wang, J. H. Weare, M. J. Williamson, T. L. Windus, K. Wolinski,
        A. T. Wong, Q. Wu, C. Yang, Q. Yu, M. Zacharias, Z. Zhang, Y. Zhao,
                                and R. J. Harrison
                        "NWChem: Past, present, and future
                         J. Chem. Phys. 152, 184102 (2020)
                               doi:10.1063/5.0004997

                                      AUTHORS
                                      -------
  E. Apra, E. J. Bylaska, N. Govind, K. Kowalski, M. Valiev, D. Mejia-Rodriguez,
       A. Kunitsa, N. P. Bauman, A. Panyala, W. A. de Jong, T. P. Straatsma,
   H. J. J. van Dam, D. Wang, T. L. Windus, J. Hammond, J. Autschbach, A. Woods,
    K. Bhaskaran-Nair, J. Brabec, K. Lopata, S. A. Fischer, S. Krishnamoorthy,
     M. Jacquelin, W. Ma, M. Klemm, O. Villa, Y. Chen, V. Anisimov, F. Aquino,
     S. Hirata, M. T. Hackler, E. Hermes, L. Jensen, J. E. Moore, J. C. Becca,
      V. Konjkov, T. Risthaus, M. Malagoli, A. Marenich, A. Otero-de-la-Roza,
        J. Mullin, P. Nichols, R. Peverati, J. Pittner, Y. Zhao, P.-D. Fan,
        A. Fonari, M. J. Williamson, R. J. Harrison, J. R. Rehr, M. Dupuis,
     D. Silverstein, D. M. A. Smith, J. Nieplocha, V. Tipparaju, M. Krishnan,
     B. E. Van Kuiken, A. Vazquez-Mayagoitia, M. Swart, Q. Wu, T. Van Voorhis,
     A. A. Auer, M. Nooijen, L. D. Crosby, E. Brown, G. Cisneros, G. I. Fann,
   H. Fruchtl, J. Garza, K. Hirao, R. A. Kendall, J. A. Nichols, K. Tsemekhman,
    K. Wolinski, J. Anchell, D. E. Bernholdt, P. Borowski, T. Clark, D. Clerc,
   H. Dachsel, M. J. O. Deegan, K. Dyall, D. Elwood, E. Glendening, M. Gutowski,
   A. C. Hess, J. Jaffe, B. G. Johnson, J. Ju, R. Kobayashi, R. Kutteh, Z. Lin,
   R. Littlefield, X. Long, B. Meng, T. Nakajima, S. Niu, L. Pollack, M. Rosing,
   K. Glaesemann, G. Sandrone, M. Stave, H. Taylor, G. Thomas, J. H. van Lenthe,
                               A. T. Wong, Z. Zhang.

 Total times  cpu:     1395.1s     wall:     1372.3s
