 argument  1 = H2-5.0.nw



============================== echo of input deck ==============================
title "swnc: e theory=pspw4 xc=hf formula=H2 charge=0 mult=1"
#machinejob:expert

echo

start pspw_hf_H2

memory heap 1200 mb stack 1200 mb global 10 mb

charge 0

geometry
H    0.00000    0.00000   -2.50000
H    0.00000    0.00000    2.50000
end

nwpw
  ### pseudopotential block begin ###
  ### pseudopotential block end   ###
  simulation_cell
     SC 20.0000
     boundary_conditions aperiodic
  end

  cutoff 50.0
  mult 1
  xc hf
  lmbfgs
  tolerances 1.0e-9 1.0e-9

  virtual 18
end
set nwpw:cif_filename H2

#set nwpw:CI_maxit_orb 15
#set nwpw:CI_maxit_linesearch 15
set pspw:HFX_screening_radius 14.0


set nwpw:2qintegrals .true.
#set nwpw:3x3_virtual .true.

task pspw energy

================================================================================


                                         
                                         


             Northwest Computational Chemistry Package (NWChem) 7.2.2
             --------------------------------------------------------


                    Environmental Molecular Sciences Laboratory
                       Pacific Northwest National Laboratory
                                Richland, WA 99352

                              Copyright (c) 1994-2022
                       Pacific Northwest National Laboratory
                            Battelle Memorial Institute

             NWChem is an open-source computational chemistry package
                        distributed under the terms of the
                      Educational Community License (ECL) 2.0
             A copy of the license is included with this distribution
                              in the LICENSE.TXT file

                                  ACKNOWLEDGMENT
                                  --------------

            This software and its documentation were developed at the
            EMSL at Pacific Northwest National Laboratory, a multiprogram
            national laboratory, operated for the U.S. Department of Energy
            by Battelle under Contract Number DE-AC05-76RL01830. Support
            for this work was provided by the Department of Energy Office
            of Biological and Environmental Research, Office of Basic
            Energy Sciences, and the Office of Advanced Scientific Computing.


           Job information
           ---------------

    hostname        = LAPTOP-JJQSTSEL
    program         = nwchem
    date            = Thu May  1 23:19:10 2025

    compiled        = Fri_Jun_07_07:50:04_2024
    source          = /home/conda/feedstock_root/build_artifacts/nwchem_1717738148552/work
    nwchem branch   = 7.2.2
    nwchem revision = 64ba0f0
    ga revision     = 5.8.0
    use scalapack   = T
    input           = H2-5.0.nw
    prefix          = pspw_hf_H2.
    data base       = ./pspw_hf_H2.db
    status          = startup
    nproc           =        1
    time left       =     -1s



           Memory information
           ------------------

    heap     =  157286400 doubles =   1200.0 Mbytes
    stack    =  157286397 doubles =   1200.0 Mbytes
    global   =    1310720 doubles =     10.0 Mbytes (distinct from heap & stack)
    total    =  315883517 doubles =   2410.0 Mbytes
    verify   = yes
    hardfail = no 


           Directory information
           ---------------------

  0 permanent = .
  0 scratch   = .




                                NWChem Input Module
                                -------------------


               swnc: e theory=pspw4 xc=hf formula=H2 charge=0 mult=1
               -----------------------------------------------------

 Scaling coordinates for geometry "geometry" by  1.889725989
 (inverse scale =  0.529177249)

 ORDER OF PRIMARY AXIS IS BEING SET TO 4
 D4H symmetry detected

          ------
          auto-z
          ------
     1 autoz failed with cvr_scaling = 1.2 changing to 1.3
     2 autoz failed with cvr_scaling = 1.3 changing to 1.4
     3 autoz failed with cvr_scaling = 1.4 changing to 1.5
     4 autoz failed with cvr_scaling = 1.5 changing to 1.6
     5 autoz failed with cvr_scaling = 1.6 changing to 1.7

 AUTOZ failed to generate good internal coordinates.
 Cartesian coordinates will be used in optimizations.



                             Geometry "geometry" -> ""
                             -------------------------

 Output coordinates in angstroms (scale by  1.889725989 to convert to a.u.)

  No.       Tag          Charge          X              Y              Z
 ---- ---------------- ---------- -------------- -------------- --------------
    1 H                    1.0000     0.00000000     0.00000000    -2.50000000
    2 H                    1.0000     0.00000000     0.00000000     2.50000000

      Atomic Mass 
      ----------- 

      H                  1.007825


 Effective nuclear repulsion energy (a.u.)       0.1058354498

            Nuclear Dipole moment (a.u.) 
            ----------------------------
        X                 Y               Z
 ---------------- ---------------- ----------------
     0.0000000000     0.0000000000     0.0000000000

      Symmetry information
      --------------------

 Group name             D4h       
 Group number             28
 Group order              16
 No. of unique centers     1

      Symmetry unique atoms

     1


            XYZ format geometry
            -------------------
     2
 geometry
 H                     0.00000000     0.00000000    -2.50000000
 H                     0.00000000     0.00000000     2.50000000

          ****************************************************
          *                                                  *
          *               NWPW PSPW Calculation              *
          *                                                  *
          * [ (Grassmann/Stiefel manifold implementation)  ] *
          *                                                  *
          *      [ NorthWest Chemistry implementation ]      *
          *                                                  *
          *            version #5.10   06/12/02              *
          *                                                  *
          *    This code was developed by Eric J. Bylaska,   *
          *    and was based upon algorithms and code        *
          *    developed by the group of Prof. John H. Weare *
          *                                                  *
          ****************************************************
     >>>  JOB STARTED       AT Thu May  1 23:19:10 2025  <<<
          ================ input data ========================

 input psi filename:./pspw_hf_H2.movecs

 number of processors used:         1
 processor grid           :   1 x   1
 parallel mapping         :2d-hilbert
 parallel mapping         :  balanced
 number of threads        :         1
 parallel io              :       off

 options:
      boundary conditions  = aperiodic   (version4)
      electron spin        = restricted
      exchange-correlation = Hartree-Fock
      - HFX relaxed
      - HFX restricted orbitals :    1
      - HFX free-space coulomb solver


 elements involved in the cluster:
      1: H   valence charge:  1.0000  lmax=  1
             comment    : Parameterized (Chem.Phys.Lett., vol 322, page 447) Hamman psp
             pseudpotential type            :   0
             highest angular component      :   1
             local potential used           :   1
             number of non-local projections:   1
             aperiodic cutoff radius        :  1.000
             cutoff =   0.800   0.800


 total charge:   0.000

 atomic composition:
     H   :    2

 number of electrons: spin up=     1 (   1 per task)  down=     1 (   1 per task) (Fourier space)
 number of orbitals : spin up=     1 (   1 per task)  down=     1 (   1 per task) (Fourier space)

 supercell:
      cell_name:  cell_default                                      
      lattice:    a1=<  20.000   0.000   0.000 >
                  a2=<   0.000  20.000   0.000 >
                  a3=<   0.000   0.000  20.000 >
      reciprocal: b1=<   0.314   0.000   0.000 >
                  b2=<   0.000   0.314   0.000 >
                  b3=<   0.000   0.000   0.314 >
      lattice:    a=      20.000 b=     20.000 c=      20.000
                  alpha=  90.000 beta=  90.000 gamma=  90.000
                  omega=      8000.0

      density cutoff=100.000  fft= 96x 96x 96(   191162 waves   191162 per task)
      wavefnc cutoff= 50.000  fft= 96x 96x 96(    67522 waves    67522 per task)

 technical parameters:
      time step=      5.80     fictitious mass=  400000.0
      tolerance=0.100E-08 (energy)   0.100E-08 (density)
      maximum iterations =      1000 (   10 inner    100 outer )





== Energy Calculation ==


          ============ Grassmann lmbfgs iteration ============
     >>>  ITERATION STARTED AT Thu May  1 23:19:17 2025  <<<
    iter.           Energy         DeltaE       DeltaRho 
    ------------------------------------------------------
      10   -0.7676402498E+00   -0.14513E-02    0.72788E-02
     -  10 steepest descent iterations performed
      20   -0.7721016226E+00   -0.13443E-03    0.47818E-04
      30   -0.7724062320E+00   -0.78570E-05    0.39483E-05
      40   -0.7724284153E+00   -0.47955E-06    0.12527E-06
      50   -0.7724301578E+00   -0.27285E-07    0.84817E-08
      60   -0.7724302581E+00   -0.28344E-08    0.13525E-09
      70   -0.7724302640E+00   -0.59820E-09    0.67767E-11
  *** tolerance ok. iteration terminated
     >>>  ITERATION ENDED   AT Thu May  1 23:21:01 2025  <<<


==  Summary Of Results  ==

 number of electrons: spin up=    1.00000  down=    1.00000 (real space)

 total     energy    :  -0.7724302640E+00 (   -0.38622E+00/ion)
 total orbital energy:  -0.5738693199E+00 (   -0.57387E+00/electron)
 hartree   energy    :   0.6087927876E+00 (    0.60879E+00/electron)
 exc-corr  energy    :   0.0000000000E+00 (    0.00000E+00/electron)
 HF exchange energy  :  -0.3043963938E+00 (   -0.30440E+00/electron)
 ion-ion   energy    :   0.1058354498E+00 (    0.52918E-01/ion)

 kinetic (planewave) :   0.6598876592E+00 (    0.65989E+00/electron)
 V_local (planewave) :  -0.1689842634E+01 (   -0.16898E+01/electron)
 V_nl    (planewave) :  -0.1527071324E+00 (   -0.15271E+00/electron)
 V_Coul  (planewave) :   0.1217585575E+01 (    0.12176E+01/electron)
 V_xc.   (planewave) :   0.0000000000E+00 (    0.00000E+00/electron)
 K.S. HFX energy     :  -0.6087927876E+00 (   -0.60879E+00/electron)
 Virial Coefficient  :  -0.9470766468E+00

 orbital energies:
    -0.2869347E+00 (  -7.808eV)


== Virtual Orbital Calculation ==


 input epsi filename:./pspw_hf_H2.emovecs
     orbital   1 current e=-0.176E+00 (error=0.903E-09) iterations  59(  42 preconditioned, Ep,Sp= 20.0  200.0)
     orbital   2 current e= 0.721E-02 (error=0.998E-09) iterations  94(  47 preconditioned, Ep,Sp= 20.0  200.0)
     orbital   3 current e= 0.472E-01 (error=0.990E-09) iterations  49(  14 preconditioned, Ep,Sp= 20.0  200.0)
     orbital   4 current e= 0.472E-01 (error=0.989E-09) iterations  49(  14 preconditioned, Ep,Sp= 20.0  200.0)
     orbital   5 current e= 0.471E-01 (error=0.928E-09) iterations 112(  38 preconditioned, Ep,Sp= 20.0  200.0)
     orbital   6 current e= 0.494E-01 (error=0.878E-09) iterations  19(   1 preconditioned, Ep,Sp= 20.0  200.0)
     orbital   7 current e= 0.572E-01 (error=0.100E-08) iterations  78(  38 preconditioned, Ep,Sp= 20.0  200.0)
     orbital   8 current e= 0.706E-01 (error=0.946E-09) iterations 118(  51 preconditioned, Ep,Sp= 20.0  200.0)
     orbital   9 current e= 0.926E-01 (error=0.842E-09) iterations 104(  58 preconditioned, Ep,Sp= 20.0  200.0)
     orbital  10 current e= 0.957E-01 (error=0.835E-09) iterations  62(  16 preconditioned, Ep,Sp= 20.0  200.0)
     orbital  11 current e= 0.957E-01 (error=0.835E-09) iterations  62(  16 preconditioned, Ep,Sp= 20.0  200.0)
     orbital  12 current e= 0.958E-01 (error=0.880E-09) iterations  62(  17 preconditioned, Ep,Sp= 20.0  200.0)
     orbital  13 current e= 0.958E-01 (error=0.880E-09) iterations  62(  17 preconditioned, Ep,Sp= 20.0  200.0)
     orbital  14 current e= 0.985E-01 (error=0.926E-09) iterations  38(   2 preconditioned, Ep,Sp= 20.0  200.0)
     orbital  15 current e= 0.986E-01 (error=0.970E-09) iterations  57(  16 preconditioned, Ep,Sp= 20.0  200.0)
     orbital  16 current e= 0.986E-01 (error=0.970E-09) iterations  57(  16 preconditioned, Ep,Sp= 20.0  200.0)
     orbital  17 current e= 0.987E-01 (error=0.950E-09) iterations  24(   1 preconditioned, Ep,Sp= 20.0  200.0)
     orbital  18 current e= 0.990E-01 (error=0.897E-09) iterations  24(   1 preconditioned, Ep,Sp= 20.0  200.0)

 virtual orbital energies:
     0.9898571E-01 (   2.694eV)
     0.9869320E-01 (   2.686eV)
     0.9857467E-01 (   2.682eV)
     0.9857467E-01 (   2.682eV)
     0.9851285E-01 (   2.681eV)
     0.9575800E-01 (   2.606eV)
     0.9575799E-01 (   2.606eV)
     0.9572449E-01 (   2.605eV)
     0.9572449E-01 (   2.605eV)
     0.9258426E-01 (   2.519eV)
     0.7058125E-01 (   1.921eV)
     0.5715323E-01 (   1.555eV)
     0.4944953E-01 (   1.346eV)
     0.4723936E-01 (   1.285eV)
     0.4723936E-01 (   1.285eV)
     0.4713237E-01 (   1.283eV)
     0.7208601E-02 (   0.196eV)
    -0.1756140E+00 (  -4.779eV)


 == Generating One-Electron and Two-Electron Integrals ==

 begin_one_electron_integrals
    1    1        -0.5913310538
    2    1         0.0000141786
    3    1        -0.0214752101
    4    1        -0.0020822995
    5    1        -0.0000058379
    6    1         0.0000000000
    7    1        -0.0000000001
    8    1         0.0000042444
    9    1         0.0272153940
   10    1         0.0019998412
   11    1        -0.0000000000
   12    1        -0.0000000392
   13    1         0.0000009481
   14    1        -0.0000000000
   15    1        -0.0000000003
   16    1        -0.0000000000
   17    1        -0.0000003003
   18    1         0.0000000338
   19    1         0.0000000243
    2    2        -0.5908681427
    3    2        -0.0000546210
    4    2        -0.0001127080
    5    2        -0.0000002487
    6    2         0.0000000000
    7    2         0.0000000003
    8    2        -0.0206438221
    9    2         0.0000765257
   10    2         0.0001218659
   11    2         0.0000000000
   12    2         0.0000001905
   13    2         0.0000000104
   14    2         0.0000000000
   15    2         0.0000000000
   16    2        -0.0000000000
   17    2         0.0000000001
   18    2         0.0000000412
   19    2        -0.0000000844
    3    3        -0.1873970895
    4    3         0.0102693541
    5    3         0.0000224583
    6    3        -0.0000000000
    7    3        -0.0000000000
    8    3         0.0000035708
    9    3         0.0393251116
   10    3         0.0004742573
   11    3        -0.0000000000
   12    3        -0.0000000117
   13    3         0.0000002898
   14    3        -0.0000000000
   15    3        -0.0000000004
   16    3         0.0000000000
   17    3         0.0000000531
   18    3         0.0000000257
   19    3         0.0000000184
    4    4        -0.1767690963
    5    4         0.0000049174
    6    4        -0.0000000000
    7    4        -0.0000000000
    8    4        -0.0000218427
    9    4        -0.0058376379
   10    4         0.0601361380
   11    4         0.0000000001
   12    4         0.0000041001
   13    4        -0.0000997385
   14    4         0.0000000000
   15    4        -0.0000000095
   16    4         0.0000000001
   17    4         0.0000420126
   18    4         0.0000000318
   19    4         0.0000000214
    5    5        -0.1786147112
    6    5        -0.0000000000
    7    5        -0.0000000000
    8    5        -0.0000000598
    9    5        -0.0000124787
   10    5         0.0001343669
   11    5        -0.0000000313
   12    5        -0.0018418409
   13    5         0.0442855655
   14    5         0.0000000150
   15    5         0.0000050416
   16    5        -0.0000000241
   17    5        -0.0188383744
   18    5        -0.0000000043
   19    5         0.0000000006
    6    6        -0.1786147182
    7    6        -0.0000120917
    8    6        -0.0000000000
    9    6         0.0000000000
   10    6        -0.0000000001
   11    6         0.0018418300
   12    6        -0.0000000313
   13    6        -0.0000000150
   14    6         0.0442856793
   15    6        -0.0000000000
   16    6         0.0188384256
   17    6        -0.0000000241
   18    6        -0.0000001898
   19    6         0.0000019388
    7    7        -0.1484047478
    8    7        -0.0000000000
    9    7         0.0000000002
   10    7        -0.0000000054
   11    7         0.0000007503
   12    7        -0.0000000001
   13    7        -0.0000000000
   14    7         0.0000184338
   15    7        -0.0000000002
   16    7         0.0000042222
   17    7         0.0000000001
   18    7         0.0002172303
   19    7         0.0152853341
    8    8        -0.1388208350
    9    8         0.0000028824
   10    8         0.0000371733
   11    8        -0.0000000000
   12    8        -0.0000001946
   13    8         0.0000000048
   14    8         0.0000000000
   15    8         0.0000000000
   16    8        -0.0000000000
   17    8        -0.0000000049
   18    8         0.0000000589
   19    8        -0.0000001230
    9    9        -0.1289773734
   10    9         0.0093808762
   11    9         0.0000000000
   12    9         0.0000000188
   13    9        -0.0000007016
   14    9         0.0000000000
   15    9         0.0000000004
   16    9        -0.0000000000
   17    9         0.0000000829
   18    9        -0.0000000453
   19    9        -0.0000000326
   10   10        -0.1458353752
   11   10        -0.0000000000
   12   10        -0.0000000226
   13   10         0.0000004787
   14   10         0.0000000000
   15   10        -0.0000000009
   16   10         0.0000000000
   17   10         0.0000000070
   18   10        -0.0000000402
   19   10        -0.0000000296
   11   11        -0.1405307567
   12   11         0.0000000000
   13   11        -0.0000000118
   14   11         0.0006795254
   15   11         0.0000000000
   16   11        -0.0002600982
   17   11        -0.0000000041
   18   11         0.0000040786
   19   11        -0.0000002774
   12   12        -0.1405307565
   13   12        -0.0006795311
   14   12        -0.0000000118
   15   12         0.0000000628
   16   12         0.0000000041
   17   12        -0.0002601002
   18   12        -0.0000000021
   19   12         0.0000000027
   13   13        -0.1245769435
   14   13         0.0000000000
   15   13        -0.0000014025
   16   13         0.0000000091
   17   13         0.0056506165
   18   13         0.0000000027
   19   13        -0.0000000004
   14   14        -0.1245769459
   15   14         0.0000000000
   16   14        -0.0056506166
   17   14         0.0000000091
   18   14        -0.0000001681
   19   14        -0.0000040573
   15   15        -0.1205327010
   16   15        -0.0000000000
   17   15        -0.0000007199
   18   15         0.0000000002
   19   15         0.0000000000
   16   16        -0.1161914184
   17   16        -0.0000000000
   18   16         0.0000000873
   19   16        -0.0000059012
   17   17        -0.1161914200
   18   17        -0.0000000052
   19   17         0.0000000010
   18   18        -0.1031033813
   19   18         0.0000981100
   19   19        -0.0956565843
 end_one_electron_integrals

 begin_two_electron_integrals
    1    1    1    1        0.3043963938
    1    1    2    1       -0.0000141609
    1    1    3    1        0.0214695979
    1    1    4    1        0.0020856799
    1    1    5    1        0.0000058451
    1    1    6    1       -0.0000000000
    1    1    7    1        0.0000000001
    1    1    8    1       -0.0000042925
    1    1    9    1       -0.0272141711
    1    1   10    1       -0.0019938872
    1    1   11    1        0.0000000000
    1    1   12    1        0.0000000392
    1    1   13    1       -0.0000009478
    1    1   14    1        0.0000000000
    1    1   15    1        0.0000000003
    1    1   16    1        0.0000000000
    1    1   17    1        0.0000003001
    1    1   18    1       -0.0000000338
    1    1   19    1       -0.0000000243
    1    1    2    2        0.3086842900
    1    1    3    2        0.0000252192
    1    1    4    2        0.0000444130
    1    1    5    2        0.0000000952
    1    1    6    2       -0.0000000000
    1    1    7    2       -0.0000000003
    1    1    8    2        0.0190012883
    1    1    9    2       -0.0000314034
    1    1   10    2       -0.0000455656
    1    1   11    2       -0.0000000000
    1    1   12    2       -0.0000001724
    1    1   13    2       -0.0000000085
    1    1   14    2       -0.0000000000
    1    1   15    2       -0.0000000000
    1    1   16    2        0.0000000000
    1    1   17    2       -0.0000000007
    1    1   18    2       -0.0000000379
    1    1   19    2        0.0000000782
    1    1    3    3        0.0986363750
    1    1    4    3       -0.0051480732
    1    1    5    3       -0.0000115946
    1    1    6    3        0.0000000000
    1    1    7    3        0.0000000000
    1    1    8    3       -0.0000010890
    1    1    9    3       -0.0214463046
    1    1   10    3       -0.0001627039
    1    1   11    3       -0.0000000000
    1    1   12    3       -0.0000000064
    1    1   13    3        0.0000001727
    1    1   14    3       -0.0000000000
    1    1   15    3        0.0000000004
    1    1   16    3       -0.0000000000
    1    1   17    3       -0.0000000980
    1    1   18    3       -0.0000000150
    1    1   19    3       -0.0000000107
    1    1    4    4        0.1131540561
    1    1    5    4       -0.0000021998
    1    1    6    4        0.0000000000
    1    1    7    4        0.0000000000
    1    1    8    4        0.0000128649
    1    1    9    4        0.0029867007
    1    1   10    4       -0.0318037667
    1    1   11    4       -0.0000000000
    1    1   12    4       -0.0000021451
    1    1   13    4        0.0000522432
    1    1   14    4       -0.0000000000
    1    1   15    4        0.0000000049
    1    1   16    4       -0.0000000000
    1    1   17    4       -0.0000214082
    1    1   18    4       -0.0000000172
    1    1   19    4       -0.0000000115
    1    1    5    5        0.1139588342
    1    1    6    5        0.0000000000
    1    1    7    5        0.0000000000
    1    1    8    5        0.0000000328
    1    1    9    5        0.0000061712
    1    1   10    5       -0.0000708524
    1    1   11    5        0.0000000164
    1    1   12    5        0.0009658464
    1    1   13    5       -0.0232343101
    1    1   14    5       -0.0000000079
    1    1   15    5       -0.0000026397
    1    1   16    5        0.0000000123
    1    1   17    5        0.0096232477
    1    1   18    5        0.0000000022
    1    1   19    5       -0.0000000003
    1    1    6    6        0.1139588372
    1    1    7    6        0.0000059111
    1    1    8    6       -0.0000000000
    1    1    9    6       -0.0000000000
    1    1   10    6        0.0000000000
    1    1   11    6       -0.0009658407
    1    1   12    6        0.0000000164
    1    1   13    6        0.0000000079
    1    1   14    6       -0.0232343690
    1    1   15    6        0.0000000000
    1    1   16    6       -0.0096232735
    1    1   17    6        0.0000000123
    1    1   18    6        0.0000000978
    1    1   19    6       -0.0000009569
    1    1    7    7        0.0989990914
    1    1    8    7        0.0000000000
    1    1    9    7       -0.0000000001
    1    1   10    7        0.0000000027
    1    1   11    7       -0.0000003749
    1    1   12    7        0.0000000000
    1    1   13    7        0.0000000000
    1    1   14    7       -0.0000091784
    1    1   15    7        0.0000000001
    1    1   16    7       -0.0000020727
    1    1   17    7       -0.0000000001
    1    1   18    7       -0.0001089404
    1    1   19    7       -0.0076602581
    1    1    8    8        0.0990012026
    1    1    9    8       -0.0000019300
    1    1   10    8       -0.0000208257
    1    1   11    8        0.0000000000
    1    1   12    8        0.0000002552
    1    1   13    8        0.0000000043
    1    1   14    8       -0.0000000000
    1    1   15    8       -0.0000000000
    1    1   16    8        0.0000000000
    1    1   17    8        0.0000000035
    1    1   18    8       -0.0000000311
    1    1   19    8        0.0000000648
    1    1    9    9        0.1022015274
    1    1   10    9       -0.0048566730
    1    1   11    9       -0.0000000000
    1    1   12    9       -0.0000000087
    1    1   13    9        0.0000003394
    1    1   14    9       -0.0000000000
    1    1   15    9       -0.0000000000
    1    1   16    9        0.0000000000
    1    1   17    9       -0.0000000420
    1    1   18    9        0.0000000257
    1    1   19    9        0.0000000185
    1    1   10   10        0.1217515037
    1    1   11   10        0.0000000000
    1    1   12   10        0.0000000121
    1    1   13   10       -0.0000002477
    1    1   14   10       -0.0000000000
    1    1   15   10        0.0000000005
    1    1   16   10       -0.0000000000
    1    1   17   10        0.0000000152
    1    1   18   10        0.0000000203
    1    1   19   10        0.0000000149
    1    1   11   11        0.1193266665
    1    1   12   11       -0.0000000000
    1    1   13   11        0.0000000059
    1    1   14   11       -0.0003406786
    1    1   15   11       -0.0000000000
    1    1   16   11        0.0001414047
    1    1   17   11        0.0000000022
    1    1   18   11       -0.0000019469
    1    1   19   11        0.0000001375
    1    1   12   12        0.1193266665
    1    1   13   12        0.0003406814
    1    1   14   12        0.0000000059
    1    1   15   12       -0.0000000322
    1    1   16   12       -0.0000000022
    1    1   17   12        0.0001414058
    1    1   18   12        0.0000000011
    1    1   19   12       -0.0000000014
    1    1   13   13        0.1113697235
    1    1   14   13       -0.0000000000
    1    1   15   13        0.0000007129
    1    1   16   13       -0.0000000049
    1    1   17   13       -0.0030350077
    1    1   18   13       -0.0000000014
    1    1   19   13        0.0000000002
    1    1   14   14        0.1113697247
    1    1   15   14       -0.0000000000
    1    1   16   14        0.0030350078
    1    1   17   14       -0.0000000049
    1    1   18   14        0.0000000777
    1    1   19   14        0.0000020408
    1    1   15   15        0.1096987536
    1    1   16   15        0.0000000000
    1    1   17   15        0.0000003248
    1    1   18   15       -0.0000000001
    1    1   19   15       -0.0000000000
    1    1   16   16        0.1076152163
    1    1   17   16        0.0000000000
    1    1   18   16       -0.0000000446
    1    1   19   16        0.0000029337
    1    1   17   17        0.1076152171
    1    1   18   17        0.0000000027
    1    1   19   17       -0.0000000005
    1    1   18   18        0.1009758782
    1    1   19   18       -0.0000498440
    1    1   19   19        0.0973510440
    2    1    2    1        0.2021144561
    2    1    3    1       -0.0000040544
    2    1    4    1       -0.0000238492
    2    1    5    1       -0.0000000583
    2    1    6    1        0.0000000000
    2    1    7    1       -0.0000000002
    2    1    8    1        0.0173613349
    2    1    9    1        0.0000137329
    2    1   10    1        0.0000307919
    2    1   11    1       -0.0000000000
    2    1   12    1       -0.0000001540
    2    1   13    1       -0.0000000066
    2    1   14    1       -0.0000000000
    2    1   15    1       -0.0000000000
    2    1   16    1        0.0000000000
    2    1   17    1       -0.0000000014
    2    1   18    1       -0.0000000346
    2    1   19    1        0.0000000718
    2    1    2    2       -0.0000237774
    2    1    3    2        0.0215441125
    2    1    4    2       -0.0056801339
    2    1    5    2       -0.0000113548
    2    1    6    2        0.0000000000
    2    1    7    2        0.0000000001
    2    1    8    2       -0.0000123196
    2    1    9    2       -0.0285943528
    2    1   10    2        0.0086793311
    2    1   11    2        0.0000000000
    2    1   12    2        0.0000000376
    2    1   13    2       -0.0000011057
    2    1   14    2        0.0000000000
    2    1   15    2        0.0000000006
    2    1   16    2        0.0000000000
    2    1   17    2        0.0000003018
    2    1   18    2       -0.0000000286
    2    1   19    2       -0.0000000210
    2    1    3    3        0.0002445834
    2    1    4    3        0.0003506935
    2    1    5    3        0.0000007807
    2    1    6    3       -0.0000000000
    2    1    7    3       -0.0000000000
    2    1    8    3        0.0201096205
    2    1    9    3       -0.0000863113
    2    1   10    3       -0.0000357151
    2    1   11    3        0.0000000000
    2    1   12    3        0.0000005969
    2    1   13    3        0.0000000246
    2    1   14    3       -0.0000000000
    2    1   15    3       -0.0000000000
    2    1   16    3        0.0000000000
    2    1   17    3        0.0000000069
    2    1   18    3       -0.0000000196
    2    1   19    3        0.0000000403
    2    1    4    4        0.0005932183
    2    1    5    4        0.0000007498
    2    1    6    4       -0.0000000000
    2    1    7    4       -0.0000000001
    2    1    8    4        0.0033608431
    2    1    9    4       -0.0002409017
    2    1   10    4       -0.0002726958
    2    1   11    4        0.0000000012
    2    1   12    4        0.0000664721
    2    1   13    4        0.0000029409
    2    1   14    4       -0.0000000000
    2    1   15    4       -0.0000000002
    2    1   16    4        0.0000000000
    2    1   17    4        0.0000009359
    2    1   18    4       -0.0000000086
    2    1   19    4        0.0000000157
    2    1    5    5        0.0002613769
    2    1    6    5        0.0000000000
    2    1    7    5       -0.0000000000
    2    1    8    5        0.0000078863
    2    1    9    5       -0.0000005378
    2    1   10    5       -0.0000006444
    2    1   11    5       -0.0000005055
    2    1   12    5       -0.0297504985
    2    1   13    5       -0.0013184449
    2    1   14    5       -0.0000000004
    2    1   15    5        0.0000000809
    2    1   16    5       -0.0000000005
    2    1   17    5       -0.0004164036
    2    1   18    5       -0.0000000006
    2    1   19    5        0.0000000008
    2    1    6    6        0.0002613752
    2    1    7    6        0.0000000168
    2    1    8    6       -0.0000000000
    2    1    9    6        0.0000000000
    2    1   10    6       -0.0000000000
    2    1   11    6        0.0297505709
    2    1   12    6       -0.0000005055
    2    1   13    6        0.0000000004
    2    1   14    6       -0.0013184377
    2    1   15    6        0.0000000000
    2    1   16    6        0.0004164047
    2    1   17    6       -0.0000000005
    2    1   18    6        0.0000048201
    2    1   19    6       -0.0000000704
    2    1    7    7        0.0002235267
    2    1    8    7       -0.0000000005
    2    1    9    7        0.0000000002
    2    1   10    7        0.0000000098
    2    1   11    7        0.0000102940
    2    1   12    7       -0.0000000002
    2    1   13    7       -0.0000000002
    2    1   14    7       -0.0000004756
    2    1   15    7       -0.0000000005
    2    1   16    7       -0.0000001453
    2    1   17    7        0.0000000033
    2    1   18    7       -0.0189319153
    2    1   19    7        0.0005819572
    2    1    8    8        0.0000048208
    2    1    9    8       -0.0105831471
    2    1   10    8        0.0009792086
    2    1   11    8       -0.0000000000
    2    1   12    8       -0.0000000030
    2    1   13    8       -0.0000001723
    2    1   14    8        0.0000000000
    2    1   15    8        0.0000000002
    2    1   16    8        0.0000000000
    2    1   17    8        0.0000001244
    2    1   18    8       -0.0000000063
    2    1   19    8       -0.0000000049
    2    1    9    9        0.0003035174
    2    1   10    9        0.0003624472
    2    1   11    9       -0.0000000000
    2    1   12    9       -0.0000003855
    2    1   13    9       -0.0000000140
    2    1   14    9        0.0000000000
    2    1   15    9        0.0000000000
    2    1   16    9       -0.0000000000
    2    1   17    9       -0.0000000072
    2    1   18    9        0.0000000371
    2    1   19    9       -0.0000000759
    2    1   10   10        0.0006137360
    2    1   11   10        0.0000000000
    2    1   12   10        0.0000002927
    2    1   13   10        0.0000000345
    2    1   14   10       -0.0000000000
    2    1   15   10        0.0000000000
    2    1   16   10       -0.0000000000
    2    1   17   10        0.0000000041
    2    1   18   10        0.0000000070
    2    1   19   10       -0.0000000069
    2    1   11   11       -0.0013329860
    2    1   12   11       -0.0000000000
    2    1   13   11        0.0000002735
    2    1   14   11       -0.0157833240
    2    1   15   11       -0.0000000000
    2    1   16   11        0.0034756237
    2    1   17   11        0.0000000546
    2    1   18   11        0.0000000339
    2    1   19   11       -0.0000007561
    2    1   12   12       -0.0013329970
    2    1   13   12        0.0157833223
    2    1   14   12        0.0000002735
    2    1   15   12       -0.0000002127
    2    1   16   12       -0.0000000546
    2    1   17   12        0.0034756233
    2    1   18   12        0.0000000004
    2    1   19   12        0.0000000001
    2    1   13   13        0.0015745629
    2    1   14   13        0.0000000000
    2    1   15   13       -0.0000000304
    2    1   16   13        0.0000000004
    2    1   17   13        0.0002521456
    2    1   18   13        0.0000000012
    2    1   19   13       -0.0000000016
    2    1   14   14        0.0015745519
    2    1   15   14        0.0000000000
    2    1   16   14       -0.0002521443
    2    1   17   14        0.0000000004
    2    1   18   14        0.0000022740
    2    1   19   14       -0.0000000606
    2    1   15   15        0.0002643361
    2    1   16   15       -0.0000000000
    2    1   17   15       -0.0000000538
    2    1   18   15        0.0000000004
    2    1   19   15       -0.0000000007
    2    1   16   16        0.0005451279
    2    1   17   16       -0.0000000000
    2    1   18   16        0.0000005262
    2    1   19   16       -0.0000000318
    2    1   17   17        0.0005451278
    2    1   18   17        0.0000000001
    2    1   19   17        0.0000000005
    2    1   18   18       -0.0000819031
    2    1   19   18       -0.0032146193
    2    1   19   19        0.0005364043
    3    1    3    1        0.0026670591
    3    1    4    1       -0.0000380671
    3    1    5    1       -0.0000007549
    3    1    6    1        0.0000000000
    3    1    7    1        0.0000000000
    3    1    8    1        0.0000014001
    3    1    9    1       -0.0035634477
    3    1   10    1        0.0001498880
    3    1   11    1       -0.0000000000
    3    1   12    1       -0.0000000245
    3    1   13    1        0.0000006347
    3    1   14    1       -0.0000000000
    3    1   15    1        0.0000000003
    3    1   16    1       -0.0000000000
    3    1   17    1       -0.0000001428
    3    1   18    1       -0.0000000043
    3    1   19    1       -0.0000000031
    3    1    2    2        0.0221188805
    3    1    3    2        0.0000048056
    3    1    4    2        0.0000086958
    3    1    5    2        0.0000000165
    3    1    6    2       -0.0000000000
    3    1    7    2       -0.0000000000
    3    1    8    2        0.0023868995
    3    1    9    2       -0.0000067067
    3    1   10    2       -0.0000103410
    3    1   11    2        0.0000000000
    3    1   12    2        0.0000008289
    3    1   13    2        0.0000000369
    3    1   14    2       -0.0000000000
    3    1   15    2       -0.0000000000
    3    1   16    2        0.0000000000
    3    1   17    2        0.0000000020
    3    1   18    2       -0.0000000050
    3    1   19    2        0.0000000102
    3    1    3    3        0.0005496981
    3    1    4    3       -0.0000178943
    3    1    5    3        0.0000043359
    3    1    6    3       -0.0000000000
    3    1    7    3        0.0000000000
    3    1    8    3       -0.0000119238
    3    1    9    3       -0.0008566682
    3    1   10    3        0.0000613868
    3    1   11    3       -0.0000000000
    3    1   12    3       -0.0000000100
    3    1   13    3       -0.0000000577
    3    1   14    3        0.0000000000
    3    1   15    3       -0.0000000032
    3    1   16    3        0.0000000000
    3    1   17    3        0.0000005289
    3    1   18    3       -0.0000000010
    3    1   19    3       -0.0000000007
    3    1    4    4        0.0009669293
    3    1    5    4       -0.0000003468
    3    1    6    4        0.0000000000
    3    1    7    4        0.0000000000
    3    1    8    4       -0.0000040893
    3    1    9    4        0.0000596632
    3    1   10    4       -0.0013818703
    3    1   11    4       -0.0000000000
    3    1   12    4       -0.0000001092
    3    1   13    4        0.0000019205
    3    1   14    4       -0.0000000000
    3    1   15    4       -0.0000000083
    3    1   16    4       -0.0000000000
    3    1   17    4       -0.0000045991
    3    1   18    4       -0.0000000010
    3    1   19    4       -0.0000000007
    3    1    5    5        0.0008257352
    3    1    6    5        0.0000000000
    3    1    7    5        0.0000000000
    3    1    8    5        0.0000000020
    3    1    9    5       -0.0000006921
    3    1   10    5       -0.0000030694
    3    1   11    5        0.0000000009
    3    1   12    5        0.0000522689
    3    1   13    5       -0.0008995603
    3    1   14    5       -0.0000000003
    3    1   15    5        0.0000043424
    3    1   16    5        0.0000000002
    3    1   17    5        0.0001584105
    3    1   18    5        0.0000000001
    3    1   19    5       -0.0000000000
    3    1    6    6        0.0008257408
    3    1    7    6        0.0000022866
    3    1    8    6       -0.0000000000
    3    1    9    6        0.0000000000
    3    1   10    6        0.0000000000
    3    1   11    6       -0.0000522685
    3    1   12    6        0.0000000009
    3    1   13    6        0.0000000003
    3    1   14    6       -0.0008995583
    3    1   15    6       -0.0000000000
    3    1   16    6       -0.0001584203
    3    1   17    6        0.0000000002
    3    1   18    6       -0.0000000137
    3    1   19    6       -0.0000004082
    3    1    7    7        0.0001428895
    3    1    8    7       -0.0000000000
    3    1    9    7       -0.0000000000
    3    1   10    7        0.0000000000
    3    1   11    7       -0.0000001470
    3    1   12    7        0.0000000000
    3    1   13    7       -0.0000000000
    3    1   14    7       -0.0000035143
    3    1   15    7        0.0000000000
    3    1   16    7       -0.0000003239
    3    1   17    7       -0.0000000000
    3    1   18    7        0.0000125597
    3    1   19    7       -0.0000385722
    3    1    8    8        0.0004763393
    3    1    9    8        0.0000012942
    3    1   10    8       -0.0000019346
    3    1   11    8       -0.0000000001
    3    1   12    8       -0.0000044479
    3    1   13    8       -0.0000001876
    3    1   14    8        0.0000000000
    3    1   15    8       -0.0000000000
    3    1   16    8       -0.0000000000
    3    1   17    8       -0.0000000117
    3    1   18    8       -0.0000000012
    3    1   19    8        0.0000000024
    3    1    9    9        0.0011626490
    3    1   10    9       -0.0000925007
    3    1   11    9       -0.0000000000
    3    1   12    9       -0.0000001328
    3    1   13    9        0.0000032286
    3    1   14    9       -0.0000000000
    3    1   15    9       -0.0000000008
    3    1   16    9       -0.0000000000
    3    1   17    9       -0.0000005414
    3    1   18    9        0.0000000015
    3    1   19    9        0.0000000011
    3    1   10   10        0.0019407046
    3    1   11   10        0.0000000000
    3    1   12   10        0.0000000267
    3    1   13   10       -0.0000006567
    3    1   14   10       -0.0000000000
    3    1   15   10        0.0000000006
    3    1   16   10       -0.0000000000
    3    1   17   10       -0.0000008582
    3    1   18   10        0.0000000014
    3    1   19   10        0.0000000010
    3    1   11   11        0.0011329827
    3    1   12   11       -0.0000000000
    3    1   13   11        0.0000000001
    3    1   14   11       -0.0000041377
    3    1   15   11       -0.0000000000
    3    1   16   11        0.0000010057
    3    1   17   11        0.0000000000
    3    1   18   11       -0.0000022133
    3    1   19   11        0.0000000556
    3    1   12   12        0.0011329779
    3    1   13   12        0.0000041376
    3    1   14   12        0.0000000001
    3    1   15   12       -0.0000000962
    3    1   16   12       -0.0000000000
    3    1   17   12        0.0000010058
    3    1   18   12        0.0000000001
    3    1   19   12       -0.0000000001
    3    1   13   13        0.0009726129
    3    1   14   13        0.0000000000
    3    1   15   13        0.0000020141
    3    1   16   13       -0.0000000003
    3    1   17   13       -0.0001664238
    3    1   18   13       -0.0000000001
    3    1   19   13        0.0000000000
    3    1   14   14        0.0009726146
    3    1   15   14       -0.0000000000
    3    1   16   14        0.0001664235
    3    1   17   14       -0.0000000003
    3    1   18   14        0.0000001073
    3    1   19   14        0.0000005761
    3    1   15   15        0.0004244814
    3    1   16   15        0.0000000000
    3    1   17   15        0.0000006098
    3    1   18   15       -0.0000000000
    3    1   19   15        0.0000000000
    3    1   16   16        0.0004821116
    3    1   17   16        0.0000000000
    3    1   18   16        0.0000000178
    3    1   19   16        0.0000019869
    3    1   17   17        0.0004821074
    3    1   18   17        0.0000000001
    3    1   19   17       -0.0000000000
    3    1   18   18        0.0001784515
    3    1   19   18        0.0000044669
    3    1   19   19        0.0001083695
    4    1    4    1        0.0024066479
    4    1    5    1        0.0000009340
    4    1    6    1       -0.0000000000
    4    1    7    1        0.0000000000
    4    1    8    1        0.0000044897
    4    1    9    1        0.0001383573
    4    1   10    1       -0.0034639938
    4    1   11    1       -0.0000000000
    4    1   12    1       -0.0000001901
    4    1   13    1        0.0000047470
    4    1   14    1       -0.0000000000
    4    1   15    1        0.0000000003
    4    1   16    1       -0.0000000000
    4    1   17    1       -0.0000008038
    4    1   18    1       -0.0000000026
    4    1   19    1       -0.0000000017
    4    1    2    2        0.0013076645
    4    1    3    2        0.0000041307
    4    1    4    2        0.0000124631
    4    1    5    2        0.0000000217
    4    1    6    2       -0.0000000000
    4    1    7    2       -0.0000000000
    4    1    8    2       -0.0000030655
    4    1    9    2       -0.0000067957
    4    1   10    2       -0.0000162836
    4    1   11    2        0.0000000001
    4    1   12    2        0.0000050436
    4    1   13    2        0.0000002184
    4    1   14    2       -0.0000000000
    4    1   15    2       -0.0000000000
    4    1   16    2        0.0000000000
    4    1   17    2        0.0000000101
    4    1   18    2       -0.0000000003
    4    1   19    2        0.0000000006
    4    1    3    3        0.0012135077
    4    1    4    3       -0.0021246198
    4    1    5    3        0.0000022917
    4    1    6    3       -0.0000000000
    4    1    7    3       -0.0000000000
    4    1    8    3       -0.0000293641
    4    1    9    3       -0.0003706290
    4    1   10    3        0.0005523374
    4    1   11    3        0.0000000000
    4    1   12    3        0.0000000379
    4    1   13    3       -0.0000014728
    4    1   14    3        0.0000000000
    4    1   15    3       -0.0000000016
    4    1   16    3        0.0000000000
    4    1   17    3        0.0000001938
    4    1   18    3        0.0000000000
    4    1   19    3       -0.0000000000
    4    1    4    4        0.0014206650
    4    1    5    4       -0.0000010767
    4    1    6    4        0.0000000000
    4    1    7    4       -0.0000000000
    4    1    8    4       -0.0000112686
    4    1    9    4        0.0020578994
    4    1   10    4       -0.0002736596
    4    1   11    4       -0.0000000000
    4    1   12    4       -0.0000001046
    4    1   13    4        0.0000008391
    4    1   14    4       -0.0000000000
    4    1   15    4       -0.0000000155
    4    1   16    4       -0.0000000000
    4    1   17    4       -0.0000147488
    4    1   18    4        0.0000000024
    4    1   19    4        0.0000000017
    4    1    5    5        0.0016530146
    4    1    6    5        0.0000000000
    4    1    7    5        0.0000000000
    4    1    8    5       -0.0000000027
    4    1    9    5        0.0000007239
    4    1   10    5        0.0000000983
    4    1   11    5        0.0000000008
    4    1   12    5        0.0000483371
    4    1   13    5       -0.0003912418
    4    1   14    5       -0.0000000001
    4    1   15    5        0.0000075896
    4    1   16    5        0.0000000039
    4    1   17    5        0.0030302202
    4    1   18    5        0.0000000007
    4    1   19    5       -0.0000000001
    4    1    6    6        0.0016530184
    4    1    7    6        0.0000029406
    4    1    8    6       -0.0000000000
    4    1    9    6       -0.0000000000
    4    1   10    6       -0.0000000000
    4    1   11    6       -0.0000483370
    4    1   12    6        0.0000000008
    4    1   13    6        0.0000000001
    4    1   14    6       -0.0003912397
    4    1   15    6       -0.0000000000
    4    1   16    6       -0.0030302436
    4    1   17    6        0.0000000039
    4    1   18    6        0.0000000194
    4    1   19    6        0.0000000395
    4    1    7    7        0.0014295518
    4    1    8    7        0.0000000001
    4    1    9    7       -0.0000000000
    4    1   10    7        0.0000000007
    4    1   11    7       -0.0000002223
    4    1   12    7        0.0000000000
    4    1   13    7        0.0000000000
    4    1   14    7       -0.0000053303
    4    1   15    7        0.0000000000
    4    1   16    7       -0.0000007152
    4    1   17    7       -0.0000000000
    4    1   18    7        0.0000026980
    4    1   19    7       -0.0020189881
    4    1    8    8        0.0012792488
    4    1    9    8        0.0000058345
    4    1   10    8       -0.0000014697
    4    1   11    8       -0.0000000001
    4    1   12    8       -0.0000074390
    4    1   13    8       -0.0000003149
    4    1   14    8        0.0000000000
    4    1   15    8       -0.0000000000
    4    1   16    8       -0.0000000000
    4    1   17    8       -0.0000000227
    4    1   18    8       -0.0000000003
    4    1   19    8        0.0000000006
    4    1    9    9        0.0011751663
    4    1   10    9       -0.0022971667
    4    1   11    9       -0.0000000000
    4    1   12    9       -0.0000002180
    4    1   13    9        0.0000054190
    4    1   14    9       -0.0000000000
    4    1   15    9        0.0000000003
    4    1   16    9       -0.0000000000
    4    1   17    9       -0.0000009126
    4    1   18    9       -0.0000000009
    4    1   19    9       -0.0000000005
    4    1   10   10        0.0014257282
    4    1   11   10        0.0000000000
    4    1   12   10        0.0000000326
    4    1   13   10       -0.0000008509
    4    1   14   10       -0.0000000000
    4    1   15   10       -0.0000000008
    4    1   16   10        0.0000000000
    4    1   17   10        0.0000022176
    4    1   18   10       -0.0000000033
    4    1   19   10       -0.0000000024
    4    1   11   11        0.0015136408
    4    1   12   11       -0.0000000000
    4    1   13   11       -0.0000000002
    4    1   14   11        0.0000094604
    4    1   15   11       -0.0000000000
    4    1   16   11        0.0000454199
    4    1   17   11        0.0000000007
    4    1   18   11       -0.0000032406
    4    1   19   11        0.0000000790
    4    1   12   12        0.0015136389
    4    1   13   12       -0.0000094605
    4    1   14   12       -0.0000000002
    4    1   15   12       -0.0000000368
    4    1   16   12       -0.0000000007
    4    1   17   12        0.0000454205
    4    1   18   12        0.0000000001
    4    1   19   12       -0.0000000000
    4    1   13   13        0.0015720753
    4    1   14   13        0.0000000000
    4    1   15   13        0.0000003430
    4    1   16   13       -0.0000000024
    4    1   17   13       -0.0014646620
    4    1   18   13       -0.0000000005
    4    1   19   13        0.0000000001
    4    1   14   14        0.0015720752
    4    1   15   14       -0.0000000000
    4    1   16   14        0.0014646621
    4    1   17   14       -0.0000000024
    4    1   18   14        0.0000001444
    4    1   19   14        0.0000008078
    4    1   15   15        0.0016200649
    4    1   16   15        0.0000000000
    4    1   17   15        0.0000005918
    4    1   18   15        0.0000000000
    4    1   19   15       -0.0000000001
    4    1   16   16        0.0018257948
    4    1   17   16       -0.0000000000
    4    1   18   16        0.0000000211
    4    1   19   16        0.0000026304
    4    1   17   17        0.0018257938
    4    1   18   17        0.0000000001
    4    1   19   17       -0.0000000000
    4    1   18   18        0.0013993154
    4    1   19   18        0.0000144367
    4    1   19   19        0.0015521945
    5    1    5    1        0.0020635966
    5    1    6    1       -0.0000000000
    5    1    7    1        0.0000000000
    5    1    8    1        0.0000000090
    5    1    9    1        0.0000002866
    5    1   10    1       -0.0000076890
    5    1   11    1        0.0000000015
    5    1   12    1        0.0000902278
    5    1   13    1       -0.0021918590
    5    1   14    1       -0.0000000007
    5    1   15    1       -0.0000002375
    5    1   16    1        0.0000000005
    5    1   17    1        0.0004099246
    5    1   18    1        0.0000000001
    5    1   19    1       -0.0000000000
    5    1    2    2        0.0000041548
    5    1    3    2        0.0000000062
    5    1    4    2        0.0000000231
    5    1    5    2        0.0000018058
    5    1    6    2        0.0000000000
    5    1    7    2       -0.0000000000
    5    1    8    2       -0.0000005322
    5    1    9    2       -0.0000000145
    5    1   10    2       -0.0000000404
    5    1   11    2       -0.0000000399
    5    1   12    2       -0.0023465448
    5    1   13    2       -0.0001006239
    5    1   14    2       -0.0000000000
    5    1   15    2        0.0000000004
    5    1   16    2       -0.0000000000
    5    1   17    2       -0.0000043243
    5    1   18    2       -0.0000000001
    5    1   19    2        0.0000000001
    5    1    3    3        0.0000684520
    5    1    4    3       -0.0000081258
    5    1    5    3       -0.0036264578
    5    1    6    3        0.0000000000
    5    1    7    3        0.0000000000
    5    1    8    3        0.0000000304
    5    1    9    3        0.0000266880
    5    1   10    3       -0.0000040836
    5    1   11    3       -0.0000000004
    5    1   12    3       -0.0000224130
    5    1   13    3        0.0006583781
    5    1   14    3        0.0000000002
    5    1   15    3        0.0000012982
    5    1   16    3       -0.0000000006
    5    1   17    3       -0.0004619335
    5    1   18    3       -0.0000000001
    5    1   19    3        0.0000000000
    5    1    4    4        0.0000425416
    5    1    5    4        0.0005498768
    5    1    6    4        0.0000000000
    5    1    7    4       -0.0000000000
    5    1    8    4       -0.0000000078
    5    1    9    4        0.0000002220
    5    1   10    4        0.0000396484
    5    1   11    4       -0.0000000000
    5    1   12    4       -0.0000025291
    5    1   13    4       -0.0000283803
    5    1   14    4       -0.0000000000
    5    1   15    4        0.0000082646
    5    1   16    4        0.0000000052
    5    1   17    4        0.0040467335
    5    1   18    4        0.0000000009
    5    1   19    4       -0.0000000000
    5    1    5    5        0.0000281381
    5    1    6    5       -0.0000000000
    5    1    7    5       -0.0000000014
    5    1    8    5       -0.0000044050
    5    1    9    5        0.0018362854
    5    1   10    5       -0.0002119214
    5    1   11    5       -0.0000000000
    5    1   12    5       -0.0000013475
    5    1   13    5        0.0000325533
    5    1   14    5       -0.0000000000
    5    1   15    5       -0.0041517589
    5    1   16    5        0.0000000000
    5    1   17    5        0.0000184622
    5    1   18    5        0.0000000016
    5    1   19    5        0.0000000012
    5    1    6    6        0.0000251966
    5    1    7    6       -0.0015034461
    5    1    8    6        0.0000000000
    5    1    9    6        0.0000000000
    5    1   10    6       -0.0000000001
    5    1   11    6        0.0000012452
    5    1   12    6       -0.0000000000
    5    1   13    6       -0.0000000000
    5    1   14    6        0.0000304734
    5    1   15    6        0.0000000038
    5    1   16    6       -0.0000100624
    5    1   17    6        0.0000000000
    5    1   18    6        0.0000051909
    5    1   19    6        0.0002410550
    5    1    7    7        0.0000896320
    5    1    8    7        0.0000000000
    5    1    9    7       -0.0000000000
    5    1   10    7        0.0000000000
    5    1   11    7        0.0001126784
    5    1   12    7       -0.0000000020
    5    1   13    7        0.0000000016
    5    1   14    7        0.0027233617
    5    1   15    7        0.0000000000
    5    1   16    7        0.0002037516
    5    1   17    7       -0.0000000004
    5    1   18    7       -0.0000002934
    5    1   19    7       -0.0000168743
    5    1    8    8        0.0000723278
    5    1    9    8        0.0000000589
    5    1   10    8        0.0000000426
    5    1   11    8        0.0000000646
    5    1   12    8        0.0038014021
    5    1   13    8        0.0001604101
    5    1   14    8        0.0000000000
    5    1   15    8        0.0000000005
    5    1   16    8        0.0000000001
    5    1   17    8        0.0000088713
    5    1   18    8        0.0000000000
    5    1   19    8       -0.0000000001
    5    1    9    9        0.0000804240
    5    1   10    9       -0.0000154871
    5    1   11    9        0.0000000019
    5    1   12    9        0.0001136048
    5    1   13    9       -0.0027671502
    5    1   14    9       -0.0000000009
    5    1   15    9       -0.0000000853
    5    1   16    9        0.0000000007
    5    1   17    9        0.0005490228
    5    1   18    9        0.0000000001
    5    1   19    9       -0.0000000000
    5    1   10   10        0.0000594979
    5    1   11   10       -0.0000000012
    5    1   12   10       -0.0000218638
    5    1   13   10        0.0005350031
    5    1   14   10        0.0000000004
    5    1   15   10        0.0000001344
    5    1   16   10       -0.0000000007
    5    1   17   10       -0.0008979657
    5    1   18   10       -0.0000000004
    5    1   19   10        0.0000000001
    5    1   11   11        0.0000233777
    5    1   12   11        0.0000000000
    5    1   13   11       -0.0000000000
    5    1   14   11        0.0000013797
    5    1   15   11        0.0000000003
    5    1   16   11       -0.0000000747
    5    1   17   11       -0.0000000003
    5    1   18   11        0.0016564016
    5    1   19   11       -0.0000411503
    5    1   12   12        0.0000249636
    5    1   13   12       -0.0000013230
    5    1   14   12       -0.0000000000
    5    1   15   12        0.0000163232
    5    1   16   12        0.0000000000
    5    1   17   12       -0.0000001071
    5    1   18   12       -0.0000000328
    5    1   19   12        0.0000000075
    5    1   13   13        0.0000545965
    5    1   14   13       -0.0000000000
    5    1   15   13       -0.0002391660
    5    1   16   13        0.0000000000
    5    1   17   13        0.0000019130
    5    1   18   13       -0.0000000013
    5    1   19   13       -0.0000000008
    5    1   14   14        0.0000544433
    5    1   15   14        0.0000000001
    5    1   16   14       -0.0000015803
    5    1   17   14        0.0000000000
    5    1   18   14       -0.0000797421
    5    1   19   14       -0.0004450454
    5    1   15   15        0.0000038588
    5    1   16   15       -0.0000000014
    5    1   17   15       -0.0006507926
    5    1   18   15       -0.0000000001
    5    1   19   15        0.0000000000
    5    1   16   16        0.0000271239
    5    1   17   16       -0.0000000000
    5    1   18   16       -0.0000150885
    5    1   19   16       -0.0013062977
    5    1   17   17        0.0000282032
    5    1   18   17        0.0000000001
    5    1   19   17        0.0000000031
    5    1   18   18        0.0000927555
    5    1   19   18       -0.0000000558
    5    1   19   19        0.0000887266
    6    1    6    1        0.0020635946
    6    1    7    1       -0.0000002635
    6    1    8    1       -0.0000000000
    6    1    9    1       -0.0000000000
    6    1   10    1        0.0000000000
    6    1   11    1       -0.0000902272
    6    1   12    1        0.0000000015
    6    1   13    1        0.0000000007
    6    1   14    1       -0.0021918646
    6    1   15    1        0.0000000000
    6    1   16    1       -0.0004099255
    6    1   17    1        0.0000000005
    6    1   18    1        0.0000000058
    6    1   19    1        0.0000000242
    6    1    2    2       -0.0000000000
    6    1    3    2       -0.0000000000
    6    1    4    2        0.0000000000
    6    1    5    2        0.0000000000
    6    1    6    2        0.0000018057
    6    1    7    2       -0.0000000027
    6    1    8    2        0.0000000000
    6    1    9    2        0.0000000000
    6    1   10    2       -0.0000000000
    6    1   11    2        0.0023465505
    6    1   12    2       -0.0000000399
    6    1   13    2        0.0000000000
    6    1   14    2       -0.0001006233
    6    1   15    2        0.0000000000
    6    1   16    2        0.0000043243
    6    1   17    2       -0.0000000000
    6    1   18    2        0.0000006691
    6    1   19    2       -0.0000000083
    6    1    3    3       -0.0000000000
    6    1    4    3        0.0000000000
    6    1    5    3        0.0000000000
    6    1    6    3       -0.0036264520
    6    1    7    3        0.0000620228
    6    1    8    3       -0.0000000000
    6    1    9    3       -0.0000000000
    6    1   10    3        0.0000000000
    6    1   11    3        0.0000224138
    6    1   12    3       -0.0000000004
    6    1   13    3       -0.0000000002
    6    1   14    3        0.0006584025
    6    1   15    3       -0.0000000000
    6    1   16    3        0.0004619325
    6    1   17    3       -0.0000000006
    6    1   18    3       -0.0000002151
    6    1   19    3       -0.0000084096
    6    1    4    4       -0.0000000000
    6    1    5    4        0.0000000000
    6    1    6    4        0.0005498855
    6    1    7    4       -0.0000064186
    6    1    8    4       -0.0000000000
    6    1    9    4        0.0000000000
    6    1   10    4       -0.0000000000
    6    1   11    4        0.0000025348
    6    1   12    4       -0.0000000000
    6    1   13    4        0.0000000000
    6    1   14    4       -0.0000282422
    6    1   15    4       -0.0000000000
    6    1   16    4       -0.0040467737
    6    1   17    4        0.0000000052
    6    1   18    4        0.0000007479
    6    1   19    4        0.0000504612
    6    1    5    5       -0.0000000000
    6    1    6    5       -0.0000193277
    6    1    7    5       -0.0015034581
    6    1    8    5        0.0000000000
    6    1    9    5        0.0000000000
    6    1   10    5       -0.0000000001
    6    1   11    5       -0.0000014154
    6    1   12    5        0.0000000000
    6    1   13    5       -0.0000000000
    6    1   14    5       -0.0000329604
    6    1   15    5        0.0000000038
    6    1   16    5       -0.0000057303
    6    1   17    5        0.0000000000
    6    1   18    5        0.0000051923
    6    1   19    5        0.0002411605
    6    1    6    6        0.0000000000
    6    1    7    6        0.0000000014
    6    1    8    6       -0.0000044050
    6    1    9    6        0.0018363053
    6    1   10    6       -0.0002120172
    6    1   11    6        0.0000000000
    6    1   12    6        0.0000014938
    6    1   13    6       -0.0000346221
    6    1   14    6        0.0000000000
    6    1   15    6        0.0041517754
    6    1   16    6        0.0000000000
    6    1   17    6       -0.0000024508
    6    1   18    6        0.0000000014
    6    1   19    6        0.0000000009
    6    1    7    7       -0.0000000000
    6    1    8    7        0.0000000850
    6    1    9    7       -0.0000146150
    6    1   10    7        0.0000046212
    6    1   11    7       -0.0000000020
    6    1   12    7       -0.0001126777
    6    1   13    7        0.0027233255
    6    1   14    7       -0.0000000016
    6    1   15    7        0.0000015996
    6    1   16    7       -0.0000000005
    6    1   17    7       -0.0002037547
    6    1   18    7       -0.0000000000
    6    1   19    7        0.0000000001
    6    1    8    8       -0.0000000000
    6    1    9    8       -0.0000000000
    6    1   10    8        0.0000000000
    6    1   11    8       -0.0038014046
    6    1   12    8        0.0000000646
    6    1   13    8       -0.0000000001
    6    1   14    8        0.0001604090
    6    1   15    8       -0.0000000000
    6    1   16    8       -0.0000088721
    6    1   17    8       -0.0000000000
    6    1   18    8       -0.0000656491
    6    1   19    8        0.0000009568
    6    1    9    9       -0.0000000000
    6    1   10    9        0.0000000000
    6    1   11    9       -0.0001136031
    6    1   12    9        0.0000000019
    6    1   13    9        0.0000000009
    6    1   14    9       -0.0027671353
    6    1   15    9       -0.0000000000
    6    1   16    9       -0.0005490265
    6    1   17    9        0.0000000007
    6    1   18    9        0.0000001760
    6    1   19    9        0.0000100798
    6    1   10   10       -0.0000000001
    6    1   11   10        0.0000218633
    6    1   12   10        0.0000000005
    6    1   13   10        0.0000000000
    6    1   14   10        0.0005349961
    6    1   15   10       -0.0000000000
    6    1   16   10        0.0008979758
    6    1   17   10       -0.0000000016
    6    1   18   10        0.0000003779
    6    1   19   10        0.0000306682
    6    1   11   11        0.0000000007
    6    1   12   11        0.0000202840
    6    1   13   11       -0.0000013522
    6    1   14   11        0.0000000000
    6    1   15   11        0.0000163232
    6    1   16   11       -0.0000000000
    6    1   17   11       -0.0000002096
    6    1   18   11       -0.0000000264
    6    1   19   11       -0.0000000062
    6    1   12   12       -0.0000000007
    6    1   13   12        0.0000000000
    6    1   14   12        0.0000013516
    6    1   15   12       -0.0000000003
    6    1   16   12       -0.0000002367
    6    1   17   12        0.0000000003
    6    1   18   12       -0.0016564091
    6    1   19   12        0.0000411504
    6    1   13   13       -0.0000000000
    6    1   14   13       -0.0000510146
    6    1   15   13        0.0000000001
    6    1   16   13        0.0000052692
    6    1   17   13       -0.0000000000
    6    1   18   13       -0.0000797430
    6    1   19   13       -0.0004450428
    6    1   14   14       -0.0000000000
    6    1   15   14        0.0002391672
    6    1   16   14       -0.0000000000
    6    1   17   14       -0.0000051321
    6    1   18   14       -0.0000000012
    6    1   19   14       -0.0000000002
    6    1   15   15       -0.0000000000
    6    1   16   15       -0.0006507924
    6    1   17   15        0.0000000014
    6    1   18   15        0.0000000038
    6    1   19   15       -0.0000003766
    6    1   16   16        0.0000000001
    6    1   17   16        0.0000228484
    6    1   18   16       -0.0000000001
    6    1   19   16        0.0000000028
    6    1   17   17       -0.0000000001
    6    1   18   17        0.0000150891
    6    1   19   17        0.0013062998
    6    1   18   18       -0.0000000002
    6    1   19   18        0.0000000006
    6    1   19   19       -0.0000000001
    7    1    7    1        0.0001439087
    7    1    8    1       -0.0000000000
    7    1    9    1       -0.0000000000
    7    1   10    1        0.0000000000
    7    1   11    1        0.0000000003
    7    1   12    1        0.0000000000
    7    1   13    1       -0.0000000000
    7    1   14    1        0.0000000708
    7    1   15    1        0.0000000000
    7    1   16    1        0.0000000750
    7    1   17    1       -0.0000000000
    7    1   18    1       -0.0000006536
    7    1   19    1       -0.0000352709
    7    1    2    2        0.0000000001
    7    1    3    2       -0.0000000000
    7    1    4    2       -0.0000000000
    7    1    5    2       -0.0000000000
    7    1    6    2       -0.0000000026
    7    1    7    2        0.0000002191
    7    1    8    2        0.0000000000
    7    1    9    2        0.0000000000
    7    1   10    2        0.0000000001
    7    1   11    2       -0.0000001246
    7    1   12    2        0.0000000000
    7    1   13    2       -0.0000000000
    7    1   14    2        0.0000000076
    7    1   15    2       -0.0000000000
    7    1   16    2       -0.0000000028
    7    1   17    2        0.0000000000
    7    1   18    2       -0.0001483625
    7    1   19    2        0.0000022490
    7    1    3    3        0.0000000000
    7    1    4    3       -0.0000000000
    7    1    5    3        0.0000000000
    7    1    6    3        0.0000044153
    7    1    7    3       -0.0008183495
    7    1    8    3        0.0000000000
    7    1    9    3       -0.0000000000
    7    1   10    3       -0.0000000000
    7    1   11    3        0.0000000066
    7    1   12    3       -0.0000000000
    7    1   13    3       -0.0000000000
    7    1   14    3       -0.0000001545
    7    1   15    3       -0.0000000000
    7    1   16    3       -0.0000005136
    7    1   17    3        0.0000000000
    7    1   18    3        0.0000034289
    7    1   19    3        0.0001339712
    7    1    4    4        0.0000000000
    7    1    5    4        0.0000000000
    7    1    6    4       -0.0000000638
    7    1    7    4        0.0001334486
    7    1    8    4        0.0000000000
    7    1    9    4       -0.0000000000
    7    1   10    4        0.0000000003
    7    1   11    4       -0.0000000697
    7    1   12    4        0.0000000000
    7    1   13    4        0.0000000000
    7    1   14    4       -0.0000016472
    7    1   15    4        0.0000000000
    7    1   16    4        0.0000038711
    7    1   17    4       -0.0000000000
    7    1   18    4       -0.0000101094
    7    1   19    4       -0.0007751790
    7    1    5    5       -0.0000000002
    7    1    6    5       -0.0002672261
    7    1    7    5        0.0000023949
    7    1    8    5        0.0000000000
    7    1    9    5       -0.0000000000
    7    1   10    5        0.0000000000
    7    1   11    5        0.0000306057
    7    1   12    5       -0.0000000006
    7    1   13    5        0.0000000004
    7    1   14    5        0.0007339577
    7    1   15    5       -0.0000000000
    7    1   16    5        0.0000349763
    7    1   17    5       -0.0000000001
    7    1   18    5       -0.0000000340
    7    1   19    5       -0.0000020287
    7    1    6    6        0.0000000003
    7    1    7    6       -0.0000000000
    7    1    8    6        0.0000000128
    7    1    9    6       -0.0000007912
    7    1   10    6        0.0000000435
    7    1   11    6       -0.0000000005
    7    1   12    6       -0.0000306061
    7    1   13    6        0.0007339608
    7    1   14    6       -0.0000000004
    7    1   15    6       -0.0000038194
    7    1   16    6       -0.0000000001
    7    1   17    6       -0.0000349685
    7    1   18    6       -0.0000000000
    7    1   19    6        0.0000000000
    7    1    7    7        0.0000000000
    7    1    8    7       -0.0000014044
    7    1    9    7        0.0006220780
    7    1   10    7       -0.0001190901
    7    1   11    7        0.0000000000
    7    1   12    7        0.0000001084
    7    1   13    7       -0.0000027458
    7    1   14    7        0.0000000000
    7    1   15    7       -0.0000000020
    7    1   16    7        0.0000000000
    7    1   17    7        0.0000003092
    7    1   18    7       -0.0000000003
    7    1   19    7       -0.0000000002
    7    1    8    8        0.0000000001
    7    1    9    8        0.0000000000
    7    1   10    8       -0.0000000005
    7    1   11    8        0.0000041963
    7    1   12    8       -0.0000000001
    7    1   13    8        0.0000000000
    7    1   14    8       -0.0000001779
    7    1   15    8        0.0000000000
    7    1   16    8        0.0000000228
    7    1   17    8       -0.0000000002
    7    1   18    8        0.0008780744
    7    1   19    8       -0.0000134702
    7    1    9    9        0.0000000000
    7    1   10    9        0.0000000001
    7    1   11    9        0.0000001194
    7    1   12    9       -0.0000000000
    7    1   13    9        0.0000000000
    7    1   14    9        0.0000029132
    7    1   15    9        0.0000000000
    7    1   16    9        0.0000005450
    7    1   17    9       -0.0000000000
    7    1   18    9       -0.0000037155
    7    1   19    9       -0.0001853945
    7    1   10   10       -0.0000000000
    7    1   11   10       -0.0000000244
    7    1   12   10       -0.0000000000
    7    1   13   10       -0.0000000000
    7    1   14   10       -0.0000005877
    7    1   15   10       -0.0000000000
    7    1   16   10        0.0000012773
    7    1   17   10       -0.0000000000
    7    1   18   10        0.0000010850
    7    1   19   10        0.0000601975
    7    1   11   11        0.0000000115
    7    1   12   11        0.0003301378
    7    1   13   11        0.0000020101
    7    1   14   11       -0.0000000000
    7    1   15   11       -0.0000001157
    7    1   16   11        0.0000000001
    7    1   17   11        0.0000058173
    7    1   18   11        0.0000000001
    7    1   19   11       -0.0000000000
    7    1   12   12       -0.0000000115
    7    1   13   12       -0.0000000000
    7    1   14   12       -0.0000020099
    7    1   15   12        0.0000000000
    7    1   16   12        0.0000058174
    7    1   17   12       -0.0000000001
    7    1   18   12        0.0000022488
    7    1   19   12       -0.0000000482
    7    1   13   13       -0.0000000001
    7    1   14   13       -0.0003150012
    7    1   15   13       -0.0000000000
    7    1   16   13       -0.0001270745
    7    1   17   13        0.0000000002
    7    1   18   13        0.0000001113
    7    1   19   13        0.0000003929
    7    1   14   14        0.0000000001
    7    1   15   14       -0.0000024337
    7    1   16   14        0.0000000002
    7    1   17   14        0.0001270742
    7    1   18   14        0.0000000000
    7    1   19   14       -0.0000000000
    7    1   15   15        0.0000000000
    7    1   16   15        0.0000004936
    7    1   17   15       -0.0000000000
    7    1   18   15       -0.0000000000
    7    1   19   15        0.0000000004
    7    1   16   16        0.0000000006
    7    1   17   16        0.0001769985
    7    1   18   16        0.0000000001
    7    1   19   16       -0.0000000000
    7    1   17   17       -0.0000000006
    7    1   18   17       -0.0000000247
    7    1   19   17       -0.0000020566
    7    1   18   18       -0.0000000023
    7    1   19   18        0.0000000020
    7    1   19   19       -0.0000000006
    8    1    8    1        0.0020283421
    8    1    9    1       -0.0000016166
    8    1   10    1       -0.0000051957
    8    1   11    1        0.0000000000
    8    1   12    1        0.0000003130
    8    1   13    1        0.0000000133
    8    1   14    1       -0.0000000000
    8    1   15    1       -0.0000000000
    8    1   16    1        0.0000000000
    8    1   17    1        0.0000000020
    8    1   18    1       -0.0000000042
    8    1   19    1        0.0000000088
    8    1    2    2       -0.0000052100
    8    1    3    2        0.0023382813
    8    1    4    2       -0.0002328418
    8    1    5    2       -0.0000006460
    8    1    6    2        0.0000000000
    8    1    7    2        0.0000000000
    8    1    8    2       -0.0000011833
    8    1    9    2       -0.0031716848
    8    1   10    2        0.0004475704
    8    1   11    2       -0.0000000000
    8    1   12    2       -0.0000000069
    8    1   13    2        0.0000001377
    8    1   14    2       -0.0000000000
    8    1   15    2        0.0000000001
    8    1   16    2        0.0000000000
    8    1   17    2        0.0000000564
    8    1   18    2       -0.0000000036
    8    1   19    2       -0.0000000026
    8    1    3    3       -0.0000009569
    8    1    4    3       -0.0000020748
    8    1    5    3        0.0000000108
    8    1    6    3        0.0000000000
    8    1    7    3       -0.0000000000
    8    1    8    3       -0.0000767089
    8    1    9    3       -0.0000023787
    8    1   10    3       -0.0000040232
    8    1   11    3       -0.0000000000
    8    1   12    3       -0.0000016366
    8    1   13    3       -0.0000000696
    8    1   14    3        0.0000000000
    8    1   15    3       -0.0000000000
    8    1   16    3       -0.0000000000
    8    1   17    3       -0.0000000267
    8    1   18    3       -0.0000000007
    8    1   19    3        0.0000000013
    8    1    4    4        0.0000010645
    8    1    5    4        0.0000000253
    8    1    6    4       -0.0000000000
    8    1    7    4        0.0000000000
    8    1    8    4       -0.0000083003
    8    1    9    4       -0.0000026531
    8    1   10    4       -0.0000073733
    8    1   11    4       -0.0000000000
    8    1   12    4       -0.0000001961
    8    1   13    4       -0.0000000097
    8    1   14    4        0.0000000000
    8    1   15    4       -0.0000000000
    8    1   16    4       -0.0000000000
    8    1   17    4       -0.0000000378
    8    1   18    4       -0.0000000001
    8    1   19    4        0.0000000001
    8    1    5    5       -0.0000004710
    8    1    6    5       -0.0000000000
    8    1    7    5       -0.0000000000
    8    1    8    5        0.0000016664
    8    1    9    5       -0.0000000071
    8    1   10    5       -0.0000000122
    8    1   11    5       -0.0000000000
    8    1   12    5       -0.0000027603
    8    1   13    5       -0.0000017507
    8    1   14    5        0.0000000000
    8    1   15    5        0.0000000139
    8    1   16    5        0.0000000000
    8    1   17    5        0.0000033436
    8    1   18    5       -0.0000000000
    8    1   19    5        0.0000000000
    8    1    6    6       -0.0000004711
    8    1    7    6        0.0000000074
    8    1    8    6       -0.0000000000
    8    1    9    6       -0.0000000000
    8    1   10    6        0.0000000000
    8    1   11    6        0.0000027615
    8    1   12    6       -0.0000000001
    8    1   13    6        0.0000000000
    8    1   14    6       -0.0000017507
    8    1   15    6       -0.0000000000
    8    1   16    6       -0.0000033436
    8    1   17    6       -0.0000000000
    8    1   18    6       -0.0000011817
    8    1   19    6        0.0000000284
    8    1    7    7       -0.0000017133
    8    1    8    7        0.0000000000
    8    1    9    7        0.0000000000
    8    1   10    7       -0.0000000002
    8    1   11    7        0.0000010336
    8    1   12    7       -0.0000000000
    8    1   13    7        0.0000000000
    8    1   14    7       -0.0000000544
    8    1   15    7        0.0000000000
    8    1   16    7        0.0000000175
    8    1   17    7       -0.0000000001
    8    1   18    7        0.0004347506
    8    1   19    7       -0.0000106089
    8    1    8    8        0.0000002821
    8    1    9    8       -0.0004438158
    8    1   10    8       -0.0000170894
    8    1   11    8        0.0000000000
    8    1   12    8        0.0000000093
    8    1   13    8       -0.0000002053
    8    1   14    8        0.0000000000
    8    1   15    8       -0.0000000013
    8    1   16    8       -0.0000000000
    8    1   17    8       -0.0000002167
    8    1   18    8       -0.0000000007
    8    1   19    8       -0.0000000005
    8    1    9    9        0.0000009339
    8    1   10    9        0.0000014246
    8    1   11    9        0.0000000000
    8    1   12    9        0.0000002904
    8    1   13    9        0.0000000244
    8    1   14    9        0.0000000000
    8    1   15    9       -0.0000000000
    8    1   16    9        0.0000000000
    8    1   17    9        0.0000000025
    8    1   18    9        0.0000000006
    8    1   19    9       -0.0000000012
    8    1   10   10        0.0000057902
    8    1   11   10       -0.0000000000
    8    1   12   10       -0.0000000789
    8    1   13   10        0.0000000089
    8    1   14   10       -0.0000000000
    8    1   15   10       -0.0000000000
    8    1   16   10        0.0000000000
    8    1   17   10       -0.0000000073
    8    1   18   10        0.0000000001
    8    1   19   10       -0.0000000003
    8    1   11   11       -0.0000424402
    8    1   12   11        0.0000000000
    8    1   13   11        0.0000000088
    8    1   14   11       -0.0005103820
    8    1   15   11       -0.0000000000
    8    1   16   11       -0.0000416519
    8    1   17   11       -0.0000000007
    8    1   18   11        0.0000000564
    8    1   19   11        0.0000000414
    8    1   12   12       -0.0000424406
    8    1   13   12        0.0005103834
    8    1   14   12        0.0000000089
    8    1   15   12       -0.0000016059
    8    1   16   12        0.0000000007
    8    1   17   12       -0.0000416525
    8    1   18   12       -0.0000000000
    8    1   19   12        0.0000000000
    8    1   13   13        0.0000426702
    8    1   14   13        0.0000000000
    8    1   15   13       -0.0000000608
    8    1   16   13       -0.0000000000
    8    1   17   13        0.0000004746
    8    1   18   13        0.0000000000
    8    1   19   13       -0.0000000000
    8    1   14   14        0.0000426697
    8    1   15   14        0.0000000000
[...]
   16   13   16   16       -0.0000000010
   16   13   17   16        0.0000055321
   16   13   18   16       -0.0000000001
   16   13   19   16        0.0000000000
   16   13   17   17       -0.0000000003
   16   13   18   17        0.0000000746
   16   13   19   17        0.0000073747
   16   13   18   18        0.0000000007
   16   13   19   18       -0.0000000021
   16   13   19   19       -0.0000000018
   17   13   17   13        0.0040343831
   17   13   18   13       -0.0000000002
   17   13   19   13        0.0000000001
   17   13   14   14       -0.0004655178
   17   13   15   14       -0.0000000001
   17   13   16   14       -0.0024398301
   17   13   17   14        0.0000000083
   17   13   18   14       -0.0000002693
   17   13   19   14       -0.0000479154
   17   13   15   15       -0.0004040159
   17   13   16   15        0.0000000001
   17   13   17   15       -0.0000498263
   17   13   18   15       -0.0000000004
   17   13   19   15       -0.0000000017
   17   13   16   16       -0.0006129788
   17   13   17   16        0.0000000007
   17   13   18   16       -0.0000003480
   17   13   19   16       -0.0000057245
   17   13   17   17       -0.0001984031
   17   13   18   17       -0.0000000001
   17   13   19   17        0.0000000001
   17   13   18   18       -0.0002609610
   17   13   19   18       -0.0001118917
   17   13   19   19       -0.0002662458
   18   13   18   13        0.0057522687
   18   13   19   13       -0.0000681160
   18   13   14   14       -0.0000000005
   18   13   15   14        0.0001276504
   18   13   16   14       -0.0000000005
   18   13   17   14        0.0000002394
   18   13   18   14        0.0000000134
   18   13   19   14       -0.0000000145
   18   13   15   15       -0.0000000006
   18   13   16   15       -0.0000023141
   18   13   17   15       -0.0000000008
   18   13   18   15       -0.0000333748
   18   13   19   15        0.0000004728
   18   13   16   16       -0.0000000006
   18   13   17   16       -0.0000031292
   18   13   18   16       -0.0000000009
   18   13   19   16        0.0000000014
   18   13   17   17       -0.0000000007
   18   13   18   17        0.0002032007
   18   13   19   17       -0.0002238833
   18   13   18   18       -0.0000000001
   18   13   19   18       -0.0000000001
   18   13   19   19       -0.0000000005
   19   13   19   13        0.0039863986
   19   13   14   14        0.0000000001
   19   13   15   14       -0.0003196205
   19   13   16   14        0.0000000001
   19   13   17   14        0.0000083161
   19   13   18   14       -0.0000000146
   19   13   19   14        0.0000000001
   19   13   15   15        0.0000000001
   19   13   16   15        0.0039134212
   19   13   17   15       -0.0000000066
   19   13   18   15        0.0000002723
   19   13   19   15       -0.0000251080
   19   13   16   16        0.0000000001
   19   13   17   16       -0.0000119317
   19   13   18   16        0.0000000018
   19   13   19   16       -0.0000000004
   19   13   17   17        0.0000000001
   19   13   18   17       -0.0000561436
   19   13   19   17       -0.0003679224
   19   13   18   18        0.0000000001
   19   13   19   18       -0.0000000001
   19   13   19   19        0.0000000002
   14   14   14   14        0.0945312346
   14   14   15   14        0.0000000001
   14   14   16   14        0.0004151440
   14   14   17   14       -0.0000000007
   14   14   18   14       -0.0000049588
   14   14   19   14       -0.0000230111
   14   14   15   15        0.0956513928
   14   14   16   15       -0.0000000001
   14   14   17   15       -0.0000369136
   14   14   18   15        0.0000000006
   14   14   19   15        0.0000000000
   14   14   16   16        0.0944752544
   14   14   17   16       -0.0000000021
   14   14   18   16       -0.0000017319
   14   14   19   16       -0.0001161828
   14   14   17   17        0.0930702893
   14   14   18   17        0.0000000006
   14   14   19   17        0.0000000001
   14   14   18   18        0.0928521233
   14   14   19   18       -0.0001333759
   14   14   19   19        0.0904573446
   15   14   15   14        0.0039676811
   15   14   16   14       -0.0000000000
   15   14   17   14       -0.0000126836
   15   14   18   14        0.0000000013
   15   14   19   14       -0.0000000002
   15   14   15   15        0.0000000000
   15   14   16   15       -0.0004767952
   15   14   17   15        0.0000000007
   15   14   18   15        0.0000000576
   15   14   19   15       -0.0000006019
   15   14   16   16        0.0000000002
   15   14   17   16        0.0000685522
   15   14   18   16       -0.0000000013
   15   14   19   16        0.0000000032
   15   14   17   17       -0.0000000002
   15   14   18   17        0.0000356579
   15   14   19   17        0.0023907597
   15   14   18   18       -0.0000000000
   15   14   19   18        0.0000000008
   15   14   19   19        0.0000000000
   16   14   16   14        0.0040343805
   16   14   17   14       -0.0000000002
   16   14   18   14        0.0000000520
   16   14   19   14        0.0000065520
   16   14   15   15        0.0004040165
   16   14   16   15        0.0000000002
   16   14   17   15        0.0000485226
   16   14   18   15       -0.0000000004
   16   14   19   15        0.0000000012
   16   14   16   16        0.0001983707
   16   14   17   16        0.0000000007
   16   14   18   16       -0.0000000034
   16   14   19   16        0.0000158697
   16   14   17   17        0.0006129939
   16   14   18   17        0.0000000001
   16   14   19   17       -0.0000000001
   16   14   18   18        0.0002609474
   16   14   19   18        0.0001118911
   16   14   19   19        0.0002662351
   17   14   17   14        0.0035578612
   17   14   18   14       -0.0000000004
   17   14   19   14        0.0000000000
   17   14   15   15       -0.0000000007
   17   14   16   15        0.0000492658
   17   14   17   15       -0.0000000001
   17   14   18   15        0.0000058185
   17   14   19   15        0.0009034176
   17   14   16   16       -0.0000000003
   17   14   17   16       -0.0000055179
   17   14   18   16        0.0000000001
   17   14   19   16       -0.0000000001
   17   14   17   17       -0.0000000010
   17   14   18   17       -0.0000003236
   17   14   19   17       -0.0000140733
   17   14   18   18       -0.0000000015
   17   14   19   18        0.0000000017
   17   14   19   19        0.0000000010
   18   14   18   14        0.0057529635
   18   14   19   14       -0.0000681358
   18   14   15   15        0.0000000614
   18   14   16   15       -0.0000000008
   18   14   17   15       -0.0000023152
   18   14   18   15        0.0000000000
   18   14   19   15        0.0000000001
   18   14   16   16       -0.0000051011
   18   14   17   16        0.0000000001
   18   14   18   16       -0.0002031395
   18   14   19   16        0.0002239015
   18   14   17   17       -0.0000012808
   18   14   18   17        0.0000000015
   18   14   19   17       -0.0000000023
   18   14   18   18       -0.0000115826
   18   14   19   18        0.0000186484
   18   14   19   19       -0.0000136797
   19   14   19   14        0.0039867676
   19   14   15   15       -0.0000009945
   19   14   16   15        0.0000000061
   19   14   17   15        0.0039134412
   19   14   18   15        0.0000000007
   19   14   19   15       -0.0000000000
   19   14   16   16        0.0000100017
   19   14   17   16       -0.0000000001
   19   14   18   16        0.0000561388
   19   14   19   16        0.0003677615
   19   14   17   17       -0.0000331066
   19   14   18   17       -0.0000000021
   19   14   19   17       -0.0000000007
   19   14   18   18       -0.0000416117
   19   14   19   18       -0.0000019914
   19   14   19   19       -0.0000482157
   15   15   15   15        0.1029851415
   15   15   16   15       -0.0000000000
   15   15   17   15       -0.0000023889
   15   15   18   15       -0.0000000000
   15   15   19   15       -0.0000000000
   15   15   16   16        0.0982691857
   15   15   17   16        0.0000000000
   15   15   18   16       -0.0000000239
   15   15   19   16        0.0000017453
   15   15   17   17        0.0982691855
   15   15   18   17        0.0000000012
   15   15   19   17       -0.0000000002
   15   15   18   18        0.0940895828
   15   15   19   18       -0.0001084396
   15   15   19   19        0.0917199927
   16   15   16   15        0.0084686866
   16   15   17   15        0.0000000000
   16   15   18   15       -0.0000000731
   16   15   19   15        0.0000020463
   16   15   16   16       -0.0000000001
   16   15   17   16       -0.0000183214
   16   15   18   16        0.0000000025
   16   15   19   16        0.0000000018
   16   15   17   17        0.0000000000
   16   15   18   17       -0.0000150702
   16   15   19   17       -0.0004497325
   16   15   18   18       -0.0000000000
   16   15   19   18       -0.0000000003
   16   15   19   19        0.0000000000
   17   15   17   15        0.0084686866
   17   15   18   15        0.0000000011
   17   15   19   15       -0.0000000001
   17   15   16   16       -0.0000178082
   17   15   17   16        0.0000000000
   17   15   18   16        0.0000150703
   17   15   19   16        0.0004497280
   17   15   17   17       -0.0000182600
   17   15   18   17       -0.0000000027
   17   15   19   17       -0.0000000018
   17   15   18   18       -0.0000543740
   17   15   19   18       -0.0000011374
   17   15   19   19       -0.0000601548
   18   15   18   15        0.0016124944
   18   15   19   15       -0.0000123180
   18   15   16   16        0.0000000028
   18   15   17   16        0.0000000001
   18   15   18   16       -0.0000000000
   18   15   19   16        0.0000000000
   18   15   17   17       -0.0000000029
   18   15   18   17        0.0000010828
   18   15   19   17       -0.0000003379
   18   15   18   18        0.0000000002
   18   15   19   18       -0.0000000001
   18   15   19   19        0.0000000001
   19   15   19   15        0.0013396952
   19   15   16   16        0.0000000019
   19   15   17   16       -0.0000000095
   19   15   18   16       -0.0000000000
   19   15   19   16       -0.0000000000
   19   15   17   17       -0.0000000021
   19   15   18   17       -0.0000002143
   19   15   19   17       -0.0000061580
   19   15   18   18       -0.0000000001
   19   15   19   18        0.0000000001
   19   15   19   19       -0.0000000002
   16   16   16   16        0.1077889090
   16   16   17   16       -0.0000000339
   16   16   18   16       -0.0000014286
   16   16   19   16       -0.0001474009
   16   16   17   17        0.0863963857
   16   16   18   17       -0.0000000003
   16   16   19   17        0.0000000004
   16   16   18   18        0.0913139639
   16   16   19   18       -0.0001501667
   16   16   19   19        0.0918229504
   17   16   17   16        0.0009507966
   17   16   18   16       -0.0000000000
   17   16   19   16        0.0000000004
   17   16   17   17        0.0000000339
   17   16   18   17        0.0000004617
   17   16   19   17        0.0000516253
   17   16   18   18       -0.0000000022
   17   16   19   18        0.0000000023
   17   16   19   19       -0.0000000001
   18   16   18   16        0.0009964941
   18   16   19   16        0.0000324457
   18   16   17   17        0.0000004269
   18   16   18   17       -0.0000000015
   18   16   19   17        0.0000000011
   18   16   18   18       -0.0000031842
   18   16   19   18       -0.0000206203
   18   16   19   19       -0.0000014229
   19   16   19   16        0.0056807182
   19   16   17   17        0.0000416776
   19   16   18   17        0.0000000012
   19   16   19   17       -0.0000000007
   19   16   18   18       -0.0002198302
   19   16   19   18        0.0000009911
   19   16   19   19       -0.0002328413
   17   17   17   17        0.1077887360
   17   17   18   17        0.0000000030
   17   17   19   17       -0.0000000004
   17   17   18   18        0.0913138666
   17   17   19   18       -0.0001501687
   17   17   19   19        0.0918228959
   18   17   18   17        0.0009964600
   18   17   19   17        0.0000324385
   18   17   18   18       -0.0000000008
   18   17   19   18        0.0000000001
   18   17   19   19        0.0000000002
   19   17   19   17        0.0056798807
   19   17   18   18        0.0000000004
   19   17   19   18        0.0000000006
   19   17   19   19        0.0000000004
   18   18   18   18        0.1013500410
   18   18   19   18       -0.0000003394
   18   18   19   19        0.0934414510
   19   18   19   18        0.0039328895
   19   18   19   19       -0.0002467848
   19   19   19   19        0.0960160955
 end_two_electron_integrals


 output epsi filename:./pspw_hf_H2.emovecs

 Total PSPW energy     :  -0.7724302640E+00


=== Spin Contamination ===

 <Sexact^2> =    0.0000000000000000     
 <S^2>      =    0.0000000000000000     



== Center of Charge ==

spin up     (    0.0000,    0.0000,    0.0005 )
spin down   (    0.0000,    0.0000,    0.0005 )
     total  (    0.0000,    0.0000,    0.0005 )
ionic       (    0.0000,    0.0000,    0.0000 )


== Molecular Dipole wrt Center of Mass ==

mu   =  (   -0.0000,   -0.0000,   -0.0009 ) au
|mu| =     0.0009 au,       0.0024 Debye

 output psi filename:./pspw_hf_H2.movecs

 Writing Crystallographic Information File:./H2.cif
   - cell not shifted (nwpw:cif_shift_cell .false.)


== Timing ==

cputime in seconds
  prologue    :   0.653417E+01
  main loop   :   0.133180E+04
  epilogue    :   0.132288E-01
  total       :   0.133835E+04
  cputime/step:   0.870457E+01       (     153 evalulations,      64 linesearches)


Time spent doing                        total          step       percent
  total time                 :   0.133835E+04  0.874736E+01       100.0 %
  i/o time                   :   0.347217E+00  0.226939E-02         0.0 %
  FFTs                       :   0.114798E+04  0.750311E+01        85.8 %
  dot products               :   0.165747E+01  0.108331E-01         0.1 %
  geodesic                   :   0.146519E+00  0.957641E-03         0.0 %
  ffm_dgemm                  :   0.169724E-01  0.110931E-03         0.0 %
  fmf_dgemm                  :   0.956181E-01  0.624955E-03         0.0 %
  mmm_dgemm                  :   0.190756E-02  0.124677E-04         0.0 %
  m_diagonalize              :   0.104507E-02  0.683052E-05         0.0 %
  local pseudopotentials     :   0.180957E-01  0.118273E-03         0.0 %
  non-local pseudopotentials :   0.288321E+01  0.188445E-01         0.2 %
  structure factors          :   0.121089E+01  0.791432E-02         0.1 %
  phase factors              :   0.635100E-05  0.415098E-07         0.0 %
  masking and packing        :   0.448519E+02  0.293149E+00         3.4 %
  queue fft                  :   0.335764E+01  0.219453E-01         0.3 %
  queue fft (serial)         :   0.142598E+01  0.932013E-02         0.1 %
  queue fft (message passing):   0.178051E+01  0.116373E-01         0.1 %
  HFX potential              :   0.719924E+03  0.470539E+01        53.8 %
  non-local psp FFM          :   0.151348E+01  0.989205E-02         0.1 %
  non-local psp FMF          :   0.378414E+00  0.247329E-02         0.0 %
  non-local psp FFM A        :   0.502575E+00  0.328480E-02         0.0 %
  non-local psp FFM B        :   0.314944E+00  0.205846E-02         0.0 %

== HFX Counters ==
  HFX Evalulations         =   153
  Lin ACE HFX Evalulations =     0


     >>>  JOB COMPLETED     AT Thu May  1 23:41:53 2025  <<<

 Task  times  cpu:     1362.7s     wall:     1338.3s
 Summary of allocated global arrays
-----------------------------------
  No active global arrays


MA_summarize_allocated_blocks: starting scan ...
MA_summarize_allocated_blocks: scan completed: 0 heap blocks, 0 stack blocks
MA usage statistics:

	allocation statistics:
					      heap	     stack
					      ----	     -----
	current number of blocks	         0	         0
	maximum number of blocks	       313	        17
	current total bytes		         0	         0
	maximum total bytes		 955123768	 228700296
	maximum total K-bytes		    955124	    228701
	maximum total M-bytes		       956	       229


                                NWChem Input Module
                                -------------------




                                     CITATION
                                     --------
                Please cite the following reference when publishing
                           results obtained with NWChem:

          E. Apra, E. J. Bylaska, W. A. de Jong, N. Govind, K. Kowalski,
       T. P. Straatsma, M. Valiev, H. J. J. van Dam, Y. Alexeev, J. Anchell,
       V. Anisimov, F. W. Aquino, R. Atta-Fynn, J. Autschbach, N. P. Bauman,
     J. C. Becca, D. E. Bernholdt, K. Bhaskaran-Nair, S. Bogatko, P. Borowski,
         J. Boschen, J. Brabec, A. Bruner, E. Cauet, Y. Chen, G. N. Chuev,
      C. J. Cramer, J. Daily, M. J. O. Deegan, T. H. Dunning Jr., M. Dupuis,
   K. G. Dyall, G. I. Fann, S. A. Fischer, A. Fonari, H. Fruchtl, L. Gagliardi,
      J. Garza, N. Gawande, S. Ghosh, K. Glaesemann, A. W. Gotz, J. Hammond,
       V. Helms, E. D. Hermes, K. Hirao, S. Hirata, M. Jacquelin, L. Jensen,
   B. G. Johnson, H. Jonsson, R. A. Kendall, M. Klemm, R. Kobayashi, V. Konkov,
      S. Krishnamoorthy, M. Krishnan, Z. Lin, R. D. Lins, R. J. Littlefield,
      A. J. Logsdail, K. Lopata, W. Ma, A. V. Marenich, J. Martin del Campo,
   D. Mejia-Rodriguez, J. E. Moore, J. M. Mullin, T. Nakajima, D. R. Nascimento,
    J. A. Nichols, P. J. Nichols, J. Nieplocha, A. Otero-de-la-Roza, B. Palmer,
    A. Panyala, T. Pirojsirikul, B. Peng, R. Peverati, J. Pittner, L. Pollack,
   R. M. Richard, P. Sadayappan, G. C. Schatz, W. A. Shelton, D. W. Silverstein,
   D. M. A. Smith, T. A. Soares, D. Song, M. Swart, H. L. Taylor, G. S. Thomas,
            V. Tipparaju, D. G. Truhlar, K. Tsemekhman, T. Van Voorhis,
      A. Vazquez-Mayagoitia, P. Verma, O. Villa, A. Vishnu, K. D. Vogiatzis,
        D. Wang, J. H. Weare, M. J. Williamson, T. L. Windus, K. Wolinski,
        A. T. Wong, Q. Wu, C. Yang, Q. Yu, M. Zacharias, Z. Zhang, Y. Zhao,
                                and R. J. Harrison
                        "NWChem: Past, present, and future
                         J. Chem. Phys. 152, 184102 (2020)
                               doi:10.1063/5.0004997

                                      AUTHORS
                                      -------
  E. Apra, E. J. Bylaska, N. Govind, K. Kowalski, M. Valiev, D. Mejia-Rodriguez,
       A. Kunitsa, N. P. Bauman, A. Panyala, W. A. de Jong, T. P. Straatsma,
   H. J. J. van Dam, D. Wang, T. L. Windus, J. Hammond, J. Autschbach, A. Woods,
    K. Bhaskaran-Nair, J. Brabec, K. Lopata, S. A. Fischer, S. Krishnamoorthy,
     M. Jacquelin, W. Ma, M. Klemm, O. Villa, Y. Chen, V. Anisimov, F. Aquino,
     S. Hirata, M. T. Hackler, E. Hermes, L. Jensen, J. E. Moore, J. C. Becca,
      V. Konjkov, T. Risthaus, M. Malagoli, A. Marenich, A. Otero-de-la-Roza,
        J. Mullin, P. Nichols, R. Peverati, J. Pittner, Y. Zhao, P.-D. Fan,
        A. Fonari, M. J. Williamson, R. J. Harrison, J. R. Rehr, M. Dupuis,
     D. Silverstein, D. M. A. Smith, J. Nieplocha, V. Tipparaju, M. Krishnan,
     B. E. Van Kuiken, A. Vazquez-Mayagoitia, M. Swart, Q. Wu, T. Van Voorhis,
     A. A. Auer, M. Nooijen, L. D. Crosby, E. Brown, G. Cisneros, G. I. Fann,
   H. Fruchtl, J. Garza, K. Hirao, R. A. Kendall, J. A. Nichols, K. Tsemekhman,
    K. Wolinski, J. Anchell, D. E. Bernholdt, P. Borowski, T. Clark, D. Clerc,
   H. Dachsel, M. J. O. Deegan, K. Dyall, D. Elwood, E. Glendening, M. Gutowski,
   A. C. Hess, J. Jaffe, B. G. Johnson, J. Ju, R. Kobayashi, R. Kutteh, Z. Lin,
   R. Littlefield, X. Long, B. Meng, T. Nakajima, S. Niu, L. Pollack, M. Rosing,
   K. Glaesemann, G. Sandrone, M. Stave, H. Taylor, G. Thomas, J. H. van Lenthe,
                               A. T. Wong, Z. Zhang.

 Total times  cpu:     1362.7s     wall:     1338.4s
