 argument  1 = H2-6.0.nw



============================== echo of input deck ==============================
title "swnc: e theory=pspw4 xc=hf formula=H2 charge=0 mult=1"
#machinejob:expert

echo

start pspw_hf_H2

memory heap 1200 mb stack 1200 mb global 10 mb

charge 0

geometry
H    0.00000    0.00000   -3.00000
H    0.00000    0.00000    3.00000
end

nwpw
  ### pseudopotential block begin ###
  ### pseudopotential block end   ###
  simulation_cell
     SC 20.0000
     boundary_conditions aperiodic
  end

  cutoff 50.0
  mult 1
  xc hf
  lmbfgs
  tolerances 1.0e-9 1.0e-9

  virtual 18
end
set nwpw:cif_filename H2

#set nwpw:CI_maxit_orb 15
#set nwpw:CI_maxit_linesearch 15
set pspw:HFX_screening_radius 14.0


set nwpw:2qintegrals .true.
#set nwpw:3x3_virtual .true.

task pspw energy

================================================================================


                                         
                                         


             Northwest Computational Chemistry Package (NWChem) 7.2.2
             --------------------------------------------------------


                    Environmental Molecular Sciences Laboratory
                       Pacific Northwest National Laboratory
                                Richland, WA 99352

                              Copyright (c) 1994-2022
                       Pacific Northwest National Laboratory
                            Battelle Memorial Institute

             NWChem is an open-source computational chemistry package
                        distributed under the terms of the
                      Educational Community License (ECL) 2.0
             A copy of the license is included with this distribution
                              in the LICENSE.TXT file

                                  ACKNOWLEDGMENT
                                  --------------

            This software and its documentation were developed at the
            EMSL at Pacific Northwest National Laboratory, a multiprogram
            national laboratory, operated for the U.S. Department of Energy
            by Battelle under Contract Number DE-AC05-76RL01830. Support
            for this work was provided by the Department of Energy Office
            of Biological and Environmental Research, Office of Basic
            Energy Sciences, and the Office of Advanced Scientific Computing.


           Job information
           ---------------

    hostname        = LAPTOP-JJQSTSEL
    program         = nwchem
    date            = Thu May  1 23:44:31 2025

    compiled        = Fri_Jun_07_07:50:04_2024
    source          = /home/conda/feedstock_root/build_artifacts/nwchem_1717738148552/work
    nwchem branch   = 7.2.2
    nwchem revision = 64ba0f0
    ga revision     = 5.8.0
    use scalapack   = T
    input           = H2-6.0.nw
    prefix          = pspw_hf_H2.
    data base       = ./pspw_hf_H2.db
    status          = startup
    nproc           =        1
    time left       =     -1s



           Memory information
           ------------------

    heap     =  157286400 doubles =   1200.0 Mbytes
    stack    =  157286397 doubles =   1200.0 Mbytes
    global   =    1310720 doubles =     10.0 Mbytes (distinct from heap & stack)
    total    =  315883517 doubles =   2410.0 Mbytes
    verify   = yes
    hardfail = no 


           Directory information
           ---------------------

  0 permanent = .
  0 scratch   = .




                                NWChem Input Module
                                -------------------


               swnc: e theory=pspw4 xc=hf formula=H2 charge=0 mult=1
               -----------------------------------------------------

 Scaling coordinates for geometry "geometry" by  1.889725989
 (inverse scale =  0.529177249)

 ORDER OF PRIMARY AXIS IS BEING SET TO 4
 D4H symmetry detected

          ------
          auto-z
          ------
     1 autoz failed with cvr_scaling = 1.2 changing to 1.3
     2 autoz failed with cvr_scaling = 1.3 changing to 1.4
     3 autoz failed with cvr_scaling = 1.4 changing to 1.5
     4 autoz failed with cvr_scaling = 1.5 changing to 1.6
     5 autoz failed with cvr_scaling = 1.6 changing to 1.7

 AUTOZ failed to generate good internal coordinates.
 Cartesian coordinates will be used in optimizations.



                             Geometry "geometry" -> ""
                             -------------------------

 Output coordinates in angstroms (scale by  1.889725989 to convert to a.u.)

  No.       Tag          Charge          X              Y              Z
 ---- ---------------- ---------- -------------- -------------- --------------
    1 H                    1.0000     0.00000000     0.00000000    -3.00000000
    2 H                    1.0000     0.00000000     0.00000000     3.00000000

      Atomic Mass 
      ----------- 

      H                  1.007825


 Effective nuclear repulsion energy (a.u.)       0.0881962082

            Nuclear Dipole moment (a.u.) 
            ----------------------------
        X                 Y               Z
 ---------------- ---------------- ----------------
     0.0000000000     0.0000000000     0.0000000000

      Symmetry information
      --------------------

 Group name             D4h       
 Group number             28
 Group order              16
 No. of unique centers     1

      Symmetry unique atoms

     1


            XYZ format geometry
            -------------------
     2
 geometry
 H                     0.00000000     0.00000000    -3.00000000
 H                     0.00000000     0.00000000     3.00000000

          ****************************************************
          *                                                  *
          *               NWPW PSPW Calculation              *
          *                                                  *
          * [ (Grassmann/Stiefel manifold implementation)  ] *
          *                                                  *
          *      [ NorthWest Chemistry implementation ]      *
          *                                                  *
          *            version #5.10   06/12/02              *
          *                                                  *
          *    This code was developed by Eric J. Bylaska,   *
          *    and was based upon algorithms and code        *
          *    developed by the group of Prof. John H. Weare *
          *                                                  *
          ****************************************************
     >>>  JOB STARTED       AT Thu May  1 23:44:31 2025  <<<
          ================ input data ========================

 input psi filename:./pspw_hf_H2.movecs

 number of processors used:         1
 processor grid           :   1 x   1
 parallel mapping         :2d-hilbert
 parallel mapping         :  balanced
 number of threads        :         1
 parallel io              :       off

 options:
      boundary conditions  = aperiodic   (version4)
      electron spin        = restricted
      exchange-correlation = Hartree-Fock
      - HFX relaxed
      - HFX restricted orbitals :    1
      - HFX free-space coulomb solver


 elements involved in the cluster:
      1: H   valence charge:  1.0000  lmax=  1
             comment    : Parameterized (Chem.Phys.Lett., vol 322, page 447) Hamman psp
             pseudpotential type            :   0
             highest angular component      :   1
             local potential used           :   1
             number of non-local projections:   1
             aperiodic cutoff radius        :  1.000
             cutoff =   0.800   0.800


 total charge:   0.000

 atomic composition:
     H   :    2

 number of electrons: spin up=     1 (   1 per task)  down=     1 (   1 per task) (Fourier space)
 number of orbitals : spin up=     1 (   1 per task)  down=     1 (   1 per task) (Fourier space)

 supercell:
      cell_name:  cell_default                                      
      lattice:    a1=<  20.000   0.000   0.000 >
                  a2=<   0.000  20.000   0.000 >
                  a3=<   0.000   0.000  20.000 >
      reciprocal: b1=<   0.314   0.000   0.000 >
                  b2=<   0.000   0.314   0.000 >
                  b3=<   0.000   0.000   0.314 >
      lattice:    a=      20.000 b=     20.000 c=      20.000
                  alpha=  90.000 beta=  90.000 gamma=  90.000
                  omega=      8000.0

      density cutoff=100.000  fft= 96x 96x 96(   191162 waves   191162 per task)
      wavefnc cutoff= 50.000  fft= 96x 96x 96(    67522 waves    67522 per task)

 technical parameters:
      time step=      5.80     fictitious mass=  400000.0
      tolerance=0.100E-08 (energy)   0.100E-08 (density)
      maximum iterations =      1000 (   10 inner    100 outer )





== Energy Calculation ==


          ============ Grassmann lmbfgs iteration ============
     >>>  ITERATION STARTED AT Thu May  1 23:44:38 2025  <<<
    iter.           Energy         DeltaE       DeltaRho 
    ------------------------------------------------------
      10   -0.7468492912E+00   -0.45793E-02    0.24247E-01
     -  10 steepest descent iterations performed
      20   -0.7627968628E+00   -0.59011E-03    0.14988E-03
      30   -0.7640087063E+00   -0.29759E-04    0.16899E-04
      40   -0.7640983807E+00   -0.17759E-05    0.53717E-06
      50   -0.7641054706E+00   -0.19686E-06    0.35520E-07
      60   -0.7641059561E+00   -0.16639E-07    0.22277E-08
      70   -0.7641059992E+00   -0.98894E-09    0.68239E-10
  *** tolerance ok. iteration terminated
     >>>  ITERATION ENDED   AT Thu May  1 23:46:25 2025  <<<


==  Summary Of Results  ==

 number of electrons: spin up=    1.00000  down=    1.00000 (real space)

 total     energy    :  -0.7641059992E+00 (   -0.38205E+00/ion)
 total orbital energy:  -0.5576867948E+00 (   -0.55769E+00/electron)
 hartree   energy    :   0.5892308251E+00 (    0.58923E+00/electron)
 exc-corr  energy    :   0.0000000000E+00 (    0.00000E+00/electron)
 HF exchange energy  :  -0.2946154125E+00 (   -0.29462E+00/electron)
 ion-ion   energy    :   0.8819620817E-01 (    0.44098E-01/ion)

 kinetic (planewave) :   0.6583675963E+00 (    0.65837E+00/electron)
 V_local (planewave) :  -0.1652663485E+01 (   -0.16527E+01/electron)
 V_nl    (planewave) :  -0.1526217316E+00 (   -0.15262E+00/electron)
 V_Coul  (planewave) :   0.1178461650E+01 (    0.11785E+01/electron)
 V_xc.   (planewave) :   0.0000000000E+00 (    0.00000E+00/electron)
 K.S. HFX energy     :  -0.5892308251E+00 (   -0.58923E+00/electron)
 Virial Coefficient  :  -0.9520875109E+00

 orbital energies:
    -0.2788434E+00 (  -7.588eV)


== Virtual Orbital Calculation ==


 input epsi filename:./pspw_hf_H2.emovecs
     orbital   1 current e=-0.184E+00 (error=0.833E-09) iterations  64(  46 preconditioned, Ep,Sp= 20.0  200.0)
     orbital   2 current e= 0.685E-02 (error=0.995E-09) iterations 105(  60 preconditioned, Ep,Sp= 20.0  200.0)
     orbital   3 current e= 0.469E-01 (error=0.918E-09) iterations  58(  23 preconditioned, Ep,Sp= 20.0  200.0)
     orbital   4 current e= 0.469E-01 (error=0.918E-09) iterations  58(  23 preconditioned, Ep,Sp= 20.0  200.0)
     orbital   5 current e= 0.470E-01 (error=0.117E-08) iterations 121(  74 preconditioned, Ep,Sp= 20.0  200.0)
     orbital   5 current e= 0.470E-01 (error=0.526E-09) iterations   2(   1 preconditioned, Ep,Sp= 20.0  200.0)
     orbital   6 current e= 0.491E-01 (error=0.846E-09) iterations  26(   2 preconditioned, Ep,Sp= 20.0  200.0)
     orbital   7 current e= 0.567E-01 (error=0.962E-09) iterations  95(  57 preconditioned, Ep,Sp= 20.0  200.0)
     orbital   8 current e= 0.701E-01 (error=0.271E-08) iterations 121(  58 preconditioned, Ep,Sp= 20.0  200.0)
     orbital   8 current e= 0.701E-01 (error=0.957E-09) iterations   6(   1 preconditioned, Ep,Sp= 20.0  200.0)
     orbital   9 current e= 0.953E-01 (error=0.858E-09) iterations  74(  28 preconditioned, Ep,Sp= 20.0  200.0)
     orbital  10 current e= 0.953E-01 (error=0.857E-09) iterations  74(  28 preconditioned, Ep,Sp= 20.0  200.0)
     orbital  11 current e= 0.954E-01 (error=0.966E-09) iterations  61(  22 preconditioned, Ep,Sp= 20.0  200.0)
     orbital  12 current e= 0.954E-01 (error=0.966E-09) iterations  61(  22 preconditioned, Ep,Sp= 20.0  200.0)
     orbital  13 current e= 0.929E-01 (error=0.853E-09) iterations 113(  72 preconditioned, Ep,Sp= 20.0  200.0)
     orbital  14 current e= 0.982E-01 (error=0.891E-09) iterations  48(   8 preconditioned, Ep,Sp= 20.0  200.0)
     orbital  15 current e= 0.983E-01 (error=0.937E-09) iterations  58(  24 preconditioned, Ep,Sp= 20.0  200.0)
     orbital  16 current e= 0.983E-01 (error=0.937E-09) iterations  58(  24 preconditioned, Ep,Sp= 20.0  200.0)
     orbital  17 current e= 0.984E-01 (error=0.751E-09) iterations  29(   2 preconditioned, Ep,Sp= 20.0  200.0)
     orbital  18 current e= 0.987E-01 (error=0.960E-09) iterations  30(   2 preconditioned, Ep,Sp= 20.0  200.0)

 virtual orbital energies:
     0.9865168E-01 (   2.684eV)
     0.9839654E-01 (   2.678eV)
     0.9827085E-01 (   2.674eV)
     0.9827085E-01 (   2.674eV)
     0.9815431E-01 (   2.671eV)
     0.9540265E-01 (   2.596eV)
     0.9540265E-01 (   2.596eV)
     0.9533167E-01 (   2.594eV)
     0.9533167E-01 (   2.594eV)
     0.9285112E-01 (   2.527eV)
     0.7005279E-01 (   1.906eV)
     0.5671511E-01 (   1.543eV)
     0.4914195E-01 (   1.337eV)
     0.4696435E-01 (   1.278eV)
     0.4691694E-01 (   1.277eV)
     0.4691694E-01 (   1.277eV)
     0.6854246E-02 (   0.187eV)
    -0.1844910E+00 (  -5.020eV)


 == Generating One-Electron and Two-Electron Integrals ==

 begin_one_electron_integrals
    1    1        -0.5734588099
    2    1        -0.0000428643
    3    1        -0.0211988992
    4    1         0.0000000000
    5    1        -0.0000004040
    6    1        -0.0009913164
    7    1         0.0000000001
    8    1         0.0000330206
    9    1         0.0264874037
   10    1        -0.0035431453
   11    1        -0.0000001764
   12    1        -0.0000000000
   13    1        -0.0000000000
   14    1        -0.0000000681
   15    1         0.0000000007
   16    1        -0.0000000000
   17    1        -0.0000005563
   18    1        -0.0000000604
   19    1        -0.0000000334
    2    2        -0.5739565292
    3    2         0.0000648495
    4    2         0.0000000000
    5    2        -0.0000000043
    6    2         0.0001610612
    7    2        -0.0000000003
    8    2         0.0189167589
    9    2        -0.0001225366
   10    2         0.0002214665
   11    2         0.0000000736
   12    2         0.0000000000
   13    2        -0.0000000000
   14    2        -0.0000001956
   15    2        -0.0000000000
   16    2         0.0000000000
   17    2         0.0000000098
   18    2         0.0000000243
   19    2        -0.0000000505
    3    3        -0.1851845997
    4    3         0.0000000000
    5    3        -0.0000001101
    6    3         0.0171144889
    7    3        -0.0000000002
    8    3         0.0000517525
    9    3         0.0360905020
   10    3         0.0006837888
   11    3         0.0000002852
   12    3        -0.0000000000
   13    3        -0.0000000000
   14    3         0.0000000015
   15    3         0.0000000005
   16    3         0.0000000000
   17    3        -0.0000000155
   18    3        -0.0000000313
   19    3        -0.0000000173
    4    4        -0.1729676185
    5    4         0.0000000000
    6    4        -0.0000000000
    7    4        -0.0000118505
    8    4        -0.0000000000
    9    4        -0.0000000000
   10    4         0.0000000000
   11    4        -0.0000000466
   12    4        -0.0390247719
   13    4         0.0048676893
   14    4        -0.0000000495
   15    4        -0.0000000000
   16    4        -0.0179668004
   17    4         0.0000001893
   18    4        -0.0000006478
   19    4        -0.0000014354
    5    5        -0.1729676233
    6    5         0.0000004308
    7    5        -0.0000000000
    8    5         0.0000000009
    9    5         0.0000016407
   10    5        -0.0000076942
   11    5         0.0390247779
   12    5        -0.0000000466
   13    5         0.0000000494
   14    5         0.0048676678
   15    5         0.0000024744
   16    5        -0.0000001893
   17    5        -0.0179667992
   18    5         0.0000000007
   19    5        -0.0000000002
    6    6        -0.1723630432
    7    6         0.0000000002
    8    6        -0.0000658421
    9    6        -0.0129865655
   10    6        -0.0590350395
   11    6        -0.0000134818
   12    6        -0.0000000000
   13    6        -0.0000000000
   14    6        -0.0000016513
   15    6         0.0000000016
   16    6        -0.0000000000
   17    6        -0.0000028868
   18    6        -0.0000001975
   19    6        -0.0000001067
    7    7        -0.1441006847
    8    7         0.0000000002
    9    7        -0.0000000001
   10    7        -0.0000000176
   11    7         0.0000000000
   12    7        -0.0000175029
   13    7         0.0000021932
   14    7        -0.0000000000
   15    7        -0.0000000002
   16    7        -0.0000065964
   17    7         0.0000000000
   18    7         0.0005541591
   19    7         0.0095768585
    8    8        -0.1352518329
    9    8        -0.0000129918
   10    8        -0.0001278108
   11    8        -0.0000000040
   12    8        -0.0000000000
   13    8        -0.0000000000
   14    8        -0.0000001979
   15    8        -0.0000000000
   16    8        -0.0000000000
   17    8        -0.0000000068
   18    8        -0.0000000388
   19    8         0.0000000866
    9    9        -0.1274476300
   10    9        -0.0164375595
   11    9        -0.0000051253
   12    9        -0.0000000000
   13    9        -0.0000000000
   14    9        -0.0000005679
   15    9         0.0000000000
   16    9         0.0000000000
   17    9         0.0000000038
   18    9         0.0000000048
   19    9         0.0000000031
   10   10        -0.1381466615
   11   10        -0.0000045104
   12   10        -0.0000000000
   13   10         0.0000000000
   14   10        -0.0000005363
   15   10         0.0000000003
   16   10        -0.0000000000
   17   10        -0.0000012161
   18   10        -0.0000001512
   19   10        -0.0000000955
   11   11        -0.1191987682
   12   11        -0.0000000000
   13   11         0.0000000168
   14   11         0.0018787452
   15   11         0.0000000104
   16   11         0.0000000051
   17   11         0.0005493657
   18   11        -0.0000000004
   19   11         0.0000000002
   12   12        -0.1191987719
   13   12        -0.0018787533
   14   12         0.0000000168
   15   12        -0.0000000000
   16   12        -0.0005493693
   17   12         0.0000000051
   18   12        -0.0000005359
   19   12         0.0000003477
   13   13        -0.1343208135
   14   13        -0.0000000000
   15   13         0.0000000000
   16   13        -0.0000105342
   17   13         0.0000000000
   18   13        -0.0000046190
   19   13         0.0000002868
   14   14        -0.1343208163
   15   14         0.0000000199
   16   14        -0.0000000000
   17   14        -0.0000105348
   18   14         0.0000000011
   19   14        -0.0000000015
   15   15        -0.1154819367
   16   15        -0.0000000000
   17   15        -0.0000008294
   18   15         0.0000000003
   19   15        -0.0000000003
   16   16        -0.1112714753
   17   16        -0.0000000000
   18   16        -0.0000002908
   19   16         0.0000030199
   17   17        -0.1112714761
   18   17         0.0000000016
   19   17        -0.0000000005
   18   18        -0.0984602159
   19   18         0.0003964394
   19   19        -0.0911015767
 end_one_electron_integrals

 begin_two_electron_integrals
    1    1    1    1        0.2946154125
    1    1    2    1        0.0000427634
    1    1    3    1        0.0211835863
    1    1    4    1       -0.0000000000
    1    1    5    1        0.0000004032
    1    1    6    1        0.0009874005
    1    1    7    1       -0.0000000001
    1    1    8    1       -0.0000330608
    1    1    9    1       -0.0264867357
    1    1   10    1        0.0035431388
    1    1   11    1        0.0000001770
    1    1   12    1        0.0000000000
    1    1   13    1        0.0000000000
    1    1   14    1        0.0000000681
    1    1   15    1       -0.0000000007
    1    1   16    1        0.0000000000
    1    1   17    1        0.0000005560
    1    1   18    1        0.0000000604
    1    1   19    1        0.0000000334
    1    1    2    2        0.3004407783
    1    1    3    2       -0.0000241161
    1    1    4    2        0.0000000000
    1    1    5    2        0.0000000022
    1    1    6    2       -0.0000435368
    1    1    7    2        0.0000000002
    1    1    8    2       -0.0182101403
    1    1    9    2        0.0000515471
    1    1   10    2       -0.0000688862
    1    1   11    2       -0.0000000382
    1    1   12    2       -0.0000000000
    1    1   13    2        0.0000000000
    1    1   14    2        0.0000001913
    1    1   15    2       -0.0000000000
    1    1   16    2       -0.0000000000
    1    1   17    2       -0.0000000015
    1    1   18    2       -0.0000000231
    1    1   19    2        0.0000000500
    1    1    3    3        0.0973855490
    1    1    4    3        0.0000000000
    1    1    5    3       -0.0000003287
    1    1    6    3       -0.0087245139
    1    1    7    3        0.0000000001
    1    1    8    3       -0.0000277059
    1    1    9    3       -0.0198460122
    1    1   10    3       -0.0004164884
    1    1   11    3        0.0000001700
    1    1   12    3       -0.0000000000
    1    1   13    3        0.0000000000
    1    1   14    3        0.0000000428
    1    1   15    3       -0.0000000004
    1    1   16    3       -0.0000000000
    1    1   17    3       -0.0000000239
    1    1   18    3        0.0000000185
    1    1   19    3        0.0000000102
    1    1    4    4        0.1109451202
    1    1    5    4       -0.0000000000
    1    1    6    4        0.0000000000
    1    1    7    4        0.0000057753
    1    1    8    4        0.0000000000
    1    1    9    4        0.0000000000
    1    1   10    4       -0.0000000000
    1    1   11    4        0.0000000246
    1    1   12    4        0.0205643709
    1    1   13    4       -0.0025642547
    1    1   14    4        0.0000000260
    1    1   15    4        0.0000000000
    1    1   16    4        0.0090577293
    1    1   17    4       -0.0000000954
    1    1   18    4        0.0000003262
    1    1   19    4        0.0000007161
    1    1    5    5        0.1109451225
    1    1    6    5       -0.0000002212
    1    1    7    5        0.0000000000
    1    1    8    5       -0.0000000012
    1    1    9    5       -0.0000007614
    1    1   10    5        0.0000039621
    1    1   11    5       -0.0205643738
    1    1   12    5        0.0000000246
    1    1   13    5       -0.0000000260
    1    1   14    5       -0.0025642434
    1    1   15    5       -0.0000011803
    1    1   16    5        0.0000000954
    1    1   17    5        0.0090577286
    1    1   18    5       -0.0000000003
    1    1   19    5        0.0000000001
    1    1    6    6        0.1108069174
    1    1    7    6       -0.0000000001
    1    1    8    6        0.0000333636
    1    1    9    6        0.0067681148
    1    1   10    6        0.0311257312
    1    1   11    6        0.0000071264
    1    1   12    6        0.0000000000
    1    1   13    6        0.0000000000
    1    1   14    6        0.0000008751
    1    1   15    6       -0.0000000009
    1    1   16    6        0.0000000000
    1    1   17    6        0.0000015450
    1    1   18    6        0.0000001047
    1    1   19    6        0.0000000566
    1    1    7    7        0.0966919792
    1    1    8    7       -0.0000000003
    1    1    9    7        0.0000000000
    1    1   10    7        0.0000000088
    1    1   11    7       -0.0000000000
    1    1   12    7        0.0000087118
    1    1   13    7       -0.0000010895
    1    1   14    7        0.0000000000
    1    1   15    7        0.0000000001
    1    1   16    7        0.0000032569
    1    1   17    7       -0.0000000000
    1    1   18    7       -0.0002767060
    1    1   19    7       -0.0047792786
    1    1    8    8        0.0969896649
    1    1    9    8        0.0000113239
    1    1   10    8        0.0000636973
    1    1   11    8       -0.0000000197
    1    1   12    8        0.0000000000
    1    1   13    8        0.0000000000
    1    1   14    8        0.0000002862
    1    1   15    8       -0.0000000000
    1    1   16    8        0.0000000000
    1    1   17    8        0.0000000055
    1    1   18    8        0.0000000195
    1    1   19    8       -0.0000000434
    1    1    9    9        0.1011640513
    1    1   10    9        0.0083965382
    1    1   11    9        0.0000026115
    1    1   12    9        0.0000000000
    1    1   13    9        0.0000000000
    1    1   14    9        0.0000002845
    1    1   15    9       -0.0000000002
    1    1   16    9       -0.0000000000
    1    1   17    9       -0.0000000329
    1    1   18    9       -0.0000000063
    1    1   19    9       -0.0000000037
    1    1   10   10        0.1178229422
    1    1   11   10        0.0000022230
    1    1   12   10        0.0000000000
    1    1   13   10       -0.0000000000
    1    1   14   10        0.0000002629
    1    1   15   10       -0.0000000002
    1    1   16   10        0.0000000000
    1    1   17   10        0.0000005862
    1    1   18   10        0.0000000755
    1    1   19   10        0.0000000476
    1    1   11   11        0.1084577939
    1    1   12   11        0.0000000000
    1    1   13   11       -0.0000000084
    1    1   14   11       -0.0009404634
    1    1   15   11        0.0000000419
    1    1   16   11       -0.0000000029
    1    1   17   11       -0.0003069926
    1    1   18   11        0.0000000002
    1    1   19   11       -0.0000000001
    1    1   12   12        0.1084577958
    1    1   13   12        0.0009404674
    1    1   14   12       -0.0000000084
    1    1   15   12        0.0000000000
    1    1   16   12        0.0003069944
    1    1   17   12       -0.0000000029
    1    1   18   12        0.0000002560
    1    1   19   12       -0.0000001797
    1    1   13   13        0.1160829173
    1    1   14   13        0.0000000000
    1    1   15   13       -0.0000000000
    1    1   16   13        0.0000082634
    1    1   17   13       -0.0000000000
    1    1   18   13        0.0000022069
    1    1   19   13       -0.0000001361
    1    1   14   14        0.1160829187
    1    1   15   14       -0.0000000059
    1    1   16   14        0.0000000000
    1    1   17   14        0.0000082637
    1    1   18   14       -0.0000000006
    1    1   19   14        0.0000000008
    1    1   15   15        0.1069909482
    1    1   16   15        0.0000000000
    1    1   17   15        0.0000004011
    1    1   18   15       -0.0000000001
    1    1   19   15        0.0000000001
    1    1   16   16        0.1049593326
    1    1   17   16        0.0000000000
    1    1   18   16        0.0000001486
    1    1   19   16       -0.0000014726
    1    1   17   17        0.1049593330
    1    1   18   17       -0.0000000008
    1    1   19   17        0.0000000002
    1    1   18   18        0.0985077794
    1    1   19   18       -0.0002013394
    1    1   19   19        0.0949042699
    2    1    2    1        0.2114160426
    2    1    3    1        0.0000159294
    2    1    4    1        0.0000000000
    2    1    5    1        0.0000000001
    2    1    6    1        0.0000738239
    2    1    7    1        0.0000000002
    2    1    8    1       -0.0175081421
    2    1    9    1       -0.0000195370
    2    1   10    1        0.0000840169
    2    1   11    1       -0.0000000027
    2    1   12    1       -0.0000000000
    2    1   13    1        0.0000000000
    2    1   14    1        0.0000001862
    2    1   15    1       -0.0000000000
    2    1   16    1       -0.0000000000
    2    1   17    1        0.0000000069
    2    1   18    1       -0.0000000216
    2    1   19    1        0.0000000491
    2    1    2    2        0.0000609775
    2    1    3    2        0.0229297198
    2    1    4    2       -0.0000000000
    2    1    5    2        0.0000005428
    2    1    6    2       -0.0032662015
    2    1    7    2       -0.0000000000
    2    1    8    2       -0.0000487822
    2    1    9    2       -0.0297550227
    2    1   10    2       -0.0016418327
    2    1   11    2       -0.0000011264
    2    1   12    2        0.0000000000
    2    1   13    2       -0.0000000000
    2    1   14    2       -0.0000000857
    2    1   15    2       -0.0000000006
    2    1   16    2        0.0000000000
    2    1   17    2        0.0000003875
    2    1   18    2        0.0000000481
    2    1   19    2        0.0000000267
    2    1    3    3       -0.0002118749
    2    1    4    3        0.0000000000
    2    1    5    3        0.0000000134
    2    1    6    3       -0.0003201650
    2    1    7    3        0.0000000005
    2    1    8    3       -0.0216736887
    2    1    9    3        0.0001539671
    2    1   10    3       -0.0000262536
    2    1   11    3        0.0000000673
    2    1   12    3       -0.0000000000
    2    1   13    3       -0.0000000000
    2    1   14    3       -0.0000006175
    2    1   15    3        0.0000000000
    2    1   16    3       -0.0000000000
    2    1   17    3       -0.0000000120
    2    1   18    3       -0.0000000138
    2    1   19    3        0.0000000295
    2    1    4    4       -0.0002850582
    2    1    5    4       -0.0000000000
    2    1    6    4       -0.0000000000
    2    1    7    4       -0.0000000150
    2    1    8    4        0.0000000000
    2    1    9    4        0.0000000000
    2    1   10    4        0.0000000000
    2    1   11    4        0.0000000044
    2    1   12    4        0.0037194455
    2    1   13    4        0.0318469927
    2    1   14    4       -0.0000003235
    2    1   15    4        0.0000000000
    2    1   16    4        0.0005652648
    2    1   17    4       -0.0000000060
    2    1   18    4       -0.0000047646
    2    1   19    4        0.0000002985
    2    1    5    5       -0.0002850582
    2    1    6    5        0.0000000065
    2    1    7    5       -0.0000000000
    2    1    8    5        0.0000000194
    2    1    9    5       -0.0000000073
    2    1   10    5       -0.0000000656
    2    1   11    5       -0.0037194280
    2    1   12    5        0.0000000044
    2    1   13    5        0.0000003235
    2    1   14    5        0.0318469967
    2    1   15    5       -0.0000001235
    2    1   16    5        0.0000000060
    2    1   17    5        0.0005652645
    2    1   18    5       -0.0000000004
    2    1   19    5        0.0000000005
    2    1    6    6       -0.0006161122
    2    1    7    6        0.0000000001
    2    1    8    6       -0.0025473041
    2    1    9    6        0.0002673185
    2    1   10    6       -0.0002575218
    2    1   11    6       -0.0000001426
    2    1   12    6        0.0000000000
    2    1   13    6        0.0000000000
    2    1   14    6        0.0000007233
    2    1   15    6        0.0000000000
    2    1   16    6        0.0000000000
    2    1   17    6       -0.0000000033
    2    1   18    6       -0.0000000005
    2    1   19    6       -0.0000000035
    2    1    7    7       -0.0002378925
    2    1    8    7       -0.0000000014
    2    1    9    7       -0.0000000002
    2    1   10    7       -0.0000000639
    2    1   11    7       -0.0000000003
    2    1   12    7        0.0000012602
    2    1   13    7        0.0000106627
    2    1   14    7       -0.0000000001
    2    1   15    7        0.0000000004
    2    1   16    7       -0.0000005356
    2    1   17    7        0.0000000002
    2    1   18    7        0.0206736148
    2    1   19    7       -0.0015136573
    2    1    8    8       -0.0000011758
    2    1    9    8        0.0118756941
    2    1   10    8        0.0005231841
    2    1   11    8        0.0000001843
    2    1   12    8       -0.0000000000
    2    1   13    8        0.0000000000
    2    1   14    8        0.0000000155
    2    1   15    8        0.0000000002
    2    1   16    8       -0.0000000000
    2    1   17    8       -0.0000001114
    2    1   18    8       -0.0000000075
    2    1   19    8       -0.0000000054
    2    1    9    9       -0.0002744113
    2    1   10    9        0.0003215581
    2    1   11    9        0.0000001105
    2    1   12    9        0.0000000000
    2    1   13    9       -0.0000000000
    2    1   14    9       -0.0000002838
    2    1   15    9       -0.0000000000
    2    1   16    9        0.0000000000
    2    1   17    9        0.0000000119
    2    1   18    9        0.0000000265
    2    1   19    9       -0.0000000546
    2    1   10   10       -0.0006980318
    2    1   11   10       -0.0000006013
    2    1   12   10       -0.0000000000
    2    1   13   10        0.0000000000
    2    1   14   10        0.0000043837
    2    1   15   10        0.0000000000
    2    1   16   10        0.0000000000
    2    1   17   10        0.0000000529
    2    1   18   10       -0.0000000158
    2    1   19   10       -0.0000000070
    2    1   11   11        0.0038775551
    2    1   12   11        0.0000000000
    2    1   13   11       -0.0000001523
    2    1   14   11       -0.0169934268
    2    1   15   11       -0.0000000591
    2    1   16   11        0.0000000003
    2    1   17   11        0.0000309825
    2    1   18   11        0.0000000007
    2    1   19   11       -0.0000000010
    2    1   12   12        0.0038775740
    2    1   13   12        0.0169934230
    2    1   14   12       -0.0000001523
    2    1   15   12        0.0000000000
    2    1   16   12       -0.0000309838
    2    1   17   12        0.0000000003
    2    1   18   12        0.0000025368
    2    1   19   12       -0.0000002367
    2    1   13   13       -0.0042261893
    2    1   14   13        0.0000000000
    2    1   15   13        0.0000000000
    2    1   16   13       -0.0023405188
    2    1   17   13        0.0000000009
    2    1   18   13       -0.0000004309
    2    1   19   13       -0.0000002811
    2    1   14   14       -0.0042261701
    2    1   15   14        0.0000009356
    2    1   16   14       -0.0000000009
    2    1   17   14       -0.0023405196
    2    1   18   14       -0.0000000000
    2    1   19   14       -0.0000000001
    2    1   15   15       -0.0002772501
    2    1   16   15        0.0000000000
    2    1   17   15        0.0000000674
    2    1   18   15       -0.0000000003
    2    1   19   15        0.0000000004
    2    1   16   16       -0.0005824306
    2    1   17   16        0.0000000000
    2    1   18   16        0.0000003544
    2    1   19   16       -0.0000001652
    2    1   17   17       -0.0005824306
    2    1   18   17       -0.0000000001
    2    1   19   17        0.0000000002
    2    1   18   18        0.0004606103
    2    1   19   18        0.0043676615
    2    1   19   19       -0.0010115993
    3    1    3    1        0.0027322528
    3    1    4    1        0.0000000000
    3    1    5    1       -0.0000007672
    3    1    6    1       -0.0003359484
    3    1    7    1       -0.0000000000
    3    1    8    1       -0.0000036939
    3    1    9    1       -0.0036004112
    3    1   10    1       -0.0001454913
    3    1   11    1        0.0000006235
    3    1   12    1       -0.0000000000
    3    1   13    1        0.0000000000
    3    1   14    1        0.0000000868
    3    1   15    1       -0.0000000003
    3    1   16    1       -0.0000000000
    3    1   17    1       -0.0000000618
    3    1   18    1        0.0000000060
    3    1   19    1        0.0000000033
    3    1    2    2        0.0219703656
    3    1    3    2       -0.0000034382
    3    1    4    2       -0.0000000000
    3    1    5    2        0.0000000038
    3    1    6    2       -0.0000085914
    3    1    7    2        0.0000000000
    3    1    8    2       -0.0023898167
    3    1    9    2        0.0000076103
    3    1   10    2       -0.0000140046
    3    1   11    2        0.0000000926
    3    1   12    2       -0.0000000000
    3    1   13    2       -0.0000000000
    3    1   14    2       -0.0000008133
    3    1   15    2        0.0000000000
    3    1   16    2       -0.0000000000
    3    1   17    2       -0.0000000058
    3    1   18    2       -0.0000000032
    3    1   19    2        0.0000000068
    3    1    3    3        0.0003226001
    3    1    4    3       -0.0000000000
    3    1    5    3        0.0000045269
    3    1    6    3        0.0000874913
    3    1    7    3       -0.0000000000
    3    1    8    3       -0.0000133439
    3    1    9    3       -0.0008100669
    3    1   10    3       -0.0000563453
    3    1   11    3        0.0000000862
    3    1   12    3       -0.0000000000
    3    1   13    3       -0.0000000000
    3    1   14    3       -0.0000000063
    3    1   15    3        0.0000000032
    3    1   16    3        0.0000000000
    3    1   17    3        0.0000007304
    3    1   18    3        0.0000000012
    3    1   19    3        0.0000000007
    3    1    4    4        0.0005347835
    3    1    5    4        0.0000000000
    3    1    6    4        0.0000000000
    3    1    7    4        0.0000023333
    3    1    8    4        0.0000000000
    3    1    9    4        0.0000000000
    3    1   10    4       -0.0000000000
    3    1   11    4        0.0000000010
    3    1   12    4        0.0008735193
    3    1   13    4       -0.0000899102
    3    1   14    4        0.0000000009
    3    1   15    4        0.0000000000
    3    1   16    4       -0.0001947033
    3    1   17    4        0.0000000021
    3    1   18    4       -0.0000000331
    3    1   19    4       -0.0000002586
    3    1    5    5        0.0005347799
    3    1    6    5       -0.0000003568
    3    1    7    5        0.0000000000
    3    1    8    5        0.0000000130
    3    1    9    5       -0.0000006683
    3    1   10    5        0.0000004632
    3    1   11    5       -0.0008735235
    3    1   12    5        0.0000000010
    3    1   13    5       -0.0000000009
    3    1   14    5       -0.0000899102
    3    1   15    5       -0.0000044867
    3    1   16    5       -0.0000000021
    3    1   17    5       -0.0001947039
    3    1   18    5        0.0000000000
    3    1   19    5        0.0000000000
    3    1    6    6        0.0006064831
    3    1    7    6       -0.0000000000
    3    1    8    6       -0.0000042269
    3    1    9    6        0.0000247209
    3    1   10    6        0.0011531112
    3    1   11    6       -0.0000001951
    3    1   12    6        0.0000000000
    3    1   13    6        0.0000000000
    3    1   14    6       -0.0000000003
    3    1   15    6        0.0000000006
    3    1   16    6       -0.0000000000
    3    1   17    6       -0.0000042985
    3    1   18    6        0.0000000046
    3    1   19    6        0.0000000025
    3    1    7    7       -0.0001001584
    3    1    8    7        0.0000000000
    3    1    9    7        0.0000000000
    3    1   10    7       -0.0000000005
    3    1   11    7        0.0000000000
    3    1   12    7        0.0000034537
    3    1   13    7       -0.0000004278
    3    1   14    7        0.0000000000
    3    1   15    7       -0.0000000000
    3    1   16    7        0.0000009091
    3    1   17    7       -0.0000000000
    3    1   18    7        0.0000259288
    3    1   19    7        0.0002107585
    3    1    8    8        0.0002440856
    3    1    9    8        0.0000031104
    3    1   10    8        0.0000028324
    3    1   11    8        0.0000005623
    3    1   12    8        0.0000000000
    3    1   13    8       -0.0000000000
    3    1   14    8       -0.0000045830
    3    1   15    8        0.0000000000
    3    1   16    8       -0.0000000000
    3    1   17    8       -0.0000000340
    3    1   18    8        0.0000000007
    3    1   19    8       -0.0000000015
    3    1    9    9        0.0009059382
    3    1   10    9       -0.0000276096
    3    1   11    9        0.0000033537
    3    1   12    9       -0.0000000000
    3    1   13    9        0.0000000000
    3    1   14    9        0.0000004173
    3    1   15    9        0.0000000012
    3    1   16    9       -0.0000000000
    3    1   17    9       -0.0000001499
    3    1   18    9       -0.0000000022
    3    1   19    9       -0.0000000012
    3    1   10   10        0.0014775497
    3    1   11   10        0.0000000378
    3    1   12   10       -0.0000000000
    3    1   13   10       -0.0000000000
    3    1   14   10        0.0000000032
    3    1   15   10        0.0000000004
    3    1   16   10        0.0000000000
    3    1   17   10        0.0000009618
    3    1   18   10        0.0000000064
    3    1   19   10        0.0000000036
    3    1   11   11        0.0007686741
    3    1   12   11       -0.0000000000
    3    1   13   11       -0.0000000001
    3    1   14   11       -0.0000108351
    3    1   15   11       -0.0000021307
    3    1   16   11        0.0000000010
    3    1   17   11        0.0001021261
    3    1   18   11       -0.0000000000
    3    1   19   11       -0.0000000000
    3    1   12   12        0.0007686764
    3    1   13   12        0.0000108355
    3    1   14   12       -0.0000000001
    3    1   15   12        0.0000000000
    3    1   16   12       -0.0001021274
    3    1   17   12        0.0000000010
    3    1   18   12        0.0000002699
    3    1   19   12        0.0000001085
    3    1   13   13        0.0008148523
    3    1   14   13       -0.0000000000
    3    1   15   13       -0.0000000000
    3    1   16   13        0.0000086614
    3    1   17   13       -0.0000000000
    3    1   18   13        0.0000022775
    3    1   19   13       -0.0000001361
    3    1   14   14        0.0008148473
    3    1   15   14       -0.0000002442
    3    1   16   14        0.0000000000
    3    1   17   14        0.0000086613
    3    1   18   14       -0.0000000000
    3    1   19   14        0.0000000000
    3    1   15   15        0.0001372488
    3    1   16   15       -0.0000000000
    3    1   17   15       -0.0000000835
    3    1   18   15       -0.0000000000
    3    1   19   15        0.0000000000
    3    1   16   16        0.0001293518
    3    1   17   16       -0.0000000000
    3    1   18   16       -0.0000000924
    3    1   19   16       -0.0000019985
    3    1   17   17        0.0001293470
    3    1   18   17       -0.0000000000
    3    1   19   17        0.0000000000
    3    1   18   18       -0.0000759472
    3    1   19   18        0.0000034854
    3    1   19   19       -0.0001268706
    4    1    4    1        0.0020056794
    4    1    5    1        0.0000000000
    4    1    6    1        0.0000000000
    4    1    7    1       -0.0000002777
    4    1    8    1       -0.0000000000
    4    1    9    1       -0.0000000000
    4    1   10    1       -0.0000000000
    4    1   11    1        0.0000000025
    4    1   12    1        0.0021272436
    4    1   13    1       -0.0002636261
    4    1   14    1        0.0000000027
    4    1   15    1       -0.0000000000
    4    1   16    1        0.0001531264
    4    1   17    1       -0.0000000016
    4    1   18    1        0.0000000047
    4    1   19    1       -0.0000000033
    4    1    2    2       -0.0000000000
    4    1    3    2       -0.0000000000
    4    1    4    2       -0.0000025020
    4    1    5    2        0.0000000000
    4    1    6    2        0.0000000000
    4    1    7    2        0.0000000045
    4    1    8    2       -0.0000000000
    4    1    9    2       -0.0000000000
    4    1   10    2        0.0000000000
    4    1   11    2        0.0000000003
    4    1   12    2        0.0002726121
    4    1   13    2        0.0022564794
    4    1   14    2       -0.0000000229
    4    1   15    2       -0.0000000000
    4    1   16    2        0.0000130721
    4    1   17    2       -0.0000000001
    4    1   18    2       -0.0000005675
    4    1   19    2        0.0000000309
    4    1    3    3       -0.0000000001
    4    1    4    3       -0.0035720077
    4    1    5    3       -0.0000000000
    4    1    6    3       -0.0000000000
    4    1    7    3        0.0000607394
    4    1    8    3        0.0000000000
    4    1    9    3       -0.0000000000
    4    1   10    3        0.0000000000
    4    1   11    3       -0.0000000006
    4    1   12    3       -0.0005336646
    4    1   13    3        0.0000747406
    4    1   14    3       -0.0000000008
    4    1   15    3        0.0000000000
    4    1   16    3       -0.0006123700
    4    1   17    3        0.0000000065
    4    1   18    3       -0.0000005458
    4    1   19    3       -0.0000068823
    4    1    4    4        0.0000000000
    4    1    5    4       -0.0000200273
    4    1    6    4        0.0003531702
    4    1    7    4        0.0000000029
    4    1    8    4       -0.0000038979
    4    1    9    4        0.0016958557
    4    1   10    4       -0.0001294065
    4    1   11    4       -0.0000333739
    4    1   12    4        0.0000000000
    4    1   13    4       -0.0000000000
    4    1   14    4       -0.0000040561
    4    1   15    4       -0.0040594346
    4    1   16    4        0.0000000000
    4    1   17    4        0.0000044195
    4    1   18    4       -0.0000000026
    4    1   19    4       -0.0000000016
    4    1    5    5       -0.0000000001
    4    1    6    5       -0.0000000000
    4    1    7    5       -0.0014682972
    4    1    8    5       -0.0000000000
    4    1    9    5       -0.0000000000
    4    1   10    5       -0.0000000001
    4    1   11    5       -0.0000000001
    4    1   12    5        0.0000317272
    4    1   13    5       -0.0000038490
    4    1   14    5        0.0000000000
    4    1   15    5       -0.0000000080
    4    1   16    5        0.0000047618
    4    1   17    5       -0.0000000000
    4    1   18    5        0.0000048789
    4    1   19    5        0.0000438291
    4    1    6    6       -0.0000000000
    4    1    7    6       -0.0000007315
    4    1    8    6        0.0000000000
    4    1    9    6        0.0000000000
    4    1   10    6       -0.0000000001
    4    1   11    6       -0.0000000005
    4    1   12    6       -0.0004245424
    4    1   13    6        0.0000307062
    4    1   14    6       -0.0000000003
    4    1   15    6       -0.0000000000
    4    1   16    6        0.0039160542
    4    1   17    6       -0.0000000413
    4    1   18    6        0.0000029075
    4    1   19    6        0.0000491309
    4    1    7    7       -0.0000000001
    4    1    8    7        0.0000001260
    4    1    9    7       -0.0000110700
    4    1   10    7        0.0000171638
    4    1   11    7        0.0025580511
    4    1   12    7        0.0000000020
    4    1   13    7        0.0000000025
    4    1   14    7        0.0003183528
    4    1   15    7       -0.0000013971
    4    1   16    7       -0.0000000058
    4    1   17    7       -0.0006672755
    4    1   18    7        0.0000000000
    4    1   19    7       -0.0000000000
    4    1    8    8       -0.0000000001
    4    1    9    8       -0.0000000000
    4    1   10    8        0.0000000002
    4    1   11    8        0.0000000006
    4    1   12    8        0.0004571393
    4    1   13    8        0.0037313352
    4    1   14    8       -0.0000000378
    4    1   15    8       -0.0000000000
    4    1   16    8        0.0000274004
    4    1   17    8       -0.0000000002
    4    1   18    8       -0.0000639012
    4    1   19    8        0.0000036575
    4    1    9    9       -0.0000000001
    4    1   10    9        0.0000000000
    4    1   11    9        0.0000000032
    4    1   12    9        0.0026720325
    4    1   13    9       -0.0003355025
    4    1   14    9        0.0000000034
    4    1   15    9        0.0000000000
    4    1   16    9        0.0003387211
    4    1   17    9       -0.0000000036
    4    1   18    9       -0.0000004884
    4    1   19    9       -0.0000113078
    4    1   10   10        0.0000000001
    4    1   11   10       -0.0000000012
    4    1   12   10       -0.0002493654
    4    1   13   10        0.0000273378
    4    1   14   10        0.0000000047
    4    1   15   10        0.0000000000
    4    1   16   10        0.0008119773
    4    1   17   10       -0.0000000110
    4    1   18   10       -0.0000017286
    4    1   19   10       -0.0000313282
    4    1   11   11       -0.0000000000
    4    1   12   11        0.0000495420
    4    1   13   11       -0.0000035911
    4    1   14   11        0.0000000001
    4    1   15   11       -0.0000000002
    4    1   16   11        0.0000031793
    4    1   17   11       -0.0000000000
    4    1   18   11        0.0001998177
    4    1   19   11        0.0001408084
    4    1   12   12       -0.0000000001
    4    1   13   12        0.0000000000
    4    1   14   12        0.0000035887
    4    1   15   12        0.0002890972
    4    1   16   12       -0.0000000000
    4    1   17   12       -0.0000029845
    4    1   18   12       -0.0000000023
    4    1   19   12       -0.0000000020
    4    1   13   13       -0.0000000004
    4    1   14   13       -0.0000201446
    4    1   15   13       -0.0000266592
    4    1   16   13        0.0000000000
    4    1   17   13        0.0000003370
    4    1   18   13       -0.0000000106
    4    1   19   13       -0.0000000039
    4    1   14   14        0.0000000003
    4    1   15   14        0.0000000002
    4    1   16   14        0.0000004129
    4    1   17   14       -0.0000000000
    4    1   18   14       -0.0016112302
    4    1   19   14        0.0001028231
    4    1   15   15        0.0000000000
    4    1   16   15       -0.0002007634
    4    1   17   15        0.0000000017
    4    1   18   15       -0.0000000192
    4    1   19   15       -0.0000002530
    4    1   16   16       -0.0000000004
    4    1   17   16       -0.0000223151
    4    1   18   16        0.0000000032
    4    1   19   16        0.0000000123
    4    1   17   17        0.0000000004
    4    1   18   17        0.0000627664
    4    1   19   17        0.0012705797
    4    1   18   18       -0.0000000000
    4    1   19   18       -0.0000000003
    4    1   19   19       -0.0000000001
    5    1    5    1        0.0020056789
    5    1    6    1       -0.0000000533
    5    1    7    1       -0.0000000000
    5    1    8    1       -0.0000000024
    5    1    9    1        0.0000000081
    5    1   10    1        0.0000002505
    5    1   11    1       -0.0021272433
    5    1   12    1        0.0000000025
    5    1   13    1       -0.0000000027
    5    1   14    1       -0.0002636248
    5    1   15    1        0.0000001141
    5    1   16    1        0.0000000016
    5    1   17    1        0.0001531263
    5    1   18    1       -0.0000000000
    5    1   19    1        0.0000000000
    5    1    2    2        0.0000004154
    5    1    3    2        0.0000000043
    5    1    4    2        0.0000000000
    5    1    5    2       -0.0000025020
    5    1    6    2        0.0000000023
    5    1    7    2       -0.0000000000
    5    1    8    2        0.0000005658
    5    1    9    2       -0.0000000021
    5    1   10    2       -0.0000000022
    5    1   11    2       -0.0002726108
    5    1   12    2        0.0000000003
    5    1   13    2        0.0000000229
    5    1   14    2        0.0022564793
    5    1   15    2       -0.0000000036
    5    1   16    2        0.0000000001
    5    1   17    2        0.0000130720
    5    1   18    2       -0.0000000001
    5    1   19    2        0.0000000001
    5    1    3    3        0.0000643456
    5    1    4    3       -0.0000000000
    5    1    5    3       -0.0035719929
    5    1    6    3        0.0000017714
    5    1    7    3        0.0000000001
    5    1    8    3        0.0000001906
    5    1    9    3        0.0000297934
    5    1   10    3        0.0000068531
    5    1   11    3        0.0005336435
    5    1   12    3       -0.0000000006
    5    1   13    3        0.0000000008
    5    1   14    3        0.0000747377
    5    1   15    3       -0.0000011274
    5    1   16    3       -0.0000000065
    5    1   17    3       -0.0006123660
    5    1   18    3       -0.0000000000
    5    1   19    3       -0.0000000000
    5    1    4    4        0.0000208997
    5    1    5    4       -0.0000000000
    5    1    6    4       -0.0000000000
    5    1    7    4       -0.0014683056
    5    1    8    4       -0.0000000000
    5    1    9    4       -0.0000000000
    5    1   10    4       -0.0000000001
    5    1   11    4       -0.0000000001
    5    1   12    4       -0.0000301773
    5    1   13    4        0.0000036608
    5    1   14    4       -0.0000000000
    5    1   15    4       -0.0000000080
    5    1   16    4       -0.0000046822
    5    1   17    4        0.0000000001
    5    1   18    4        0.0000048790
    5    1   19    4        0.0000438342
    5    1    5    5        0.0000215496
    5    1    6    5        0.0003531690
    5    1    7    5       -0.0000000029
    5    1    8    5       -0.0000038979
    5    1    9    5        0.0016958361
    5    1   10    5       -0.0001294127
    5    1   11    5        0.0000321708
    5    1   12    5       -0.0000000000
    5    1   13    5        0.0000000000
    5    1   14    5        0.0000038977
    5    1   15    5        0.0040594327
    5    1   16    5       -0.0000000000
    5    1   17    5       -0.0000042135
    5    1   18    5       -0.0000000027
    5    1   19    5       -0.0000000013
    5    1    6    6        0.0000391989
    5    1    7    6       -0.0000000000
    5    1    8    6        0.0000000173
    5    1    9    6       -0.0000049597
    5    1   10    6       -0.0000379550
    5    1   11    6        0.0004245356
    5    1   12    6       -0.0000000005
    5    1   13    6        0.0000000003
    5    1   14    6        0.0000307050
    5    1   15    6       -0.0000006496
    5    1   16    6        0.0000000413
    5    1   17    6        0.0039160545
    5    1   18    6       -0.0000000002
    5    1   19    6        0.0000000000
    5    1    7    7        0.0000844731
    5    1    8    7       -0.0000000000
    5    1    9    7       -0.0000000000
    5    1   10    7        0.0000000000
    5    1   11    7        0.0000000020
    5    1   12    7       -0.0025580870
    5    1   13    7        0.0003183587
    5    1   14    7       -0.0000000027
    5    1   15    7       -0.0000000000
    5    1   16    7       -0.0006672823
    5    1   17    7        0.0000000057
    5    1   18    7       -0.0000006645
    5    1   19    7       -0.0000080531
    5    1    8    8        0.0000675320
    5    1    9    8        0.0000000489
    5    1   10    8       -0.0000000899
    5    1   11    8       -0.0004571379
    5    1   12    8        0.0000000004
    5    1   13    8        0.0000000380
    5    1   14    8        0.0037313393
    5    1   15    8       -0.0000000103
    5    1   16    8        0.0000000004
    5    1   17    8        0.0000273982
    5    1   18    8       -0.0000000001
    5    1   19    8        0.0000000001
    5    1    9    9        0.0000785203
    5    1   10    9       -0.0000023551
    5    1   11    9       -0.0026720576
    5    1   12    9        0.0000000032
    5    1   13    9       -0.0000000034
    5    1   14    9       -0.0003355039
    5    1   15    9       -0.0000002304
    5    1   16    9        0.0000000036
    5    1   17    9        0.0003387223
    5    1   18    9       -0.0000000000
    5    1   19    9        0.0000000000
    5    1   10   10        0.0000544191
    5    1   11   10        0.0002493528
    5    1   12   10        0.0000000006
    5    1   13   10        0.0000000053
    5    1   14   10        0.0000273362
    5    1   15   10       -0.0000002862
    5    1   16   10        0.0000000062
    5    1   17   10        0.0008119688
    5    1   18   10       -0.0000000002
    5    1   19   10       -0.0000000001
    5    1   11   11        0.0000498548
    5    1   12   11        0.0000000001
    5    1   13   11        0.0000000000
    5    1   14   11        0.0000034729
    5    1   15   11        0.0002890958
    5    1   16   11       -0.0000000000
    5    1   17   11       -0.0000024401
    5    1   18   11        0.0000000026
    5    1   19   11        0.0000000021
    5    1   12   12        0.0000493318
    5    1   13   12       -0.0000036098
    5    1   14   12        0.0000000000
    5    1   15   12        0.0000000002
    5    1   16   12        0.0000031676
    5    1   17   12       -0.0000000000
    5    1   18   12       -0.0001998181
    5    1   19   12       -0.0001408131
    5    1   13   13        0.0000198352
    5    1   14   13       -0.0000000000
    5    1   15   13        0.0000000002
    5    1   16   13       -0.0000002977
    5    1   17   13       -0.0000000000
    5    1   18   13       -0.0016112262
    5    1   19   13        0.0001028236
    5    1   14   14        0.0000214092
    5    1   15   14        0.0000266588
    5    1   16   14       -0.0000000000
    5    1   17   14       -0.0000002655
    5    1   18   14        0.0000000157
    5    1   19   14       -0.0000000055
    5    1   15   15       -0.0000001418
    5    1   16   15        0.0000000017
    5    1   17   15        0.0002007631
    5    1   18   15        0.0000000000
    5    1   19   15       -0.0000000000
    5    1   16   16        0.0000219137
    5    1   17   16       -0.0000000000
    5    1   18   16        0.0000627647
    5    1   19   16        0.0012705766
    5    1   17   17        0.0000236392
    5    1   18   17        0.0000000021
    5    1   19   17       -0.0000000095
    5    1   18   18        0.0000874908
    5    1   19   18       -0.0000002662
    5    1   19   19        0.0000832328
    6    1    6    1        0.0022864432
    6    1    7    1       -0.0000000000
    6    1    8    1        0.0000045355
    6    1    9    1        0.0005502168
    6    1   10    1        0.0032137345
    6    1   11    1        0.0000007701
    6    1   12    1        0.0000000000
    6    1   13    1        0.0000000000
    6    1   14    1        0.0000000988
    6    1   15    1       -0.0000000001
    6    1   16    1        0.0000000000
    6    1   17    1        0.0000002034
    6    1   18    1        0.0000000119
    6    1   19    1        0.0000000065
    6    1    2    2        0.0009197376
    6    1    3    2        0.0000000092
    6    1    4    2       -0.0000000000
    6    1    5    2        0.0000000041
    6    1    6    2       -0.0000182634
    6    1    7    2       -0.0000000000
    6    1    8    2        0.0002987178
    6    1    9    2        0.0000017032
    6    1   10    2       -0.0000248423
    6    1   11    2       -0.0000000113
    6    1   12    2        0.0000000000
    6    1   13    2        0.0000000000
    6    1   14    2        0.0000000137
    6    1   15    2        0.0000000000
    6    1   16    2        0.0000000000
    6    1   17    2       -0.0000000020
    6    1   18    2        0.0000000004
    6    1   19    2       -0.0000000011
    6    1    3    3        0.0017323696
    6    1    4    3       -0.0000000000
    6    1    5    3        0.0000000941
    6    1    6    3       -0.0023051298
    6    1    7    3        0.0000000000
    6    1    8    3       -0.0000439205
    6    1    9    3       -0.0004599460
    6    1   10    3       -0.0006145140
    6    1   11    3       -0.0000002230
    6    1   12    3       -0.0000000000
    6    1   13    3       -0.0000000000
    6    1   14    3       -0.0000000409
    6    1   15    3        0.0000000006
    6    1   16    3       -0.0000000000
    6    1   17    3       -0.0000007711
    6    1   18    3       -0.0000000015
    6    1   19    3       -0.0000000008
    6    1    4    4        0.0019178298
    6    1    5    4       -0.0000000000
    6    1    6    4       -0.0000000000
    6    1    7    4        0.0000001212
    6    1    8    4        0.0000000000
    6    1    9    4        0.0000000000
    6    1   10    4       -0.0000000000
    6    1   11    4       -0.0000000001
    6    1   12    4       -0.0001125522
    6    1   13    4        0.0000509251
    6    1   14    4       -0.0000000005
    6    1   15    4        0.0000000000
    6    1   16    4        0.0030435263
    6    1   17    4       -0.0000000321
    6    1   18    4        0.0000001344
    6    1   19    4        0.0000008991
    6    1    5    5        0.0019178291
    6    1    6    5        0.0000005911
    6    1    7    5        0.0000000000
    6    1    8    5        0.0000000185
    6    1    9    5       -0.0000001232
    6    1   10    5       -0.0000003481
    6    1   11    5        0.0001125520
    6    1   12    5       -0.0000000001
    6    1   13    5        0.0000000005
    6    1   14    5        0.0000509250
    6    1   15    5       -0.0000006635
    6    1   16    5        0.0000000321
    6    1   17    5        0.0030435270
    6    1   18    5       -0.0000000001
    6    1   19    5        0.0000000000
    6    1    6    6        0.0027137431
    6    1    7    6       -0.0000000000
    6    1    8    6       -0.0000122551
    6    1    9    6        0.0021953784
    6    1   10    6        0.0015470645
    6    1   11    6        0.0000002216
    6    1   12    6        0.0000000000
    6    1   13    6        0.0000000000
    6    1   14    6        0.0000000168
    6    1   15    6        0.0000000004
    6    1   16    6        0.0000000000
    6    1   17    6        0.0000001260
    6    1   18    6        0.0000000017
    6    1   19    6        0.0000000008
    6    1    7    7        0.0016261318
    6    1    8    7       -0.0000000002
    6    1    9    7        0.0000000000
    6    1   10    7        0.0000000037
    6    1   11    7       -0.0000000000
    6    1   12    7        0.0000000749
    6    1   13    7       -0.0000000081
    6    1   14    7        0.0000000000
    6    1   15    7        0.0000000000
    6    1   16    7        0.0000005628
    6    1   17    7       -0.0000000000
    6    1   18    7       -0.0000677574
    6    1   19    7       -0.0020098692
    6    1    8    8        0.0015679114
    6    1    9    8        0.0000143597
    6    1   10    8        0.0000054838
    6    1   11    8        0.0000000080
    6    1   12    8        0.0000000000
    6    1   13    8       -0.0000000000
    6    1   14    8       -0.0000000722
    6    1   15    8        0.0000000000
    6    1   16    8        0.0000000000
    6    1   17    8       -0.0000000072
    6    1   18    8        0.0000000004
    6    1   19    8       -0.0000000011
    6    1    9    9        0.0018872655
    6    1   10    9        0.0024673290
    6    1   11    9        0.0000006728
    6    1   12    9        0.0000000000
    6    1   13    9        0.0000000000
    6    1   14    9        0.0000000851
    6    1   15    9       -0.0000000000
    6    1   16    9        0.0000000000
    6    1   17    9        0.0000002131
    6    1   18    9        0.0000000074
    6    1   19    9        0.0000000039
    6    1   10   10        0.0029236189
    6    1   11   10        0.0000002263
    6    1   12   10       -0.0000000000
    6    1   13   10        0.0000000000
    6    1   14   10        0.0000000272
    6    1   15   10       -0.0000000004
    6    1   16   10        0.0000000000
    6    1   17   10        0.0000003706
    6    1   18   10       -0.0000000002
    6    1   19   10        0.0000000000
    6    1   11   11        0.0012161782
    6    1   12   11        0.0000000000
    6    1   13   11       -0.0000000010
    6    1   14   11       -0.0001165308
    6    1   15   11        0.0000003431
    6    1   16   11       -0.0000000117
    6    1   17   11       -0.0012531253
    6    1   18   11        0.0000000001
    6    1   19   11       -0.0000000000
    6    1   12   12        0.0012161788
    6    1   13   12        0.0001165313
    6    1   14   12       -0.0000000010
    6    1   15   12       -0.0000000000
    6    1   16   12        0.0012531258
    6    1   17   12       -0.0000000117
    6    1   18   12        0.0000000571
    6    1   19   12        0.0000002748
    6    1   13   13        0.0020599212
    6    1   14   13       -0.0000000000
    6    1   15   13        0.0000000000
    6    1   16   13       -0.0001764855
    6    1   17   13        0.0000000001
    6    1   18   13        0.0000000607
    6    1   19   13       -0.0000000425
    6    1   14   14        0.0020599206
    6    1   15   14        0.0000000614
    6    1   16   14       -0.0000000001
    6    1   17   14       -0.0001764847
    6    1   18   14        0.0000000000
    6    1   19   14        0.0000000000
    6    1   15   15        0.0019166598
    6    1   16   15        0.0000000000
    6    1   17   15        0.0000005755
    6    1   18   15        0.0000000000
    6    1   19   15       -0.0000000000
    6    1   16   16        0.0025309152
    6    1   17   16       -0.0000000000
    6    1   18   16        0.0000000298
    6    1   19   16        0.0000000062
    6    1   17   17        0.0025309144
    6    1   18   17       -0.0000000001
    6    1   19   17        0.0000000000
    6    1   18   18        0.0016764414
    6    1   19   18        0.0000143228
    6    1   19   19        0.0015947861
    7    1    7    1        0.0001413192
    7    1    8    1       -0.0000000000
    7    1    9    1        0.0000000000
    7    1   10    1       -0.0000000001
    7    1   11    1        0.0000000000
    7    1   12    1       -0.0000000601
    7    1   13    1        0.0000000119
    7    1   14    1       -0.0000000000
    7    1   15    1       -0.0000000000
    7    1   16    1       -0.0000000779
    7    1   17    1        0.0000000000
    7    1   18    1        0.0000007270
    7    1   19    1        0.0000181362
    7    1    2    2       -0.0000000001
    7    1    3    2        0.0000000000
    7    1    4    2        0.0000000039
    7    1    5    2       -0.0000000000
    7    1    6    2       -0.0000000000
    7    1    7    2       -0.0000003415
    7    1    8    2       -0.0000000000
    7    1    9    2       -0.0000000000
    7    1   10    2       -0.0000000004
    7    1   11    2       -0.0000000000
    7    1   12    2       -0.0000000124
    7    1   13    2       -0.0000001346
    7    1   14    2        0.0000000000
    7    1   15    2        0.0000000000
    7    1   16    2       -0.0000000065
    7    1   17    2        0.0000000000
    7    1   18    2        0.0001437869
    7    1   19    2       -0.0000083831
    7    1    3    3       -0.0000000000
    7    1    4    3        0.0000046148
    7    1    5    3        0.0000000000
    7    1    6    3        0.0000000000
    7    1    7    3       -0.0008157098
    7    1    8    3       -0.0000000000
    7    1    9    3        0.0000000000
    7    1   10    3       -0.0000000001
    7    1   11    3        0.0000000000
    7    1   12    3        0.0000000146
    7    1   13    3       -0.0000000218
    7    1   14    3        0.0000000000
    7    1   15    3       -0.0000000000
    7    1   16    3        0.0000007283
    7    1   17    3       -0.0000000000
    7    1   18    3        0.0000061104
    7    1   19    3        0.0000745181
    7    1    4    4        0.0000000005
    7    1    5    4       -0.0002646177
    7    1    6    4       -0.0000003503
    7    1    7    4       -0.0000000000
    7    1    8    4        0.0000000156
    7    1    9    4       -0.0000006507
    7    1   10    4        0.0000002503
    7    1   11    4        0.0007051164
    7    1   12    4        0.0000000005
    7    1   13    4        0.0000000007
    7    1   14    4        0.0000871463
    7    1   15    4        0.0000040302
    7    1   16    4       -0.0000000013
    7    1   17    4       -0.0001500947
    7    1   18    4        0.0000000000
    7    1   19    4       -0.0000000000
    7    1    5    5       -0.0000000005
    7    1    6    5       -0.0000000000
    7    1    7    5        0.0000021898
    7    1    8    5       -0.0000000000
    7    1    9    5       -0.0000000000
    7    1   10    5        0.0000000000
    7    1   11    5        0.0000000005
    7    1   12    5       -0.0007051151
    7    1   13    5        0.0000871465
    7    1   14    5       -0.0000000007
    7    1   15    5        0.0000000000
    7    1   16    5       -0.0001500951
    7    1   17    5        0.0000000013
    7    1   18    5       -0.0000000243
    7    1   19    5       -0.0000002020
    7    1    6    6       -0.0000000000
    7    1    7    6        0.0000600355
    7    1    8    6       -0.0000000001
    7    1    9    6       -0.0000000000
    7    1   10    6        0.0000000014
    7    1   11    6       -0.0000000000
    7    1   12    6        0.0000003713
    7    1   13    6       -0.0000000269
    7    1   14    6        0.0000000000
    7    1   15    6        0.0000000000
    7    1   16    6       -0.0000040017
    7    1   17    6        0.0000000000
    7    1   18    6       -0.0000418624
    7    1   19    6       -0.0007543266
    7    1    7    7       -0.0000000000
    7    1    8    7       -0.0000011710
    7    1    9    7        0.0005803743
    7    1   10    7       -0.0002009316
    7    1   11    7       -0.0000027602
    7    1   12    7        0.0000000000
    7    1   13    7       -0.0000000000
    7    1   14    7       -0.0000003504
    7    1   15    7        0.0000000019
    7    1   16    7        0.0000000000
    7    1   17    7        0.0000009331
    7    1   18    7       -0.0000000002
    7    1   19    7       -0.0000000001
    7    1    8    8       -0.0000000001
    7    1    9    8        0.0000000000
    7    1   10    8       -0.0000000027
    7    1   11    8       -0.0000000000
    7    1   12    8       -0.0000005326
    7    1   13    8       -0.0000043688
    7    1   14    8        0.0000000000
    7    1   15    8        0.0000000000
    7    1   16    8       -0.0000000626
    7    1   17    8        0.0000000000
    7    1   18    8        0.0008756554
    7    1   19    8       -0.0000510542
    7    1    9    9       -0.0000000000
    7    1   10    9       -0.0000000002
    7    1   11    9       -0.0000000000
    7    1   12    9       -0.0000030204
    7    1   13    9        0.0000003797
    7    1   14    9       -0.0000000000
    7    1   15    9       -0.0000000000
    7    1   16    9       -0.0000000547
    7    1   17    9        0.0000000000
    7    1   18    9        0.0000016788
    7    1   19    9        0.0000789867
    7    1   10   10        0.0000000001
    7    1   11   10        0.0000000000
    7    1   12   10        0.0000000393
    7    1   13   10       -0.0000000102
    7    1   14   10       -0.0000000000
    7    1   15   10        0.0000000000
    7    1   16   10        0.0000013515
    7    1   17   10       -0.0000000000
    7    1   18   10       -0.0000011030
    7    1   19   10       -0.0000309937
    7    1   11   11        0.0000000001
    7    1   12   11        0.0002922756
    7    1   13   11        0.0000027451
    7    1   14   11       -0.0000000000
    7    1   15   11       -0.0000000000
    7    1   16   11        0.0000477811
    7    1   17   11       -0.0000000005
    7    1   18   11       -0.0000002766
    7    1   19   11       -0.0000001237
    7    1   12   12       -0.0000000001
    7    1   13   12       -0.0000000000
    7    1   14   12       -0.0000027454
    7    1   15   12       -0.0000025240
    7    1   16   12       -0.0000000005
    7    1   17   12       -0.0000477814
    7    1   18   12       -0.0000000000
    7    1   19   12       -0.0000000000
    7    1   13   13       -0.0000000061
    7    1   14   13       -0.0003294037
    7    1   15   13        0.0000002922
    7    1   16   13        0.0000000001
    7    1   17   13        0.0000053771
    7    1   18   13        0.0000000000
    7    1   19   13       -0.0000000000
    7    1   14   14        0.0000000060
    7    1   15   14       -0.0000000000
    7    1   16   14        0.0000053769
    7    1   17   14       -0.0000000001
    7    1   18   14        0.0000023189
    7    1   19   14       -0.0000001383
    7    1   15   15       -0.0000000000
    7    1   16   15        0.0000000410
    7    1   17   15       -0.0000000000
    7    1   18   15        0.0000000000
    7    1   19   15        0.0000000004
    7    1   16   16       -0.0000000037
    7    1   17   16       -0.0001933659
    7    1   18   16        0.0000000000
    7    1   19   16       -0.0000000000
    7    1   17   17        0.0000000037
    7    1   18   17       -0.0000001160
    7    1   19   17       -0.0000021890
    7    1   18   18        0.0000000016
    7    1   19   18       -0.0000000018
    7    1   19   19        0.0000000002
    8    1    8    1        0.0020123896
    8    1    9    1        0.0000034786
    8    1   10    1        0.0000073555
    8    1   11    1       -0.0000000398
    8    1   12    1        0.0000000000
    8    1   13    1        0.0000000000
    8    1   14    1        0.0000003594
    8    1   15    1       -0.0000000000
    8    1   16    1        0.0000000000
    8    1   17    1        0.0000000043
    8    1   18    1        0.0000000026
    8    1   19    1       -0.0000000058
    8    1    2    2       -0.0000337057
    8    1    3    2       -0.0023845493
    8    1    4    2       -0.0000000000
    8    1    5    2        0.0000002487
    8    1    6    2        0.0003005423
    8    1    7    2       -0.0000000000
    8    1    8    2        0.0000083867
    8    1    9    2        0.0031789961
    8    1   10    2        0.0001517226
    8    1   11    2       -0.0000001848
    8    1   12    2        0.0000000000
    8    1   13    2       -0.0000000000
    8    1   14    2       -0.0000000288
    8    1   15    2        0.0000000002
    8    1   16    2       -0.0000000000
    8    1   17    2       -0.0000000566
    8    1   18    2       -0.0000000052
    8    1   19    2       -0.0000000029
    8    1    3    3        0.0000036511
    8    1    4    3        0.0000000000
    8    1    5    3        0.0000000167
    8    1    6    3       -0.0000012616
    8    1    7    3       -0.0000000000
    8    1    8    3       -0.0000082829
    8    1    9    3       -0.0000024225
    8    1   10    3        0.0000036284
    8    1   11    3        0.0000002099
    8    1   12    3       -0.0000000000
    8    1   13    3       -0.0000000000
    8    1   14    3       -0.0000017501
    8    1   15    3        0.0000000000
    8    1   16    3       -0.0000000000
    8    1   17    3       -0.0000000328
    8    1   18    3        0.0000000005
    8    1   19    3       -0.0000000009
    8    1    4    4        0.0000058963
    8    1    5    4       -0.0000000000
    8    1    6    4        0.0000000000
    8    1    7    4        0.0000000083
    8    1    8    4       -0.0000000000
    8    1    9    4       -0.0000000000
    8    1   10    4        0.0000000000
    8    1   11    4        0.0000000000
    8    1   12    4       -0.0000065833
    8    1   13    4       -0.0000798021
    8    1   14    4        0.0000000008
    8    1   15    4        0.0000000000
    8    1   16    4        0.0000017231
    8    1   17    4       -0.0000000000
    8    1   18    4       -0.0000012353
    8    1   19    4        0.0000000824
    8    1    5    5        0.0000058963
    8    1    6    5        0.0000000228
    8    1    7    5        0.0000000000
    8    1    8    5        0.0000018122
    8    1    9    5       -0.0000000096
    8    1   10    5       -0.0000000023
    8    1   11    5        0.0000065830
    8    1   12    5       -0.0000000000
    8    1   13    5       -0.0000000008
    8    1   14    5       -0.0000798003
    8    1   15    5       -0.0000000176
    8    1   16    5        0.0000000000
    8    1   17    5        0.0000017231
    8    1   18    5        0.0000000000
    8    1   19    5       -0.0000000000
    8    1    6    6        0.0000116478
    8    1    7    6       -0.0000000000
    8    1    8    6       -0.0000359462
    8    1    9    6       -0.0000017982
    8    1   10    6        0.0000144407
    8    1   11    6        0.0000000296
    8    1   12    6        0.0000000000
    8    1   13    6       -0.0000000000
    8    1   14    6       -0.0000003048
    8    1   15    6        0.0000000000
    8    1   16    6       -0.0000000000
    8    1   17    6       -0.0000000354
    8    1   18    6        0.0000000000
    8    1   19    6        0.0000000000
    8    1    7    7        0.0000036750
    8    1    8    7       -0.0000000001
    8    1    9    7        0.0000000000
    8    1   10    7       -0.0000000011
    8    1   11    7       -0.0000000000
    8    1   12    7       -0.0000001228
    8    1   13    7       -0.0000011384
    8    1   14    7        0.0000000000
    8    1   15    7        0.0000000000
    8    1   16    7       -0.0000000265
    8    1   17    7        0.0000000000
    8    1   18    7        0.0003606201
    8    1   19    7       -0.0000230752
    8    1    8    8        0.0000007289
    8    1    9    8       -0.0004448869
    8    1   10    8       -0.0000409884
    8    1   11    8       -0.0000002600
    8    1   12    8        0.0000000000
    8    1   13    8       -0.0000000000
    8    1   14    8       -0.0000000339
    8    1   15    8        0.0000000016
    8    1   16    8       -0.0000000000
    8    1   17    8       -0.0000001794
    8    1   18    8        0.0000000009
    8    1   19    8        0.0000000005
    8    1    9    9        0.0000065835
    8    1   10    9       -0.0000026337
    8    1   11    9       -0.0000000314
    8    1   12    9       -0.0000000000
    8    1   13    9        0.0000000000
    8    1   14    9        0.0000003717
    8    1   15    9       -0.0000000000
    8    1   16    9        0.0000000000
    8    1   17    9        0.0000000103
    8    1   18    9       -0.0000000005
    8    1   19    9        0.0000000009
    8    1   10   10        0.0000192223
    8    1   11   10        0.0000000118
    8    1   12   10        0.0000000000
    8    1   13   10       -0.0000000000
    8    1   14   10       -0.0000001978
    8    1   15   10       -0.0000000000
    8    1   16   10        0.0000000000
    8    1   17   10        0.0000000080
    8    1   18   10        0.0000000000
    8    1   19   10        0.0000000004
    8    1   11   11       -0.0001245234
    8    1   12   11        0.0000000000
    8    1   13   11        0.0000000047
    8    1   14   11        0.0005282135
    8    1   15   11       -0.0000002153
    8    1   16   11       -0.0000000000
    8    1   17   11       -0.0000006161
    8    1   18   11       -0.0000000000
    8    1   19   11        0.0000000000
    8    1   12   12       -0.0001245236
    8    1   13   12       -0.0005282120
    8    1   14   12        0.0000000048
    8    1   15   12       -0.0000000000
    8    1   16   12        0.0000006162
    8    1   17   12        0.0000000000
    8    1   18   12       -0.0000014078
    8    1   19   12        0.0000000844
    8    1   13   13        0.0001331927
    8    1   14   13       -0.0000000000
    8    1   15   13        0.0000000000
[...]
   16   13   16   16        0.0003560533
   16   13   17   16       -0.0000000085
   16   13   18   16       -0.0000117813
   16   13   19   16        0.0000040343
   16   13   17   17       -0.0002255234
   16   13   18   17        0.0000000002
   16   13   19   17       -0.0000000001
   16   13   18   18       -0.0003034364
   16   13   19   18       -0.0024070875
   16   13   19   19        0.0004112039
   17   13   17   13        0.0004893164
   17   13   18   13        0.0000000001
   17   13   19   13       -0.0000000002
   17   13   14   14        0.0000000084
   17   13   15   14        0.0000000002
   17   13   16   14        0.0003985392
   17   13   17   14        0.0000000206
   17   13   18   14        0.0000015160
   17   13   19   14       -0.0000040372
   17   13   15   15       -0.0000000000
   17   13   16   15        0.0000044892
   17   13   17   15       -0.0000000000
   17   13   18   15        0.0002344372
   17   13   19   15       -0.0001244789
   17   13   16   16       -0.0000000084
   17   13   17   16       -0.0001553828
   17   13   18   16        0.0000000002
   17   13   19   16       -0.0000000001
   17   13   17   17        0.0000000084
   17   13   18   17       -0.0000004737
   17   13   19   17       -0.0000003655
   17   13   18   18       -0.0000000013
   17   13   19   18        0.0000000007
   17   13   19   19       -0.0000000009
   18   13   18   13        0.0065757842
   18   13   19   13       -0.0004111941
   18   13   14   14        0.0000383252
   18   13   15   14        0.0003804881
   18   13   16   14        0.0000000000
   18   13   17   14       -0.0000001404
   18   13   18   14       -0.0000000088
   18   13   19   14        0.0000000104
   18   13   15   15        0.0000012020
   18   13   16   15        0.0000000012
   18   13   17   15        0.0000476431
   18   13   18   15       -0.0000000000
   18   13   19   15       -0.0000000000
   18   13   16   16       -0.0001280971
   18   13   17   16        0.0000000019
   18   13   18   16       -0.0003829875
   18   13   19   16       -0.0044835705
   18   13   17   17        0.0000225393
   18   13   18   17       -0.0000000038
   18   13   19   17        0.0000000029
   18   13   18   18       -0.0002694255
   18   13   19   18        0.0000035817
   18   13   19   19       -0.0002305588
   19   13   19   13        0.0010576597
   19   13   14   14       -0.0000065513
   19   13   15   14       -0.0003018617
   19   13   16   14       -0.0000000002
   19   13   17   14       -0.0000040258
   19   13   18   14        0.0000000105
   19   13   19   14        0.0000000004
   19   13   15   15        0.0000001134
   19   13   16   15        0.0000000018
   19   13   17   15       -0.0004648648
   19   13   18   15        0.0000000000
   19   13   19   15        0.0000000000
   19   13   16   16        0.0000123377
   19   13   17   16       -0.0000000001
   19   13   18   16       -0.0008872438
   19   13   19   16        0.0002987542
   19   13   17   17       -0.0000038556
   19   13   18   17        0.0000000002
   19   13   19   17       -0.0000000070
   19   13   18   18        0.0000128289
   19   13   19   18       -0.0000206659
   19   13   19   19        0.0000158066
   14   14   14   14        0.1160604144
   14   14   15   14        0.0000255268
   14   14   16   14        0.0000000084
   14   14   17   14        0.0002303031
   14   14   18   14       -0.0000000015
   14   14   19   14        0.0000000005
   14   14   15   15        0.1020732822
   14   14   16   15       -0.0000000000
   14   14   17   15        0.0000017170
   14   14   18   15       -0.0000000052
   14   14   19   15       -0.0000000021
   14   14   16   16        0.0891210400
   14   14   17   16        0.0000001388
   14   14   18   16       -0.0000050680
   14   14   19   16       -0.0000320021
   14   14   17   17        0.1050598015
   14   14   18   17       -0.0000000007
   14   14   19   17        0.0000000010
   14   14   18   18        0.0971290469
   14   14   19   18       -0.0004963637
   14   14   19   19        0.0919679751
   15   14   15   14        0.0118044555
   15   14   16   14        0.0000000002
   15   14   17   14       -0.0000217998
   15   14   18   14       -0.0000000039
   15   14   19   14        0.0000000000
   15   14   15   15       -0.0000001583
   15   14   16   15        0.0000000001
   15   14   17   15        0.0003085839
   15   14   18   15        0.0000000000
   15   14   19   15       -0.0000000000
   15   14   16   16        0.0000065669
   15   14   17   16       -0.0000000001
   15   14   18   16       -0.0011158508
   15   14   19   16        0.0003674659
   15   14   17   17        0.0000064007
   15   14   18   17        0.0000000002
   15   14   19   17       -0.0000000026
   15   14   18   18        0.0000304808
   15   14   19   18        0.0000269293
   15   14   19   19        0.0000200185
   16   14   16   14        0.0004893234
   16   14   17   14        0.0000000230
   16   14   18   14       -0.0000003254
   16   14   19   14       -0.0000040442
   16   14   15   15        0.0000000000
   16   14   16   15        0.0000045274
   16   14   17   15       -0.0000000000
   16   14   18   15       -0.0002344431
   16   14   19   15        0.0001244781
   16   14   16   16       -0.0000000084
   16   14   17   16       -0.0001553841
   16   14   18   16        0.0000000002
   16   14   19   16       -0.0000000001
   16   14   17   17        0.0000000084
   16   14   18   17        0.0000020568
   16   14   19   17       -0.0000003781
   16   14   18   18       -0.0000000015
   16   14   19   18       -0.0000000011
   16   14   19   19       -0.0000000006
   17   14   17   14        0.0047677837
   17   14   18   14       -0.0000000000
   17   14   19   14        0.0000000001
   17   14   15   15        0.0001275533
   17   14   16   15       -0.0000000000
   17   14   17   15        0.0000044475
   17   14   18   15       -0.0000000004
   17   14   19   15       -0.0000000006
   17   14   16   16       -0.0002255207
   17   14   17   16        0.0000000085
   17   14   18   16        0.0000098827
   17   14   19   16       -0.0000025863
   17   14   17   17        0.0003560434
   17   14   18   17       -0.0000000001
   17   14   19   17       -0.0000000000
   17   14   18   18       -0.0003034401
   17   14   19   18       -0.0024070829
   17   14   19   19        0.0004111979
   18   14   18   14        0.0065750341
   18   14   19   14       -0.0004111268
   18   14   15   15       -0.0000000001
   18   14   16   15       -0.0000476597
   18   14   17   15       -0.0000000010
   18   14   18   15        0.0000039126
   18   14   19   15       -0.0000015042
   18   14   16   16        0.0000000021
   18   14   17   16        0.0000522087
   18   14   18   16       -0.0000000040
   18   14   19   16       -0.0000000006
   18   14   17   17       -0.0000000013
   18   14   18   17       -0.0003829252
   18   14   19   17       -0.0044828618
   18   14   18   18        0.0000000026
   18   14   19   18        0.0000000004
   18   14   19   19        0.0000000024
   19   14   19   14        0.0010576236
   19   14   15   15        0.0000000002
   19   14   16   15        0.0004648643
   19   14   17   15       -0.0000000022
   19   14   18   15        0.0000013597
   19   14   19   15        0.0000030669
   19   14   16   16       -0.0000000002
   19   14   17   16       -0.0000040782
   19   14   18   16       -0.0000000006
   19   14   19   16       -0.0000000066
   19   14   17   17        0.0000000004
   19   14   18   17       -0.0008872069
   19   14   19   17        0.0002986824
   19   14   18   18       -0.0000000002
   19   14   19   18        0.0000000002
   19   14   19   19       -0.0000000003
   15   15   15   15        0.1032334382
   15   15   16   15       -0.0000000000
   15   15   17   15       -0.0000023969
   15   15   18   15       -0.0000000001
   15   15   19   15        0.0000000001
   15   15   16   16        0.0985704107
   15   15   17   16        0.0000000000
   15   15   18   16        0.0000000777
   15   15   19   16       -0.0000014943
   15   15   17   17        0.0985704107
   15   15   18   17       -0.0000000003
   15   15   19   17        0.0000000001
   15   15   18   18        0.0941979479
   15   15   19   18       -0.0002010889
   15   15   19   19        0.0917927903
   16   15   16   15        0.0081034598
   16   15   17   15        0.0000000000
   16   15   18   15        0.0000001939
   16   15   19   15       -0.0000009743
   16   15   16   16       -0.0000000004
   16   15   17   16       -0.0000129109
   16   15   18   16        0.0000000012
   16   15   19   16        0.0000000008
   16   15   17   17        0.0000000001
   16   15   18   17       -0.0000343067
   16   15   19   17       -0.0008189525
   16   15   18   18        0.0000000001
   16   15   19   18        0.0000000001
   16   15   19   19        0.0000000001
   17   15   17   15        0.0081034596
   17   15   18   15       -0.0000000000
   17   15   19   15        0.0000000000
   17   15   16   16       -0.0000117351
   17   15   17   16        0.0000000001
   17   15   18   16        0.0000343070
   17   15   19   16        0.0008189759
   17   15   17   17       -0.0000128285
   17   15   18   17       -0.0000000014
   17   15   19   17       -0.0000000008
   17   15   18   18        0.0000112820
   17   15   19   18        0.0000015814
   17   15   19   19        0.0000167854
   18   15   18   15        0.0016096054
   18   15   19   15       -0.0000227902
   18   15   16   16        0.0000000041
   18   15   17   16        0.0000000003
   18   15   18   16       -0.0000000001
   18   15   19   16        0.0000000001
   18   15   17   17       -0.0000000042
   18   15   18   17       -0.0000081890
   18   15   19   17        0.0000006393
   18   15   18   18        0.0000000001
   18   15   19   18       -0.0000000001
   18   15   19   19        0.0000000001
   19   15   19   15        0.0013443215
   19   15   16   16        0.0000000023
   19   15   17   16        0.0000000118
   19   15   18   16        0.0000000000
   19   15   19   16       -0.0000000000
   19   15   17   17       -0.0000000022
   19   15   18   17        0.0000005343
   19   15   19   17       -0.0000015449
   19   15   18   18       -0.0000000000
   19   15   19   18        0.0000000001
   19   15   19   19       -0.0000000001
   16   16   16   16        0.1077346353
   16   16   17   16       -0.0000001550
   16   16   18   16        0.0000064465
   16   16   19   16        0.0001330816
   16   16   17   17        0.0882852787
   16   16   18   17       -0.0000000003
   16   16   19   17       -0.0000000020
   16   16   18   18        0.0916247890
   16   16   19   18       -0.0001437798
   16   16   19   19        0.0919684076
   17   16   17   16        0.0016143537
   17   16   18   16       -0.0000000000
   17   16   19   16       -0.0000000020
   17   16   17   17        0.0000001550
   17   16   18   17       -0.0000024622
   17   16   19   17       -0.0000494220
   17   16   18   18       -0.0000000017
   17   16   19   18        0.0000000043
   17   16   19   19        0.0000000020
   18   16   18   16        0.0011682260
   18   16   19   16        0.0002130052
   18   16   17   17       -0.0000010866
   18   16   18   17       -0.0000000007
   18   16   19   17        0.0000000055
   18   16   18   18        0.0000126071
   18   16   19   18        0.0000150028
   18   16   19   19        0.0000102235
   19   16   19   16        0.0057957175
   19   16   17   17       -0.0000328526
   19   16   18   17        0.0000000055
   19   16   19   17        0.0000000043
   19   16   18   18        0.0002234815
   19   16   19   18       -0.0000006860
   19   16   19   19        0.0002384244
   17   17   17   17        0.1077345197
   17   17   18   17       -0.0000000008
   17   17   19   17        0.0000000011
   17   17   18   18        0.0916247646
   17   17   19   18       -0.0001437843
   17   17   19   19        0.0919683863
   18   17   18   17        0.0011681283
   18   17   19   17        0.0002129808
   18   17   18   18       -0.0000000007
   18   17   19   18       -0.0000000002
   18   17   19   19       -0.0000000007
   19   17   19   17        0.0057949814
   19   17   18   18       -0.0000000023
   19   17   19   18       -0.0000000003
   19   17   19   19       -0.0000000026
   18   18   18   18        0.1013768818
   18   18   19   18       -0.0000032593
   18   18   19   19        0.0933706821
   19   18   19   18        0.0039411260
   19   18   19   19       -0.0004699259
   19   19   19   19        0.0959399051
 end_two_electron_integrals


 output epsi filename:./pspw_hf_H2.emovecs

 Total PSPW energy     :  -0.7641059992E+00


=== Spin Contamination ===

 <Sexact^2> =    0.0000000000000000     
 <S^2>      =    0.0000000000000000     



== Center of Charge ==

spin up     (    0.0000,    0.0000,    0.0026 )
spin down   (    0.0000,    0.0000,    0.0026 )
     total  (    0.0000,    0.0000,    0.0026 )
ionic       (    0.0000,    0.0000,    0.0000 )


== Molecular Dipole wrt Center of Mass ==

mu   =  (   -0.0000,   -0.0000,   -0.0052 ) au
|mu| =     0.0052 au,       0.0132 Debye

 output psi filename:./pspw_hf_H2.movecs

 Writing Crystallographic Information File:./H2.cif
   - cell not shifted (nwpw:cif_shift_cell .false.)


== Timing ==

cputime in seconds
  prologue    :   0.693655E+01
  main loop   :   0.136615E+04
  epilogue    :   0.132608E-01
  total       :   0.137310E+04
  cputime/step:   0.822983E+01       (     166 evalulations,      70 linesearches)


Time spent doing                        total          step       percent
  total time                 :   0.137310E+04  0.827169E+01       100.0 %
  i/o time                   :   0.338384E+00  0.203846E-02         0.0 %
  FFTs                       :   0.117948E+04  0.710528E+01        85.9 %
  dot products               :   0.177820E+01  0.107121E-01         0.1 %
  geodesic                   :   0.150072E+00  0.904049E-03         0.0 %
  ffm_dgemm                  :   0.175758E-01  0.105879E-03         0.0 %
  fmf_dgemm                  :   0.969484E-01  0.584026E-03         0.0 %
  mmm_dgemm                  :   0.183306E-02  0.110425E-04         0.0 %
  m_diagonalize              :   0.993752E-03  0.598646E-05         0.0 %
  local pseudopotentials     :   0.183771E-01  0.110705E-03         0.0 %
  non-local pseudopotentials :   0.305189E+01  0.183849E-01         0.2 %
  structure factors          :   0.127927E+01  0.770646E-02         0.1 %
  phase factors              :   0.627100E-05  0.377771E-07         0.0 %
  masking and packing        :   0.439613E+02  0.264827E+00         3.2 %
  queue fft                  :   0.338634E+01  0.203997E-01         0.2 %
  queue fft (serial)         :   0.144296E+01  0.869251E-02         0.1 %
  queue fft (message passing):   0.179216E+01  0.107961E-01         0.1 %
  HFX potential              :   0.763821E+03  0.460133E+01        55.6 %
  non-local psp FFM          :   0.161976E+01  0.975761E-02         0.1 %
  non-local psp FMF          :   0.399079E+00  0.240409E-02         0.0 %
  non-local psp FFM A        :   0.540035E+00  0.325323E-02         0.0 %
  non-local psp FFM B        :   0.337264E+00  0.203171E-02         0.0 %

== HFX Counters ==
  HFX Evalulations         =   166
  Lin ACE HFX Evalulations =     0


     >>>  JOB COMPLETED     AT Fri May  2 00:07:50 2025  <<<

 Task  times  cpu:     1398.3s     wall:     1373.1s
 Summary of allocated global arrays
-----------------------------------
  No active global arrays


MA_summarize_allocated_blocks: starting scan ...
MA_summarize_allocated_blocks: scan completed: 0 heap blocks, 0 stack blocks
MA usage statistics:

	allocation statistics:
					      heap	     stack
					      ----	     -----
	current number of blocks	         0	         0
	maximum number of blocks	       313	        17
	current total bytes		         0	         0
	maximum total bytes		 955123768	 228700296
	maximum total K-bytes		    955124	    228701
	maximum total M-bytes		       956	       229


                                NWChem Input Module
                                -------------------




                                     CITATION
                                     --------
                Please cite the following reference when publishing
                           results obtained with NWChem:

          E. Apra, E. J. Bylaska, W. A. de Jong, N. Govind, K. Kowalski,
       T. P. Straatsma, M. Valiev, H. J. J. van Dam, Y. Alexeev, J. Anchell,
       V. Anisimov, F. W. Aquino, R. Atta-Fynn, J. Autschbach, N. P. Bauman,
     J. C. Becca, D. E. Bernholdt, K. Bhaskaran-Nair, S. Bogatko, P. Borowski,
         J. Boschen, J. Brabec, A. Bruner, E. Cauet, Y. Chen, G. N. Chuev,
      C. J. Cramer, J. Daily, M. J. O. Deegan, T. H. Dunning Jr., M. Dupuis,
   K. G. Dyall, G. I. Fann, S. A. Fischer, A. Fonari, H. Fruchtl, L. Gagliardi,
      J. Garza, N. Gawande, S. Ghosh, K. Glaesemann, A. W. Gotz, J. Hammond,
       V. Helms, E. D. Hermes, K. Hirao, S. Hirata, M. Jacquelin, L. Jensen,
   B. G. Johnson, H. Jonsson, R. A. Kendall, M. Klemm, R. Kobayashi, V. Konkov,
      S. Krishnamoorthy, M. Krishnan, Z. Lin, R. D. Lins, R. J. Littlefield,
      A. J. Logsdail, K. Lopata, W. Ma, A. V. Marenich, J. Martin del Campo,
   D. Mejia-Rodriguez, J. E. Moore, J. M. Mullin, T. Nakajima, D. R. Nascimento,
    J. A. Nichols, P. J. Nichols, J. Nieplocha, A. Otero-de-la-Roza, B. Palmer,
    A. Panyala, T. Pirojsirikul, B. Peng, R. Peverati, J. Pittner, L. Pollack,
   R. M. Richard, P. Sadayappan, G. C. Schatz, W. A. Shelton, D. W. Silverstein,
   D. M. A. Smith, T. A. Soares, D. Song, M. Swart, H. L. Taylor, G. S. Thomas,
            V. Tipparaju, D. G. Truhlar, K. Tsemekhman, T. Van Voorhis,
      A. Vazquez-Mayagoitia, P. Verma, O. Villa, A. Vishnu, K. D. Vogiatzis,
        D. Wang, J. H. Weare, M. J. Williamson, T. L. Windus, K. Wolinski,
        A. T. Wong, Q. Wu, C. Yang, Q. Yu, M. Zacharias, Z. Zhang, Y. Zhao,
                                and R. J. Harrison
                        "NWChem: Past, present, and future
                         J. Chem. Phys. 152, 184102 (2020)
                               doi:10.1063/5.0004997

                                      AUTHORS
                                      -------
  E. Apra, E. J. Bylaska, N. Govind, K. Kowalski, M. Valiev, D. Mejia-Rodriguez,
       A. Kunitsa, N. P. Bauman, A. Panyala, W. A. de Jong, T. P. Straatsma,
   H. J. J. van Dam, D. Wang, T. L. Windus, J. Hammond, J. Autschbach, A. Woods,
    K. Bhaskaran-Nair, J. Brabec, K. Lopata, S. A. Fischer, S. Krishnamoorthy,
     M. Jacquelin, W. Ma, M. Klemm, O. Villa, Y. Chen, V. Anisimov, F. Aquino,
     S. Hirata, M. T. Hackler, E. Hermes, L. Jensen, J. E. Moore, J. C. Becca,
      V. Konjkov, T. Risthaus, M. Malagoli, A. Marenich, A. Otero-de-la-Roza,
        J. Mullin, P. Nichols, R. Peverati, J. Pittner, Y. Zhao, P.-D. Fan,
        A. Fonari, M. J. Williamson, R. J. Harrison, J. R. Rehr, M. Dupuis,
     D. Silverstein, D. M. A. Smith, J. Nieplocha, V. Tipparaju, M. Krishnan,
     B. E. Van Kuiken, A. Vazquez-Mayagoitia, M. Swart, Q. Wu, T. Van Voorhis,
     A. A. Auer, M. Nooijen, L. D. Crosby, E. Brown, G. Cisneros, G. I. Fann,
   H. Fruchtl, J. Garza, K. Hirao, R. A. Kendall, J. A. Nichols, K. Tsemekhman,
    K. Wolinski, J. Anchell, D. E. Bernholdt, P. Borowski, T. Clark, D. Clerc,
   H. Dachsel, M. J. O. Deegan, K. Dyall, D. Elwood, E. Glendening, M. Gutowski,
   A. C. Hess, J. Jaffe, B. G. Johnson, J. Ju, R. Kobayashi, R. Kutteh, Z. Lin,
   R. Littlefield, X. Long, B. Meng, T. Nakajima, S. Niu, L. Pollack, M. Rosing,
   K. Glaesemann, G. Sandrone, M. Stave, H. Taylor, G. Thomas, J. H. van Lenthe,
                               A. T. Wong, Z. Zhang.

 Total times  cpu:     1398.4s     wall:     1373.1s
