 argument  1 = H2-0.9.nw



============================== echo of input deck ==============================
title "swnc: e theory=pspw4 xc=hf formula=H2 charge=0 mult=1"
#machinejob:expert

echo

start pspw_hf_H2

memory heap 1200 mb stack 1200 mb global 10 mb

charge 0

geometry
H    0.00000    0.00000   -0.45000
H    0.00000    0.00000    0.45000
end

nwpw
  ### pseudopotential block begin ###
  ### pseudopotential block end   ###
  simulation_cell
     SC 15.0000
     boundary_conditions aperiodic
  end

  cutoff 50.0
  mult 1
  xc hf
  lmbfgs
  tolerances 1.0e-9 1.0e-9

  virtual 18
end
set nwpw:cif_filename H2

#set nwpw:CI_maxit_orb 15
#set nwpw:CI_maxit_linesearch 15
set pspw:HFX_screening_radius 14.0


set nwpw:2qintegrals .true.
set nwpw:3x3_virtual .true.

task pspw energy
================================================================================


                                         
                                         


             Northwest Computational Chemistry Package (NWChem) 7.2.3
             --------------------------------------------------------


                    Environmental Molecular Sciences Laboratory
                       Pacific Northwest National Laboratory
                                Richland, WA 99352

                              Copyright (c) 1994-2022
                       Pacific Northwest National Laboratory
                            Battelle Memorial Institute

             NWChem is an open-source computational chemistry package
                        distributed under the terms of the
                      Educational Community License (ECL) 2.0
             A copy of the license is included with this distribution
                              in the LICENSE.TXT file

                                  ACKNOWLEDGMENT
                                  --------------

            This software and its documentation were developed at the
            EMSL at Pacific Northwest National Laboratory, a multiprogram
            national laboratory, operated for the U.S. Department of Energy
            by Battelle under Contract Number DE-AC05-76RL01830. Support
            for this work was provided by the Department of Energy Office
            of Biological and Environmental Research, Office of Basic
            Energy Sciences, and the Office of Advanced Scientific Computing.


           Job information
           ---------------

    hostname        = mqs-al
    program         = nwchem
    date            = Sun Apr  6 09:35:46 2025

    compiled        = Thu_Oct_31_08:55:15_2024
    source          = /home/conda/feedstock_root/build_artifacts/nwchem_1730356057992/work
    nwchem branch   = 7.2.3
    nwchem revision = c400b04
    ga revision     = 5.8.0
    use scalapack   = T
    input           = H2-0.9.nw
    prefix          = pspw_hf_H2.
    data base       = ./pspw_hf_H2.db
    status          = startup
    nproc           =       24
    time left       =     -1s



           Memory information
           ------------------

    heap     =  157286396 doubles =   1200.0 Mbytes
    stack    =  157286401 doubles =   1200.0 Mbytes
    global   =    1310720 doubles =     10.0 Mbytes (distinct from heap & stack)
    total    =  315883517 doubles =   2410.0 Mbytes
    verify   = yes
    hardfail = no 


           Directory information
           ---------------------

  0 permanent = .
  0 scratch   = .




                                NWChem Input Module
                                -------------------


               swnc: e theory=pspw4 xc=hf formula=H2 charge=0 mult=1
               -----------------------------------------------------

 Scaling coordinates for geometry "geometry" by  1.889725989
 (inverse scale =  0.529177249)

  zeroes
  zeroes
  zeroes
  zeroes
  zeroes
  zeroes
  zeroes
  zeroes
  zeroes
  zeroes
  zeroes
  zeroes
  zeroes
  zeroes
  zeroes
  zeroes
  zeroes
  zeroes
  zeroes
  zeroes
  zeroes
  zeroes
  zeroes
  zeroes
  zeroes
  zeroes
  zeroes
  zeroes
  zeroes
  zeroes
  zeroes
  zeroes
  zeroes
  zeroes
  zeroes
  zeroes
  zeroes
  zeroes
  zeroes
  zeroes
  zeroes
  zeroes
  zeroes
  zeroes
  zeroes
  zeroes
  zeroes
  zeroes
 ORDER OF PRIMARY AXIS IS BEING SET TO 4
 D4H symmetry detected

          ------
          auto-z
          ------
  no constraints, skipping    0.0000000000000000     
  no constraints, skipping    0.0000000000000000     


                             Geometry "geometry" -> ""
                             -------------------------

 Output coordinates in angstroms (scale by  1.889725989 to convert to a.u.)

  No.       Tag          Charge          X              Y              Z
 ---- ---------------- ---------- -------------- -------------- --------------
    1 H                    1.0000     0.00000000     0.00000000    -0.45000000
    2 H                    1.0000     0.00000000     0.00000000     0.45000000

      Atomic Mass 
      ----------- 

      H                  1.007825


 Effective nuclear repulsion energy (a.u.)       0.5879747211

            Nuclear Dipole moment (a.u.) 
            ----------------------------
        X                 Y               Z
 ---------------- ---------------- ----------------
     0.0000000000     0.0000000000     0.0000000000

      Symmetry information
      --------------------

 Group name             D4h       
 Group number             28
 Group order              16
 No. of unique centers     1

      Symmetry unique atoms

     1



                                Z-matrix (autoz)
                                -------- 

 Units are Angstrom for bonds and degrees for angles

      Type          Name      I     J     K     L     M      Value
      ----------- --------  ----- ----- ----- ----- ----- ----------
    1 Stretch                  1     2                       0.90000


            XYZ format geometry
            -------------------
     2
 geometry
 H                     0.00000000     0.00000000    -0.45000000
 H                     0.00000000     0.00000000     0.45000000

          ****************************************************
          *                                                  *
          *               NWPW PSPW Calculation              *
          *                                                  *
          * [ (Grassmann/Stiefel manifold implementation)  ] *
          *                                                  *
          *      [ NorthWest Chemistry implementation ]      *
          *                                                  *
          *            version #5.10   06/12/02              *
          *                                                  *
          *    This code was developed by Eric J. Bylaska,   *
          *    and was based upon algorithms and code        *
          *    developed by the group of Prof. John H. Weare *
          *                                                  *
          ****************************************************
     >>>  JOB STARTED       AT Sun Apr  6 09:35:46 2025  <<<
          ================ input data ========================

 input psi filename:./pspw_hf_H2.movecs

 number of processors used:        24
 processor grid           :  24 x   1
 parallel mapping         :2d-hilbert
 parallel mapping         :  balanced
 number of threads        :         1
 parallel io              :       off

 options:
      boundary conditions  = aperiodic   (version4)
      electron spin        = restricted
      exchange-correlation = Hartree-Fock
      - HFX relaxed
      - HFX restricted orbitals :    1
      - HFX free-space coulomb solver


 elements involved in the cluster:
      1: H   valence charge:  1.0000  lmax=  1
             comment    : Parameterized (Chem.Phys.Lett., vol 322, page 447) Hamman psp
             pseudpotential type            :   0
             highest angular component      :   1
             local potential used           :   1
             number of non-local projections:   1
             aperiodic cutoff radius        :  1.000
             cutoff =   0.800   0.800


 total charge:   0.000

 atomic composition:
     H   :    2

 number of electrons: spin up=     1 (   1 per task)  down=     1 (   1 per task) (Fourier space)
 number of orbitals : spin up=     1 (   1 per task)  down=     1 (   1 per task) (Fourier space)

 supercell:
      cell_name:  cell_default                                      
      lattice:    a1=<  15.000   0.000   0.000 >
                  a2=<   0.000  15.000   0.000 >
                  a3=<   0.000   0.000  15.000 >
      reciprocal: b1=<   0.419   0.000   0.000 >
                  b2=<   0.000   0.419   0.000 >
                  b3=<   0.000   0.000   0.419 >
      lattice:    a=      15.000 b=     15.000 c=      15.000
                  alpha=  90.000 beta=  90.000 gamma=  90.000
                  omega=      3375.0

      density cutoff=100.000  fft= 70x 70x 70(    80618 waves     3359 per task)
      wavefnc cutoff= 50.000  fft= 70x 70x 70(    28526 waves     1188 per task)

 technical parameters:
      time step=      5.80     fictitious mass=  400000.0
      tolerance=0.100E-08 (energy)   0.100E-08 (density)
      maximum iterations =      1000 (   10 inner    100 outer )





== Energy Calculation ==


          ============ Grassmann lmbfgs iteration ============
     >>>  ITERATION STARTED AT Sun Apr  6 09:35:53 2025  <<<
    iter.           Energy         DeltaE       DeltaRho 
    ------------------------------------------------------
      10   -0.1119265884E+01   -0.69851E-04    0.19046E-02
      20   -0.1119416714E+01   -0.19044E-05    0.30205E-05
      30   -0.1119421476E+01   -0.73912E-07    0.58017E-08
      40   -0.1119421638E+01   -0.16403E-08    0.15739E-10
      50   -0.1119421640E+01   -0.81329E-09    0.36217E-12
  *** tolerance ok. iteration terminated
     >>>  ITERATION ENDED   AT Sun Apr  6 09:35:59 2025  <<<


==  Summary Of Results  ==

 number of electrons: spin up=    1.00000  down=    1.00000 (real space)

 total     energy    :  -0.1119421640E+01 (   -0.55971E+00/ion)
 total orbital energy:  -0.1101846665E+01 (   -0.11018E+01/electron)
 hartree   energy    :   0.1211099392E+01 (    0.12111E+01/electron)
 exc-corr  energy    :   0.0000000000E+00 (    0.00000E+00/electron)
 HF exchange energy  :  -0.6055496958E+00 (   -0.60555E+00/electron)
 ion-ion   energy    :   0.5879747211E+00 (    0.29399E+00/ion)

 kinetic (planewave) :   0.9357409318E+00 (    0.93574E+00/electron)
 V_local (planewave) :  -0.2987518388E+01 (   -0.29875E+01/electron)
 V_nl    (planewave) :  -0.2611686006E+00 (   -0.26117E+00/electron)
 V_Coul  (planewave) :   0.2422198783E+01 (    0.24222E+01/electron)
 V_xc.   (planewave) :   0.0000000000E+00 (    0.00000E+00/electron)
 K.S. HFX energy     :  -0.1211099392E+01 (   -0.12111E+01/electron)
 Virial Coefficient  :  -0.8832446858E+00

 orbital energies:
    -0.5509233E+00 ( -14.992eV)


== Virtual Orbital Calculation ==


 input epsi filename:./pspw_hf_H2.emovecs

 COVOs Mimimization
 ------------------
CI gradient algorithm =         3
maxit_sweeps          =         3
maxit_orb             =       120
maxit_linesearch      =        15
maxerror              = 0.100E-08

     orb,it,eci,eold,eci-eold=                    1                    1  -1.1409077344091492       -1.1409049557961772       -2.7786129719320485E-006 F
     orb,it,eci,eold,eci-eold=                    1                    2  -1.1410997640547891       -1.1409077344091492       -1.9202964563991287E-004 F
     orb,it,eci,eold,eci-eold=                    1                    3  -1.1411812147042331       -1.1410997640547891       -8.1450649443981504E-005 F
     orb,it,eci,eold,eci-eold=                    1                    4  -1.1412136989709674       -1.1411812147042331       -3.2484266734300604E-005 F
     orb,it,eci,eold,eci-eold=                    1                    5  -1.1412234556470016       -1.1412136989709674       -9.7566760342004955E-006 F
     orb,it,eci,eold,eci-eold=                    1                    6  -1.1412321220948076       -1.1412234556470016       -8.6664478060605177E-006 F
     orb,it,eci,eold,eci-eold=                    1                    7  -1.1412414510197368       -1.1412321220948076       -9.3289249292194398E-006 F
     orb,it,eci,eold,eci-eold=                    1                    8  -1.1412475840055520       -1.1412414510197368       -6.1329858151992767E-006 F
     orb,it,eci,eold,eci-eold=                    1                    9  -1.1412495139113537       -1.1412475840055520       -1.9299058016120085E-006 F
     orb,it,eci,eold,eci-eold=                    1                   10  -1.1412505477859622       -1.1412495139113537       -1.0338746085913897E-006 F
     orb,it,eci,eold,eci-eold=                    1                   11  -1.1412511764491937       -1.1412505477859622       -6.2866323147225955E-007 F
     orb,it,eci,eold,eci-eold=                    1                   12  -1.1412515313790068       -1.1412511764491937       -3.5492981309559468E-007 F
     orb,it,eci,eold,eci-eold=                    1                   13  -1.1412517569789076       -1.1412515313790068       -2.2559990076054248E-007 F
     orb,it,eci,eold,eci-eold=                    1                   14  -1.1412520137152957       -1.1412517569789076       -2.5673638814893707E-007 F
     orb,it,eci,eold,eci-eold=                    1                   15  -1.1412522069506514       -1.1412520137152957       -1.9323535571658113E-007 F
     orb,it,eci,eold,eci-eold=                    1                   16  -1.1412522642115905       -1.1412522069506514       -5.7260939101411168E-008 F
     orb,it,eci,eold,eci-eold=                    1                   17  -1.1412522788782231       -1.1412522642115905       -1.4666632575099925E-008 F
     orb,it,eci,eold,eci-eold=                    1                   18  -1.1412523499786276       -1.1412522788782231       -7.1100404452906218E-008 F
     orb,it,eci,eold,eci-eold=                    1                   19  -1.1412523720225307       -1.1412523499786276       -2.2043903147306310E-008 F
     orb,it,eci,eold,eci-eold=                    1                   20  -1.1412523845860774       -1.1412523720225307       -1.2563546647470503E-008 F
     orb,it,eci,eold,eci-eold=                    1                   21  -1.1412524375108990       -1.1412523845860774       -5.2924821636324282E-008 F
     orb,it,eci,eold,eci-eold=                    1                   22  -1.1412524455346023       -1.1412524375108990       -8.0237032573649003E-009 F
     orb,it,eci,eold,eci-eold=                    1                   23  -1.1412524482710467       -1.1412524455346023       -2.7364444044053471E-009 F
     orb,it,eci,eold,eci-eold=                    1                   24  -1.1412524727614879       -1.1412524482710467       -2.4490441230540227E-008 F
     orb,it,eci,eold,eci-eold=                    1                   25  -1.1412524861217848       -1.1412524727614879       -1.3360296868825117E-008 F
     orb,it,eci,eold,eci-eold=                    1                   26  -1.1412525084324416       -1.1412524861217848       -2.2310656877522206E-008 F
     orb,it,eci,eold,eci-eold=                    1                   27  -1.1412525209646531       -1.1412525084324416       -1.2532211490778877E-008 F
     orb,it,eci,eold,eci-eold=                    1                   28  -1.1412525293016293       -1.1412525209646531       -8.3369762204910103E-009 F
     orb,it,eci,eold,eci-eold=                    1                   29  -1.1412525316155144       -1.1412525293016293       -2.3138850835380254E-009 F
     orb,it,eci,eold,eci-eold=                    1                   30  -1.1412525390399506       -1.1412525316155144       -7.4244361769615352E-009 F
     orb,it,eci,eold,eci-eold=                    1                   31  -1.1412525439660675       -1.1412525390399506       -4.9261168477698902E-009 F
     orb,it,eci,eold,eci-eold=                    1                   32  -1.1412525446280837       -1.1412525439660675       -6.6201621962136414E-010 F
     orbital   1 current e=  0.441706E+00 error=0.585E-01 (eci= -0.114125254E+01 error=0.662E-09) iterations  32(   0 preconditioned, Ep,Sp= 20.0  200.0)
     orb,it,eci,eold,eci-eold=                    1                    1  -1.1412525679355676       -1.1412525446280837       -2.3307483942858198E-008 F
     orb,it,eci,eold,eci-eold=                    1                    2  -1.1412525690076878       -1.1412525679355676       -1.0721201704200212E-009 F
     orb,it,eci,eold,eci-eold=                    1                    3  -1.1412525694039877       -1.1412525690076878       -3.9629988179967768E-010 F
     orbital   1 current e=  0.441736E+00 error=0.306E-04 (eci= -0.114125257E+01 error=0.396E-09) iterations   3(   0 preconditioned, Ep,Sp= 20.0  200.0)
     orb,it,eci,eold,eci-eold=                    1                    1  -1.1412525737664216       -1.1412525694039877       -4.3624339696179959E-009 F
     orb,it,eci,eold,eci-eold=                    1                    2  -1.1412525755010310       -1.1412525737664216       -1.7346093450498756E-009 F
     orb,it,eci,eold,eci-eold=                    1                    3  -1.1412525768639403       -1.1412525755010310       -1.3629093409406323E-009 F
     orb,it,eci,eold,eci-eold=                    1                    4  -1.1412525768639403       -1.1412525768639403        0.0000000000000000      F
     orbital   1 current e=  0.441736E+00 error=0.827E-06 (eci= -0.114125258E+01 error=0.000E+00) iterations   4(   0 preconditioned, Ep,Sp= 20.0  200.0)
     orb,it,eci,eold,eci-eold=                    2                    1  -1.1264286667161294       -1.1263733929030226       -5.5273813106770930E-005 F
     orb,it,eci,eold,eci-eold=                    2                    2  -1.1264503017120644       -1.1264286667161294       -2.1634995934993739E-005 F
     orb,it,eci,eold,eci-eold=                    2                    3  -1.1264635522269855       -1.1264503017120644       -1.3250514921070433E-005 F
     orb,it,eci,eold,eci-eold=                    2                    4  -1.1264718664698643       -1.1264635522269855       -8.3142428788374190E-006 F
     orb,it,eci,eold,eci-eold=                    2                    5  -1.1264749413204238       -1.1264718664698643       -3.0748505595035169E-006 F
     orb,it,eci,eold,eci-eold=                    2                    6  -1.1264760284599376       -1.1264749413204238       -1.0871395137446171E-006 F
     orb,it,eci,eold,eci-eold=                    2                    7  -1.1264766798339858       -1.1264760284599376       -6.5137404825499345E-007 F
     orb,it,eci,eold,eci-eold=                    2                    8  -1.1264789309393024       -1.1264766798339858       -2.2511053165974459E-006 F
     orb,it,eci,eold,eci-eold=                    2                    9  -1.1264804987924073       -1.1264789309393024       -1.5678531049001521E-006 F
     orb,it,eci,eold,eci-eold=                    2                   10  -1.1264819977739877       -1.1264804987924073       -1.4989815804167250E-006 F
     orb,it,eci,eold,eci-eold=                    2                   11  -1.1264827143163996       -1.1264819977739877       -7.1654241184937462E-007 F
     orb,it,eci,eold,eci-eold=                    2                   12  -1.1264837892501411       -1.1264827143163996       -1.0749337415738580E-006 F
     orb,it,eci,eold,eci-eold=                    2                   13  -1.1264844087836454       -1.1264837892501411       -6.1953350427579323E-007 F
     orb,it,eci,eold,eci-eold=                    2                   14  -1.1264850235817581       -1.1264844087836454       -6.1479811264142370E-007 F
     orb,it,eci,eold,eci-eold=                    2                   15  -1.1264853558333143       -1.1264850235817581       -3.3225155626759317E-007 F
     orb,it,eci,eold,eci-eold=                    2                   16  -1.1264858063849699       -1.1264853558333143       -4.5055165553975485E-007 F
     orb,it,eci,eold,eci-eold=                    2                   17  -1.1264860583939817       -1.1264858063849699       -2.5200901188071612E-007 F
     orb,it,eci,eold,eci-eold=                    2                   18  -1.1264863625290757       -1.1264860583939817       -3.0413509399807026E-007 F
     orb,it,eci,eold,eci-eold=                    2                   19  -1.1264865191485298       -1.1264863625290757       -1.5661945407252631E-007 F
     orb,it,eci,eold,eci-eold=                    2                   20  -1.1264867100825864       -1.1264865191485298       -1.9093405656533946E-007 F
     orb,it,eci,eold,eci-eold=                    2                   21  -1.1264868115377915       -1.1264867100825864       -1.0145520512594430E-007 F
     orb,it,eci,eold,eci-eold=                    2                   22  -1.1264869446632488       -1.1264868115377915       -1.3312545732446779E-007 F
     orb,it,eci,eold,eci-eold=                    2                   23  -1.1264870150340045       -1.1264869446632488       -7.0370755667070739E-008 F
     orb,it,eci,eold,eci-eold=                    2                   24  -1.1264870967518870       -1.1264870150340045       -8.1717882460807800E-008 F
     orb,it,eci,eold,eci-eold=                    2                   25  -1.1264871407011410       -1.1264870967518870       -4.3949254013853079E-008 F
     orb,it,eci,eold,eci-eold=                    2                   26  -1.1264871928107989       -1.1264871407011410       -5.2109657922017050E-008 F
     orb,it,eci,eold,eci-eold=                    2                   27  -1.1264872217577913       -1.1264871928107989       -2.8946992358669377E-008 F
     orb,it,eci,eold,eci-eold=                    2                   28  -1.1264872594144975       -1.1264872217577913       -3.7656706197708445E-008 F
     orb,it,eci,eold,eci-eold=                    2                   29  -1.1264872796915186       -1.1264872594144975       -2.0277021173242815E-008 F
     orb,it,eci,eold,eci-eold=                    2                   30  -1.1264873029962708       -1.1264872796915186       -2.3304752128083805E-008 F
     orb,it,eci,eold,eci-eold=                    2                   31  -1.1264873156564059       -1.1264873029962708       -1.2660135162434472E-008 F
     orb,it,eci,eold,eci-eold=                    2                   32  -1.1264873311863577       -1.1264873156564059       -1.5529951769011063E-008 F
     orb,it,eci,eold,eci-eold=                    2                   33  -1.1264873396708066       -1.1264873311863577       -8.4844489212088092E-009 F
     orb,it,eci,eold,eci-eold=                    2                   34  -1.1264873511711651       -1.1264873396708066       -1.1500358443328196E-008 F
     orb,it,eci,eold,eci-eold=                    2                   35  -1.1264873573756424       -1.1264873511711651       -6.2044773763147987E-009 F
     orb,it,eci,eold,eci-eold=                    2                   36  -1.1264873645762068       -1.1264873573756424       -7.2005643669825758E-009 F
     orb,it,eci,eold,eci-eold=                    2                   37  -1.1264873683426486       -1.1264873645762068       -3.7664418250926701E-009 F
     orb,it,eci,eold,eci-eold=                    2                   38  -1.1264873730126141       -1.1264873683426486       -4.6699655253945593E-009 F
     orb,it,eci,eold,eci-eold=                    2                   39  -1.1264873730126141       -1.1264873730126141        0.0000000000000000      F
     orbital   2 current e=  0.834070E+00 error=0.138E+00 (eci= -0.112648737E+01 error=0.000E+00) iterations  39(   0 preconditioned, Ep,Sp= 20.0  200.0)
     orb,it,eci,eold,eci-eold=                    2                    1  -1.1264873802062525       -1.1264873721382755       -8.0679769531855072E-009 F
     orb,it,eci,eold,eci-eold=                    2                    2  -1.1264873802062525       -1.1264873802062525        0.0000000000000000      F
     orbital   2 current e=  0.834169E+00 error=0.985E-04 (eci= -0.112648738E+01 error=0.000E+00) iterations   2(   0 preconditioned, Ep,Sp= 20.0  200.0)
     orb,it,eci,eold,eci-eold=                    2                    1  -1.1264873802059741       -1.1264873802059741        0.0000000000000000      F
     orbital   2 current e=  0.834196E+00 error=0.268E-04 (eci= -0.112648738E+01 error=0.000E+00) iterations   1(   0 preconditioned, Ep,Sp= 20.0  200.0)
     orb,it,eci,eold,eci-eold=                    3                    1  -1.1251953972928879       -1.1251636600164887       -3.1737276399157466E-005 F
     orb,it,eci,eold,eci-eold=                    3                    2  -1.1252017971658455       -1.1251953972928879       -6.3998729575853730E-006 F
     orb,it,eci,eold,eci-eold=                    3                    3  -1.1252085750381071       -1.1252017971658455       -6.7778722616651521E-006 F
     orb,it,eci,eold,eci-eold=                    3                    4  -1.1252114710970345       -1.1252085750381071       -2.8960589273374637E-006 F
     orb,it,eci,eold,eci-eold=                    3                    5  -1.1252117673077149       -1.1252114710970345       -2.9621068042828824E-007 F
     orb,it,eci,eold,eci-eold=                    3                    6  -1.1252119915977308       -1.1252117673077149       -2.2429001589330255E-007 F
     orb,it,eci,eold,eci-eold=                    3                    7  -1.1252138627835109       -1.1252119915977308       -1.8711857801001486E-006 F
     orb,it,eci,eold,eci-eold=                    3                    8  -1.1252145717809789       -1.1252138627835109       -7.0899746806851738E-007 F
     orb,it,eci,eold,eci-eold=                    3                    9  -1.1252153249652390       -1.1252145717809789       -7.5318426007164874E-007 F
     orb,it,eci,eold,eci-eold=                    3                   10  -1.1252158227225602       -1.1252153249652390       -4.9775732113843674E-007 F
     orb,it,eci,eold,eci-eold=                    3                   11  -1.1252162664521936       -1.1252158227225602       -4.4372963348138228E-007 F
     orb,it,eci,eold,eci-eold=                    3                   12  -1.1252164911761806       -1.1252162664521936       -2.2472398697459539E-007 F
     orb,it,eci,eold,eci-eold=                    3                   13  -1.1252169114878510       -1.1252164911761806       -4.2031167035716521E-007 F
     orb,it,eci,eold,eci-eold=                    3                   14  -1.1252169496244380       -1.1252169114878510       -3.8136586999470978E-008 F
     orb,it,eci,eold,eci-eold=                    3                   15  -1.1252170463934341       -1.1252169496244380       -9.6768996149521058E-008 F
     orb,it,eci,eold,eci-eold=                    3                   16  -1.1252173381657495       -1.1252170463934341       -2.9177231541943627E-007 F
     orb,it,eci,eold,eci-eold=                    3                   17  -1.1252174004506645       -1.1252173381657495       -6.2284915003374408E-008 F
     orb,it,eci,eold,eci-eold=                    3                   18  -1.1252174529699261       -1.1252174004506645       -5.2519261606320811E-008 F
     orb,it,eci,eold,eci-eold=                    3                   19  -1.1252176521419315       -1.1252174529699261       -1.9917200533292601E-007 F
     orb,it,eci,eold,eci-eold=                    3                   20  -1.1252176837851029       -1.1252176521419315       -3.1643171416462224E-008 F
     orb,it,eci,eold,eci-eold=                    3                   21  -1.1252177035620992       -1.1252176837851029       -1.9776996262876878E-008 F
     orb,it,eci,eold,eci-eold=                    3                   22  -1.1252178441811616       -1.1252177035620992       -1.4061906239426492E-007 F
     orb,it,eci,eold,eci-eold=                    3                   23  -1.1252178642568840       -1.1252178441811616       -2.0075722417800534E-008 F
     orb,it,eci,eold,eci-eold=                    3                   24  -1.1252178651884339       -1.1252178642568840       -9.3154994829092175E-010 F
     orbital   3 current e=  0.853966E+00 error=0.886E-01 (eci= -0.112521787E+01 error=0.932E-09) iterations  24(   0 preconditioned, Ep,Sp= 20.0  200.0)
     orb,it,eci,eold,eci-eold=                    3                    1  -1.1252178994502586       -1.1252178651884339       -3.4261824710668520E-008 F
     orb,it,eci,eold,eci-eold=                    3                    2  -1.1252178999345863       -1.1252178994502586       -4.8432768906536694E-010 F
     orbital   3 current e=  0.853347E+00 error=0.618E-03 (eci= -0.112521790E+01 error=0.484E-09) iterations   2(   0 preconditioned, Ep,Sp= 20.0  200.0)
     orb,it,eci,eold,eci-eold=                    3                    1  -1.1252179161070841       -1.1252178999345863       -1.6172497785404971E-008 F
     orb,it,eci,eold,eci-eold=                    3                    2  -1.1252179172005317       -1.1252179161070841       -1.0934475547230704E-009 F
     orb,it,eci,eold,eci-eold=                    3                    3  -1.1252181913100709       -1.1252179172005317       -2.7410953928885817E-007 F
     orb,it,eci,eold,eci-eold=                    3                    4  -1.1252182931310459       -1.1252181913100709       -1.0182097498478981E-007 F
     orb,it,eci,eold,eci-eold=                    3                    5  -1.1252183223023868       -1.1252182931310459       -2.9171340898415110E-008 F
     orb,it,eci,eold,eci-eold=                    3                    6  -1.1252183260188149       -1.1252183223023868       -3.7164280541901462E-009 F
     orb,it,eci,eold,eci-eold=                    3                    7  -1.1252183272569070       -1.1252183260188149       -1.2380920733079392E-009 F
     orb,it,eci,eold,eci-eold=                    3                    8  -1.1252183436163590       -1.1252183272569070       -1.6359452015279885E-008 F
     orb,it,eci,eold,eci-eold=                    3                    9  -1.1252183558096420       -1.1252183436163590       -1.2193283049910519E-008 F
     orb,it,eci,eold,eci-eold=                    3                   10  -1.1252183603162651       -1.1252183558096420       -4.5066230747181635E-009 F
     orb,it,eci,eold,eci-eold=                    3                   11  -1.1252183618118672       -1.1252183603162651       -1.4956020866208064E-009 F
     orb,it,eci,eold,eci-eold=                    3                   12  -1.1252183618118672       -1.1252183618118672        0.0000000000000000      F
     orbital   3 current e=  0.850397E+00 error=0.295E-02 (eci= -0.112521836E+01 error=0.000E+00) iterations  12(   0 preconditioned, Ep,Sp= 20.0  200.0)
     orb,it,eci,eold,eci-eold=                    4                    1  -1.1251954060032743       -1.1251636596513208       -3.1746351953465535E-005 F
     orb,it,eci,eold,eci-eold=                    4                    2  -1.1252018069214222       -1.1251954060032743       -6.4009181479640631E-006 F
     orb,it,eci,eold,eci-eold=                    4                    3  -1.1252085882724878       -1.1252018069214222       -6.7813510655767573E-006 F
     orb,it,eci,eold,eci-eold=                    4                    4  -1.1252114816452083       -1.1252085882724878       -2.8933727205249227E-006 F
     orb,it,eci,eold,eci-eold=                    4                    5  -1.1252117863579185       -1.1252114816452083       -3.0471271017518120E-007 F
     orb,it,eci,eold,eci-eold=                    4                    6  -1.1252120156261796       -1.1252117863579185       -2.2926826104274767E-007 F
     orb,it,eci,eold,eci-eold=                    4                    7  -1.1252138662473732       -1.1252120156261796       -1.8506211936220041E-006 F
     orb,it,eci,eold,eci-eold=                    4                    8  -1.1252145614028146       -1.1252138662473732       -6.9515544143250452E-007 F
     orb,it,eci,eold,eci-eold=                    4                    9  -1.1252153189397336       -1.1252145614028146       -7.5753691897162412E-007 F
     orb,it,eci,eold,eci-eold=                    4                   10  -1.1252158214414665       -1.1252153189397336       -5.0250173289079214E-007 F
     orb,it,eci,eold,eci-eold=                    4                   11  -1.1252162629624824       -1.1252158214414665       -4.4152101597028093E-007 F
     orb,it,eci,eold,eci-eold=                    4                   12  -1.1252164857054108       -1.1252162629624824       -2.2274292832413778E-007 F
     orb,it,eci,eold,eci-eold=                    4                   13  -1.1252169074932952       -1.1252164857054108       -4.2178788439706238E-007 F
     orb,it,eci,eold,eci-eold=                    4                   14  -1.1252169470969744       -1.1252169074932952       -3.9603679224953225E-008 F
     orb,it,eci,eold,eci-eold=                    4                   15  -1.1252170439531148       -1.1252169470969744       -9.6856140441303751E-008 F
     orb,it,eci,eold,eci-eold=                    4                   16  -1.1252173347643548       -1.1252170439531148       -2.9081123997798386E-007 F
     orb,it,eci,eold,eci-eold=                    4                   17  -1.1252173992193109       -1.1252173347643548       -6.4454956039128319E-008 F
     orb,it,eci,eold,eci-eold=                    4                   18  -1.1252174535739741       -1.1252173992193109       -5.4354663214795096E-008 F
     orb,it,eci,eold,eci-eold=                    4                   19  -1.1252176512837577       -1.1252174535739741       -1.9770978365585279E-007 F
     orb,it,eci,eold,eci-eold=                    4                   20  -1.1252176827893279       -1.1252176512837577       -3.1505570152745577E-008 F
     orb,it,eci,eold,eci-eold=                    4                   21  -1.1252177038673377       -1.1252176827893279       -2.1078009782016238E-008 F
     orb,it,eci,eold,eci-eold=                    4                   22  -1.1252178440474319       -1.1252177038673377       -1.4018009419913824E-007 F
     orb,it,eci,eold,eci-eold=                    4                   23  -1.1252178637890147       -1.1252178440474319       -1.9741582812926595E-008 F
     orb,it,eci,eold,eci-eold=                    4                   24  -1.1252178653299882       -1.1252178637890147       -1.5409735709681627E-009 F
     orb,it,eci,eold,eci-eold=                    4                   25  -1.1252179636458790       -1.1252178653299882       -9.8315890761924152E-008 F
     orb,it,eci,eold,eci-eold=                    4                   26  -1.1252180053389926       -1.1252179636458790       -4.1693113628227252E-008 F
     orb,it,eci,eold,eci-eold=                    4                   27  -1.1252180142249240       -1.1252180053389926       -8.8859313240874371E-009 F
     orb,it,eci,eold,eci-eold=                    4                   28  -1.1252180739184539       -1.1252180142249240       -5.9693529896875930E-008 F
     orb,it,eci,eold,eci-eold=                    4                   29  -1.1252180983840674       -1.1252180739184539       -2.4465613535085140E-008 F
     orb,it,eci,eold,eci-eold=                    4                   30  -1.1252181119195639       -1.1252180983840674       -1.3535496501404509E-008 F
     orb,it,eci,eold,eci-eold=                    4                   31  -1.1252181574605871       -1.1252181119195639       -4.5541023174777706E-008 F
     orb,it,eci,eold,eci-eold=                    4                   32  -1.1252181661898875       -1.1252181574605871       -8.7293003936395053E-009 F
     orb,it,eci,eold,eci-eold=                    4                   33  -1.1252181721828995       -1.1252181661898875       -5.9930120865914205E-009 F
     orb,it,eci,eold,eci-eold=                    4                   34  -1.1252182084372244       -1.1252181721828995       -3.6254324875528710E-008 F
     orb,it,eci,eold,eci-eold=                    4                   35  -1.1252182183927562       -1.1252182084372244       -9.9555317323307690E-009 F
     orb,it,eci,eold,eci-eold=                    4                   36  -1.1252182207066093       -1.1252182183927562       -2.3138531091149162E-009 F
     orb,it,eci,eold,eci-eold=                    4                   37  -1.1252182460006663       -1.1252182207066093       -2.5294057071079123E-008 F
     orb,it,eci,eold,eci-eold=                    4                   38  -1.1252182566244566       -1.1252182460006663       -1.0623790291930391E-008 F
     orb,it,eci,eold,eci-eold=                    4                   39  -1.1252182596436389       -1.1252182566244566       -3.0191822375513766E-009 F
     orb,it,eci,eold,eci-eold=                    4                   40  -1.1252182770419197       -1.1252182596436389       -1.7398280816038891E-008 F
     orb,it,eci,eold,eci-eold=                    4                   41  -1.1252182828924404       -1.1252182770419197       -5.8505207345405097E-009 F
     orb,it,eci,eold,eci-eold=                    4                   42  -1.1252182852194288       -1.1252182828924404       -2.3269883797638613E-009 F
     orb,it,eci,eold,eci-eold=                    4                   43  -1.1252182978257350       -1.1252182852194288       -1.2606306221130126E-008 F
     orb,it,eci,eold,eci-eold=                    4                   44  -1.1252183015977093       -1.1252182978257350       -3.7719742884689822E-009 F
     orb,it,eci,eold,eci-eold=                    4                   45  -1.1252183032124436       -1.1252183015977093       -1.6147343462336039E-009 F
     orb,it,eci,eold,eci-eold=                    4                   46  -1.1252183128462709       -1.1252183032124436       -9.6338272914664458E-009 F
     orb,it,eci,eold,eci-eold=                    4                   47  -1.1252183151928947       -1.1252183128462709       -2.3466237841773818E-009 F
     orb,it,eci,eold,eci-eold=                    4                   48  -1.1252183158461495       -1.1252183151928947       -6.5325478360023226E-010 F
     orbital   4 current e=  0.849831E+00 error=0.927E-01 (eci= -0.112521832E+01 error=0.653E-09) iterations  48(   0 preconditioned, Ep,Sp= 20.0  200.0)
     orb,it,eci,eold,eci-eold=                    4                    1  -1.1252183256728743       -1.1252183158461495       -9.8267247672367830E-009 F
     orb,it,eci,eold,eci-eold=                    4                    2  -1.1252183308346833       -1.1252183256728743       -5.1618089802474287E-009 F
     orb,it,eci,eold,eci-eold=                    4                    3  -1.1252183457819249       -1.1252183308346833       -1.4947241666618538E-008 F
     orb,it,eci,eold,eci-eold=                    4                    4  -1.1252183462856677       -1.1252183457819249       -5.0374282523080183E-010 F
     orbital   4 current e=  0.850087E+00 error=0.255E-03 (eci= -0.112521835E+01 error=0.504E-09) iterations   4(   0 preconditioned, Ep,Sp= 20.0  200.0)
     orb,it,eci,eold,eci-eold=                    4                    1  -1.1252183595362928       -1.1252183462856677       -1.3250625041649755E-008 F
     orb,it,eci,eold,eci-eold=                    4                    2  -1.1252183610290210       -1.1252183595362928       -1.4927281632992617E-009 F
     orb,it,eci,eold,eci-eold=                    4                    3  -1.1252183618203191       -1.1252183610290210       -7.9129813812528482E-010 F
     orbital   4 current e=  0.850219E+00 error=0.132E-03 (eci= -0.112521836E+01 error=0.791E-09) iterations   3(   0 preconditioned, Ep,Sp= 20.0  200.0)
     orb,it,eci,eold,eci-eold=                    5                    1  -1.1206379501230479       -1.1206279681287890       -9.9819942589451927E-006 F
     orb,it,eci,eold,eci-eold=                    5                    2  -1.1206388449511175       -1.1206379501230479       -8.9482806964191752E-007 F
     orb,it,eci,eold,eci-eold=                    5                    3  -1.1206392197846955       -1.1206388449511175       -3.7483357795409233E-007 F
     orb,it,eci,eold,eci-eold=                    5                    4  -1.1206402644371909       -1.1206392197846955       -1.0446524953966474E-006 F
     orb,it,eci,eold,eci-eold=                    5                    5  -1.1206407398973612       -1.1206402644371909       -4.7546017034605370E-007 F
     orb,it,eci,eold,eci-eold=                    5                    6  -1.1206411032154284       -1.1206407398973612       -3.6331806718692405E-007 F
     orb,it,eci,eold,eci-eold=                    5                    7  -1.1206413616143329       -1.1206411032154284       -2.5839890449574909E-007 F
     orb,it,eci,eold,eci-eold=                    5                    8  -1.1206416737350087       -1.1206413616143329       -3.1212067574948321E-007 F
     orb,it,eci,eold,eci-eold=                    5                    9  -1.1206418046222224       -1.1206416737350087       -1.3088721373399892E-007 F
     orb,it,eci,eold,eci-eold=                    5                   10  -1.1206419579270535       -1.1206418046222224       -1.5330483105202575E-007 F
     orb,it,eci,eold,eci-eold=                    5                   11  -1.1206419900123554       -1.1206419579270535       -3.2085301970852242E-008 F
     orb,it,eci,eold,eci-eold=                    5                   12  -1.1206421176384209       -1.1206419900123554       -1.2762606549365785E-007 F
     orb,it,eci,eold,eci-eold=                    5                   13  -1.1206421966105962       -1.1206421176384209       -7.8972175243663401E-008 F
     orb,it,eci,eold,eci-eold=                    5                   14  -1.1206422284781101       -1.1206421966105962       -3.1867513961003624E-008 F
     orb,it,eci,eold,eci-eold=                    5                   15  -1.1206423501859750       -1.1206422284781101       -1.2170786489740237E-007 F
     orb,it,eci,eold,eci-eold=                    5                   16  -1.1206423619363133       -1.1206423501859750       -1.1750338257954240E-008 F
     orb,it,eci,eold,eci-eold=                    5                   17  -1.1206423679791666       -1.1206423619363133       -6.0428533288359176E-009 F
     orb,it,eci,eold,eci-eold=                    5                   18  -1.1206424414049456       -1.1206423679791666       -7.3425779012481485E-008 F
     orb,it,eci,eold,eci-eold=                    5                   19  -1.1206424875968184       -1.1206424414049456       -4.6191872771217390E-008 F
     orb,it,eci,eold,eci-eold=                    5                   20  -1.1206425171372110       -1.1206424875968184       -2.9540392576521413E-008 F
     orb,it,eci,eold,eci-eold=                    5                   21  -1.1206425305512255       -1.1206425171372110       -1.3414014565782395E-008 F
     orb,it,eci,eold,eci-eold=                    5                   22  -1.1206425621484024       -1.1206425305512255       -3.1597176874953448E-008 F
     orb,it,eci,eold,eci-eold=                    5                   23  -1.1206425643264610       -1.1206425621484024       -2.1780586223485443E-009 F
     orb,it,eci,eold,eci-eold=                    5                   24  -1.1206425653431915       -1.1206425643264610       -1.0167304775876573E-009 F
     orb,it,eci,eold,eci-eold=                    5                   25  -1.1206425823986168       -1.1206425653431915       -1.7055425294287829E-008 F
     orb,it,eci,eold,eci-eold=                    5                   26  -1.1206425847201869       -1.1206425823986168       -2.3215700473144807E-009 F
     orb,it,eci,eold,eci-eold=                    5                   27  -1.1206425852632678       -1.1206425847201869       -5.4308091357313515E-010 F
     orbital   5 current e=  0.186810E+01 error=0.187E+00 (eci= -0.112064259E+01 error=0.543E-09) iterations  27(   0 preconditioned, Ep,Sp= 20.0  200.0)
     orb,it,eci,eold,eci-eold=                    5                    1  -1.1206425997417906       -1.1206425852632678       -1.4478522825100981E-008 F
     orb,it,eci,eold,eci-eold=                    5                    2  -1.1206426097591622       -1.1206425997417906       -1.0017371598891600E-008 F
     orb,it,eci,eold,eci-eold=                    5                    3  -1.1206426471630464       -1.1206426097591622       -3.7403884212139360E-008 F
     orb,it,eci,eold,eci-eold=                    5                    4  -1.1206426588456737       -1.1206426471630464       -1.1682627309994587E-008 F
     orb,it,eci,eold,eci-eold=                    5                    5  -1.1206426631170745       -1.1206426588456737       -4.2714007886246463E-009 F
     orb,it,eci,eold,eci-eold=                    5                    6  -1.1206426641483016       -1.1206426631170745       -1.0312271037093979E-009 F
     orb,it,eci,eold,eci-eold=                    5                    7  -1.1206426641483016       -1.1206426641483016        0.0000000000000000      F
     orbital   5 current e=  0.186511E+01 error=0.300E-02 (eci= -0.112064266E+01 error=0.000E+00) iterations   7(   0 preconditioned, Ep,Sp= 20.0  200.0)
     orb,it,eci,eold,eci-eold=                    5                    1  -1.1206426649479369       -1.1206426636594786       -1.2884582289984792E-009 F
     orb,it,eci,eold,eci-eold=                    5                    2  -1.1206426649479369       -1.1206426649479369        0.0000000000000000      F
     orbital   5 current e=  0.186487E+01 error=0.231E-03 (eci= -0.112064266E+01 error=0.000E+00) iterations   2(   0 preconditioned, Ep,Sp= 20.0  200.0)
     orb,it,eci,eold,eci-eold=                    6                    1  -1.1203669520627799       -1.1203586530678149       -8.2989949650169592E-006 F
     orb,it,eci,eold,eci-eold=                    6                    2  -1.1203684894241317       -1.1203669520627799       -1.5373613517777329E-006 F
     orb,it,eci,eold,eci-eold=                    6                    3  -1.1203707946591177       -1.1203684894241317       -2.3052349860108734E-006 F
     orb,it,eci,eold,eci-eold=                    6                    4  -1.1203711001168863       -1.1203707946591177       -3.0545776863455387E-007 F
     orb,it,eci,eold,eci-eold=                    6                    5  -1.1203719906178673       -1.1203711001168863       -8.9050098095455610E-007 F
     orb,it,eci,eold,eci-eold=                    6                    6  -1.1203725418395956       -1.1203719906178673       -5.5122172826216342E-007 F
     orb,it,eci,eold,eci-eold=                    6                    7  -1.1203728880091055       -1.1203725418395956       -3.4616950994603712E-007 F
     orb,it,eci,eold,eci-eold=                    6                    8  -1.1203742117134026       -1.1203728880091055       -1.3237042970626334E-006 F
     orb,it,eci,eold,eci-eold=                    6                    9  -1.1203742296615773       -1.1203742117134026       -1.7948174724224941E-008 F
     orb,it,eci,eold,eci-eold=                    6                   10  -1.1203742607617964       -1.1203742296615773       -3.1100219066715340E-008 F
     orb,it,eci,eold,eci-eold=                    6                   11  -1.1203751747377824       -1.1203742607617964       -9.1397598600551078E-007 F
     orb,it,eci,eold,eci-eold=                    6                   12  -1.1203753956687645       -1.1203751747377824       -2.2093098217546014E-007 F
     orb,it,eci,eold,eci-eold=                    6                   13  -1.1203754472107736       -1.1203753956687645       -5.1542009105176589E-008 F
     orb,it,eci,eold,eci-eold=                    6                   14  -1.1203759403325337       -1.1203754472107736       -4.9312176009230768E-007 F
     orb,it,eci,eold,eci-eold=                    6                   15  -1.1203760331720412       -1.1203759403325337       -9.2839507415121147E-008 F
     orb,it,eci,eold,eci-eold=                    6                   16  -1.1203760566827410       -1.1203760331720412       -2.3510699831419402E-008 F
     orb,it,eci,eold,eci-eold=                    6                   17  -1.1203764400390457       -1.1203760566827410       -3.8335630470065496E-007 F
     orb,it,eci,eold,eci-eold=                    6                   18  -1.1203765210774501       -1.1203764400390457       -8.1038404431410527E-008 F
     orb,it,eci,eold,eci-eold=                    6                   19  -1.1203765454624772       -1.1203765210774501       -2.4385027108664303E-008 F
     orb,it,eci,eold,eci-eold=                    6                   20  -1.1203768429232888       -1.1203765454624772       -2.9746081153803061E-007 F
     orb,it,eci,eold,eci-eold=                    6                   21  -1.1203770025426580       -1.1203768429232888       -1.5961936927766374E-007 F
     orb,it,eci,eold,eci-eold=                    6                   22  -1.1203771206691180       -1.1203770025426580       -1.1812645994702109E-007 F
     orb,it,eci,eold,eci-eold=                    6                   23  -1.1203771707158050       -1.1203771206691180       -5.0046687016802593E-008 F
     orb,it,eci,eold,eci-eold=                    6                   24  -1.1203772665659542       -1.1203771707158050       -9.5850149151033293E-008 F
     orb,it,eci,eold,eci-eold=                    6                   25  -1.1203773277996363       -1.1203772665659542       -6.1233682124850475E-008 F
     orb,it,eci,eold,eci-eold=                    6                   26  -1.1203773998873028       -1.1203773277996363       -7.2087666502795855E-008 F
     orb,it,eci,eold,eci-eold=                    6                   27  -1.1203774363666610       -1.1203773998873028       -3.6479358200836032E-008 F
     orb,it,eci,eold,eci-eold=                    6                   28  -1.1203774858047371       -1.1203774363666610       -4.9438076077379378E-008 F
     orb,it,eci,eold,eci-eold=                    6                   29  -1.1203775104953504       -1.1203774858047371       -2.4690613331657119E-008 F
     orb,it,eci,eold,eci-eold=                    6                   30  -1.1203775396121560       -1.1203775104953504       -2.9116805633222498E-008 F
     orb,it,eci,eold,eci-eold=                    6                   31  -1.1203775555764997       -1.1203775396121560       -1.5964343624830235E-008 F
     orb,it,eci,eold,eci-eold=                    6                   32  -1.1203775779273850       -1.1203775555764997       -2.2350885364730289E-008 F
     orb,it,eci,eold,eci-eold=                    6                   33  -1.1203775889797558       -1.1203775779273850       -1.1052370796349464E-008 F
     orb,it,eci,eold,eci-eold=                    6                   34  -1.1203776009462689       -1.1203775889797558       -1.1966513113748078E-008 F
     orb,it,eci,eold,eci-eold=                    6                   35  -1.1203776073797220       -1.1203776009462689       -6.4334531035825648E-009 F
     orb,it,eci,eold,eci-eold=                    6                   36  -1.1203776170578981       -1.1203776073797220       -9.6781760383635174E-009 F
     orb,it,eci,eold,eci-eold=                    6                   37  -1.1203776223400554       -1.1203776170578981       -5.2821573781614006E-009 F
     orb,it,eci,eold,eci-eold=                    6                   38  -1.1203776283499984       -1.1203776223400554       -6.0099429877169541E-009 F
     orb,it,eci,eold,eci-eold=                    6                   39  -1.1203776315252079       -1.1203776283499984       -3.1752094287185173E-009 F
     orb,it,eci,eold,eci-eold=                    6                   40  -1.1203776362099049       -1.1203776315252079       -4.6846970747083105E-009 F
     orb,it,eci,eold,eci-eold=                    6                   41  -1.1203776362099049       -1.1203776362099049        0.0000000000000000      F
     orbital   6 current e=  0.195739E+01 error=0.347E+00 (eci= -0.112037764E+01 error=0.000E+00) iterations  41(   0 preconditioned, Ep,Sp= 20.0  200.0)
     orb,it,eci,eold,eci-eold=                    6                    1  -1.1203776457852235       -1.1203776356071835       -1.0178039966390884E-008 F
     orb,it,eci,eold,eci-eold=                    6                    2  -1.1203776463859147       -1.1203776457852235       -6.0069127449935422E-010 F
     orbital   6 current e=  0.195802E+01 error=0.632E-03 (eci= -0.112037765E+01 error=0.601E-09) iterations   2(   0 preconditioned, Ep,Sp= 20.0  200.0)
     orb,it,eci,eold,eci-eold=                    6                    1  -1.1203776515674928       -1.1203776463859147       -5.1815780555131141E-009 F
     orb,it,eci,eold,eci-eold=                    6                    2  -1.1203776515674928       -1.1203776515674928        0.0000000000000000      F
     orbital   6 current e=  0.195836E+01 error=0.345E-03 (eci= -0.112037765E+01 error=0.000E+00) iterations   2(   0 preconditioned, Ep,Sp= 20.0  200.0)
     orb,it,eci,eold,eci-eold=                    7                    1  -1.1202687892063805       -1.1202681922288324       -5.9697754806187220E-007 F
     orb,it,eci,eold,eci-eold=                    7                    2  -1.1202723265234615       -1.1202687892063805       -3.5373170810260035E-006 F
     orb,it,eci,eold,eci-eold=                    7                    3  -1.1202743071539034       -1.1202723265234615       -1.9806304418779064E-006 F
     orb,it,eci,eold,eci-eold=                    7                    4  -1.1202755496362262       -1.1202743071539034       -1.2424823228052162E-006 F
     orb,it,eci,eold,eci-eold=                    7                    5  -1.1202760926887434       -1.1202755496362262       -5.4305251717678971E-007 F
     orb,it,eci,eold,eci-eold=                    7                    6  -1.1202762147391299       -1.1202760926887434       -1.2205038646406763E-007 F
     orb,it,eci,eold,eci-eold=                    7                    7  -1.1202764573406900       -1.1202762147391299       -2.4260156017419376E-007 F
     orb,it,eci,eold,eci-eold=                    7                    8  -1.1202766215196853       -1.1202764573406900       -1.6417899528775592E-007 F
     orb,it,eci,eold,eci-eold=                    7                    9  -1.1202766698576545       -1.1202766215196853       -4.8337969182910001E-008 F
     orb,it,eci,eold,eci-eold=                    7                   10  -1.1202766906744255       -1.1202766698576545       -2.0816770973652865E-008 F
     orb,it,eci,eold,eci-eold=                    7                   11  -1.1202767188885168       -1.1202766906744255       -2.8214091285505560E-008 F
     orb,it,eci,eold,eci-eold=                    7                   12  -1.1202767422492657       -1.1202767188885168       -2.3360748890866034E-008 F
     orb,it,eci,eold,eci-eold=                    7                   13  -1.1202767801137248       -1.1202767422492657       -3.7864459123682082E-008 F
     orb,it,eci,eold,eci-eold=                    7                   14  -1.1202767978744901       -1.1202767801137248       -1.7760765302909931E-008 F
     orb,it,eci,eold,eci-eold=                    7                   15  -1.1202768015861715       -1.1202767978744901       -3.7116814066706638E-009 F
     orb,it,eci,eold,eci-eold=                    7                   16  -1.1202768018419786       -1.1202768015861715       -2.5580715323769709E-010 F
     orbital   7 current e=  0.194705E+01 error=0.201E+00 (eci= -0.112027680E+01 error=0.256E-09) iterations  16(   0 preconditioned, Ep,Sp= 20.0  200.0)
     orb,it,eci,eold,eci-eold=                    7                    1  -1.1202768214114889       -1.1202768018419786       -1.9569510234518361E-008 F
     orb,it,eci,eold,eci-eold=                    7                    2  -1.1202768245989270       -1.1202768214114889       -3.1874380912455536E-009 F
     orb,it,eci,eold,eci-eold=                    7                    3  -1.1202768245989270       -1.1202768245989270        0.0000000000000000      F
     orbital   7 current e=  0.194847E+01 error=0.141E-02 (eci= -0.112027682E+01 error=0.000E+00) iterations   3(   0 preconditioned, Ep,Sp= 20.0  200.0)
     orb,it,eci,eold,eci-eold=                    7                    1  -1.1202768246934556       -1.1202768238109355       -8.8252005703282066E-010 F
     orbital   7 current e=  0.194859E+01 error=0.127E-03 (eci= -0.112027682E+01 error=0.883E-09) iterations   1(   0 preconditioned, Ep,Sp= 20.0  200.0)
     orb,it,eci,eold,eci-eold=                    8                    1  -1.1202686026353037       -1.1202681624917352       -4.4014356848087743E-007 F
     orb,it,eci,eold,eci-eold=                    8                    2  -1.1202711179723159       -1.1202686026353037       -2.5153370122321661E-006 F
     orb,it,eci,eold,eci-eold=                    8                    3  -1.1202733792353787       -1.1202711179723159       -2.2612630627971697E-006 F
     orb,it,eci,eold,eci-eold=                    8                    4  -1.1202749660751028       -1.1202733792353787       -1.5868397240659249E-006 F
     orb,it,eci,eold,eci-eold=                    8                    5  -1.1202759236625139       -1.1202749660751028       -9.5758741114337909E-007 F
     orb,it,eci,eold,eci-eold=                    8                    6  -1.1202762322228159       -1.1202759236625139       -3.0856030197590201E-007 F
     orb,it,eci,eold,eci-eold=                    8                    7  -1.1202763174610941       -1.1202762322228159       -8.5238278213495278E-008 F
     orb,it,eci,eold,eci-eold=                    8                    8  -1.1202764726465022       -1.1202763174610941       -1.5518540807946124E-007 F
     orb,it,eci,eold,eci-eold=                    8                    9  -1.1202765764448022       -1.1202764726465022       -1.0379829995521561E-007 F
     orb,it,eci,eold,eci-eold=                    8                   10  -1.1202766324785065       -1.1202765764448022       -5.6033704343150248E-008 F
     orb,it,eci,eold,eci-eold=                    8                   11  -1.1202767088267789       -1.1202766324785065       -7.6348272370907466E-008 F
     orb,it,eci,eold,eci-eold=                    8                   12  -1.1202767471398332       -1.1202767088267789       -3.8313054284699888E-008 F
     orb,it,eci,eold,eci-eold=                    8                   13  -1.1202767698099092       -1.1202767471398332       -2.2670076038622256E-008 F
     orb,it,eci,eold,eci-eold=                    8                   14  -1.1202767805953118       -1.1202767698099092       -1.0785402571045211E-008 F
     orb,it,eci,eold,eci-eold=                    8                   15  -1.1202767966949985       -1.1202767805953118       -1.6099686694914794E-008 F
     orb,it,eci,eold,eci-eold=                    8                   16  -1.1202768061333641       -1.1202767966949985       -9.4383656445984343E-009 F
     orb,it,eci,eold,eci-eold=                    8                   17  -1.1202768124355058       -1.1202768061333641       -6.3021416973896294E-009 F
     orb,it,eci,eold,eci-eold=                    8                   18  -1.1202768155398393       -1.1202768124355058       -3.1043334569602621E-009 F
     orb,it,eci,eold,eci-eold=                    8                   19  -1.1202768192908794       -1.1202768155398393       -3.7510401451612552E-009 F
     orb,it,eci,eold,eci-eold=                    8                   20  -1.1202768213858387       -1.1202768192908794       -2.0949593171337710E-009 F
     orb,it,eci,eold,eci-eold=                    8                   21  -1.1202768234083125       -1.1202768213858387       -2.0224737440344143E-009 F
     orb,it,eci,eold,eci-eold=                    8                   22  -1.1202768234083125       -1.1202768234083125        0.0000000000000000      F
     orbital   8 current e=  0.194974E+01 error=0.199E+00 (eci= -0.112027682E+01 error=0.000E+00) iterations  22(   0 preconditioned, Ep,Sp= 20.0  200.0)
     orb,it,eci,eold,eci-eold=                    8                    1  -1.1202768258828553       -1.1202768225055382       -3.3773170926565399E-009 F
     orb,it,eci,eold,eci-eold=                    8                    2  -1.1202768264843725       -1.1202768258828553       -6.0151728042967534E-010 F
     orbital   8 current e=  0.194974E+01 error=0.300E-05 (eci= -0.112027683E+01 error=0.602E-09) iterations   2(   0 preconditioned, Ep,Sp= 20.0  200.0)
     orb,it,eci,eold,eci-eold=                    8                    1  -1.1202768264843725       -1.1202768264843725        0.0000000000000000      F
     orbital   8 current e=  0.194975E+01 error=0.579E-05 (eci= -0.112027683E+01 error=0.000E+00) iterations   1(   0 preconditioned, Ep,Sp= 20.0  200.0)
     orb,it,eci,eold,eci-eold=                    9                    1  -1.1198649625140222       -1.1198614761401868       -3.4863738354040663E-006 F
     orb,it,eci,eold,eci-eold=                    9                    2  -1.1198653867911326       -1.1198649625140222       -4.2427711033354853E-007 F
     orb,it,eci,eold,eci-eold=                    9                    3  -1.1198655072525574       -1.1198653867911326       -1.2046142483512767E-007 F
     orb,it,eci,eold,eci-eold=                    9                    4  -1.1198657733032986       -1.1198655072525574       -2.6605074121555106E-007 F
     orb,it,eci,eold,eci-eold=                    9                    5  -1.1198663610445656       -1.1198657733032986       -5.8774126698857287E-007 F
     orb,it,eci,eold,eci-eold=                    9                    6  -1.1198667622880354       -1.1198663610445656       -4.0124346978309688E-007 F
     orb,it,eci,eold,eci-eold=                    9                    7  -1.1198672091696367       -1.1198667622880354       -4.4688160127925869E-007 F
     orb,it,eci,eold,eci-eold=                    9                    8  -1.1198674707056477       -1.1198672091696367       -2.6153601107026248E-007 F
     orb,it,eci,eold,eci-eold=                    9                    9  -1.1198676425389449       -1.1198674707056477       -1.7183329714676177E-007 F
     orb,it,eci,eold,eci-eold=                    9                   10  -1.1198677177017713       -1.1198676425389449       -7.5162826407293437E-008 F
     orb,it,eci,eold,eci-eold=                    9                   11  -1.1198678599730718       -1.1198677177017713       -1.4227130051835957E-007 F
     orb,it,eci,eold,eci-eold=                    9                   12  -1.1198679380939096       -1.1198678599730718       -7.8120837798678622E-008 F
     orb,it,eci,eold,eci-eold=                    9                   13  -1.1198680307382403       -1.1198679380939096       -9.2644330651481255E-008 F
     orb,it,eci,eold,eci-eold=                    9                   14  -1.1198680753779142       -1.1198680307382403       -4.4639673957291848E-008 F
     orb,it,eci,eold,eci-eold=                    9                   15  -1.1198681157644790       -1.1198680753779142       -4.0386564759131716E-008 F
     orb,it,eci,eold,eci-eold=                    9                   16  -1.1198681416622087       -1.1198681157644790       -2.5897729738488806E-008 F
     orb,it,eci,eold,eci-eold=                    9                   17  -1.1198681792710543       -1.1198681416622087       -3.7608845593339879E-008 F
     orb,it,eci,eold,eci-eold=                    9                   18  -1.1198681824677137       -1.1198681792710543       -3.1966593816434852E-009 F
     orb,it,eci,eold,eci-eold=                    9                   19  -1.1198681970996425       -1.1198681824677137       -1.4631928779706982E-008 F
     orb,it,eci,eold,eci-eold=                    9                   20  -1.1198682170125438       -1.1198681970996425       -1.9912901327856503E-008 F
     orb,it,eci,eold,eci-eold=                    9                   21  -1.1198682170125438       -1.1198682170125438        0.0000000000000000      F
     orbital   9 current e=  0.271964E+01 error=0.414E+00 (eci= -0.111986822E+01 error=0.000E+00) iterations  21(   0 preconditioned, Ep,Sp= 20.0  200.0)
     orb,it,eci,eold,eci-eold=                    9                    1  -1.1198682462053611       -1.1198682163410036       -2.9864357431463873E-008 F
     orb,it,eci,eold,eci-eold=                    9                    2  -1.1198682563562927       -1.1198682462053611       -1.0150931650798611E-008 F
     orb,it,eci,eold,eci-eold=                    9                    3  -1.1198682845506402       -1.1198682563562927       -2.8194347523324836E-008 F
     orb,it,eci,eold,eci-eold=                    9                    4  -1.1198682856893563       -1.1198682845506402       -1.1387160103737415E-009 F
     orb,it,eci,eold,eci-eold=                    9                    5  -1.1198682862237592       -1.1198682856893563       -5.3440296632345508E-010 F
     orbital   9 current e=  0.273127E+01 error=0.116E-01 (eci= -0.111986829E+01 error=0.534E-09) iterations   5(   0 preconditioned, Ep,Sp= 20.0  200.0)
     orb,it,eci,eold,eci-eold=                    9                    1  -1.1198683001234591       -1.1198682862237592       -1.3899699835562274E-008 F
     orb,it,eci,eold,eci-eold=                    9                    2  -1.1198683036777342       -1.1198683001234591       -3.5542750964623337E-009 F
     orb,it,eci,eold,eci-eold=                    9                    3  -1.1198683040975494       -1.1198683036777342       -4.1981529363965819E-010 F
     orbital   9 current e=  0.273032E+01 error=0.956E-03 (eci= -0.111986830E+01 error=0.420E-09) iterations   3(   0 preconditioned, Ep,Sp= 20.0  200.0)
     orb,it,eci,eold,eci-eold=                   10                    1  -1.1198647032983706       -1.1198613289917216       -3.3743066489844153E-006 F
     orb,it,eci,eold,eci-eold=                   10                    2  -1.1198653960148524       -1.1198647032983706       -6.9271648173163669E-007 F
     orb,it,eci,eold,eci-eold=                   10                    3  -1.1198665181934051       -1.1198653960148524       -1.1221785527482098E-006 F
     orb,it,eci,eold,eci-eold=                   10                    4  -1.1198669382828599       -1.1198665181934051       -4.2008945477789439E-007 F
     orb,it,eci,eold,eci-eold=                   10                    5  -1.1198670373688175       -1.1198669382828599       -9.9085957661060320E-008 F
     orb,it,eci,eold,eci-eold=                   10                    6  -1.1198670634466672       -1.1198670373688175       -2.6077849657468732E-008 F
     orb,it,eci,eold,eci-eold=                   10                    7  -1.1198672480416165       -1.1198670634466672       -1.8459494932621112E-007 F
     orb,it,eci,eold,eci-eold=                   10                    8  -1.1198672989077676       -1.1198672480416165       -5.0866151068973409E-008 F
     orb,it,eci,eold,eci-eold=                   10                    9  -1.1198674014645964       -1.1198672989077676       -1.0255682880710992E-007 F
     orb,it,eci,eold,eci-eold=                   10                   10  -1.1198675699064211       -1.1198674014645964       -1.6844182471054125E-007 F
     orb,it,eci,eold,eci-eold=                   10                   11  -1.1198675921023231       -1.1198675699064211       -2.2195902005250900E-008 F
     orb,it,eci,eold,eci-eold=                   10                   12  -1.1198676530581821       -1.1198675921023231       -6.0955859026989856E-008 F
     orb,it,eci,eold,eci-eold=                   10                   13  -1.1198677831148427       -1.1198676530581821       -1.3005666055221354E-007 F
     orb,it,eci,eold,eci-eold=                   10                   14  -1.1198677831148427       -1.1198677831148427        0.0000000000000000      F
     orbital  10 current e=  0.273681E+01 error=0.398E+00 (eci= -0.111986778E+01 error=0.000E+00) iterations  14(   0 preconditioned, Ep,Sp= 20.0  200.0)
     orb,it,eci,eold,eci-eold=                   10                    1  -1.1198679621053087       -1.1198677827368784       -1.7936843033083960E-007 F
     orb,it,eci,eold,eci-eold=                   10                    2  -1.1198680188511478       -1.1198679621053087       -5.6745839138727661E-008 F
     orb,it,eci,eold,eci-eold=                   10                    3  -1.1198680969107966       -1.1198680188511478       -7.8059648744854826E-008 F
     orb,it,eci,eold,eci-eold=                   10                    4  -1.1198681222531353       -1.1198680969107966       -2.5342338672018627E-008 F
     orb,it,eci,eold,eci-eold=                   10                    5  -1.1198681467372549       -1.1198681222531353       -2.4484119620638012E-008 F
     orb,it,eci,eold,eci-eold=                   10                    6  -1.1198681577597549       -1.1198681467372549       -1.1022500023827320E-008 F
     orb,it,eci,eold,eci-eold=                   10                    7  -1.1198681622611821       -1.1198681577597549       -4.5014272309629177E-009 F
     orb,it,eci,eold,eci-eold=                   10                    8  -1.1198681707622189       -1.1198681622611821       -8.5010367634197337E-009 F
     orb,it,eci,eold,eci-eold=                   10                    9  -1.1198681707622189       -1.1198681707622189        0.0000000000000000      F
     orbital  10 current e=  0.273067E+01 error=0.614E-02 (eci= -0.111986817E+01 error=0.000E+00) iterations   9(   0 preconditioned, Ep,Sp= 20.0  200.0)
     orb,it,eci,eold,eci-eold=                   10                    1  -1.1198681863004440       -1.1198681707103424       -1.5590101654083810E-008 F
     orb,it,eci,eold,eci-eold=                   10                    2  -1.1198681874565970       -1.1198681863004440       -1.1561529511538993E-009 F
     orb,it,eci,eold,eci-eold=                   10                    3  -1.1198681874565970       -1.1198681874565970        0.0000000000000000      F
     orbital  10 current e=  0.273099E+01 error=0.317E-03 (eci= -0.111986819E+01 error=0.000E+00) iterations   3(   0 preconditioned, Ep,Sp= 20.0  200.0)
     orb,it,eci,eold,eci-eold=                   11                    1  -1.1198605611685564       -1.1198565032620675       -4.0579064888301986E-006 F
     orb,it,eci,eold,eci-eold=                   11                    2  -1.1198613039542491       -1.1198605611685564       -7.4278569273111827E-007 F
     orb,it,eci,eold,eci-eold=                   11                    3  -1.1198617331990577       -1.1198613039542491       -4.2924480858630432E-007 F
     orb,it,eci,eold,eci-eold=                   11                    4  -1.1198621445434387       -1.1198617331990577       -4.1134438100165482E-007 F
     orb,it,eci,eold,eci-eold=                   11                    5  -1.1198625457290845       -1.1198621445434387       -4.0118564581526073E-007 F
     orb,it,eci,eold,eci-eold=                   11                    6  -1.1198628404386091       -1.1198625457290845       -2.9470952456200905E-007 F
     orb,it,eci,eold,eci-eold=                   11                    7  -1.1198633016540613       -1.1198628404386091       -4.6121545227428840E-007 F
     orb,it,eci,eold,eci-eold=                   11                    8  -1.1198633570757706       -1.1198633016540613       -5.5421709221903370E-008 F
     orb,it,eci,eold,eci-eold=                   11                    9  -1.1198635444586984       -1.1198633570757706       -1.8738292784092891E-007 F
     orb,it,eci,eold,eci-eold=                   11                   10  -1.1198638316725142       -1.1198635444586984       -2.8721381584162486E-007 F
     orb,it,eci,eold,eci-eold=                   11                   11  -1.1198639743769865       -1.1198638316725142       -1.4270447223907468E-007 F
     orb,it,eci,eold,eci-eold=                   11                   12  -1.1198640932855439       -1.1198639743769865       -1.1890855744489670E-007 F
     orb,it,eci,eold,eci-eold=                   11                   13  -1.1198641428373588       -1.1198640932855439       -4.9551814873538547E-008 F
     orb,it,eci,eold,eci-eold=                   11                   14  -1.1198642088698956       -1.1198641428373588       -6.6032536771842842E-008 F
     orb,it,eci,eold,eci-eold=                   11                   15  -1.1198642522570696       -1.1198642088698956       -4.3387174075704138E-008 F
     orb,it,eci,eold,eci-eold=                   11                   16  -1.1198642992903225       -1.1198642522570696       -4.7033252847938911E-008 F
     orb,it,eci,eold,eci-eold=                   11                   17  -1.1198643267212967       -1.1198642992903225       -2.7430974158804133E-008 F
     orb,it,eci,eold,eci-eold=                   11                   18  -1.1198643611699519       -1.1198643267212967       -3.4448655261698491E-008 F
     orb,it,eci,eold,eci-eold=                   11                   19  -1.1198643798664489       -1.1198643611699519       -1.8696497017245406E-008 F
     orb,it,eci,eold,eci-eold=                   11                   20  -1.1198644052400857       -1.1198643798664489       -2.5373636747261230E-008 F
     orb,it,eci,eold,eci-eold=                   11                   21  -1.1198644171181971       -1.1198644052400857       -1.1878111383367695E-008 F
     orb,it,eci,eold,eci-eold=                   11                   22  -1.1198644275033420       -1.1198644171181971       -1.0385144966207349E-008 F
     orb,it,eci,eold,eci-eold=                   11                   23  -1.1198644319438360       -1.1198644275033420       -4.4404939725239956E-009 F
     orb,it,eci,eold,eci-eold=                   11                   24  -1.1198644380750709       -1.1198644319438360       -6.1312348531572525E-009 F
     orb,it,eci,eold,eci-eold=                   11                   25  -1.1198644380750709       -1.1198644380750709        0.0000000000000000      F
     orbital  11 current e=  0.302143E+01 error=0.492E+00 (eci= -0.111986444E+01 error=0.000E+00) iterations  25(   0 preconditioned, Ep,Sp= 20.0  200.0)
     orb,it,eci,eold,eci-eold=                   11                    1  -1.1198644504988005       -1.1198644371222106       -1.3376589835800701E-008 F
     orb,it,eci,eold,eci-eold=                   11                    2  -1.1198644552767179       -1.1198644504988005       -4.7779173950601717E-009 F
     orb,it,eci,eold,eci-eold=                   11                    3  -1.1198644568106746       -1.1198644552767179       -1.5339567394079268E-009 F
     orb,it,eci,eold,eci-eold=                   11                    4  -1.1198644568106746       -1.1198644568106746        0.0000000000000000      F
     orbital  11 current e=  0.302753E+01 error=0.610E-02 (eci= -0.111986446E+01 error=0.000E+00) iterations   4(   0 preconditioned, Ep,Sp= 20.0  200.0)
     orb,it,eci,eold,eci-eold=                   11                    1  -1.1198644585515636       -1.1198644564357705       -2.1157930962800719E-009 F
     orb,it,eci,eold,eci-eold=                   11                    2  -1.1198644592925562       -1.1198644585515636       -7.4099260061188943E-010 F
     orbital  11 current e=  0.302786E+01 error=0.331E-03 (eci= -0.111986446E+01 error=0.741E-09) iterations   2(   0 preconditioned, Ep,Sp= 20.0  200.0)
     orb,it,eci,eold,eci-eold=                   12                    1  -1.1198577509847905       -1.1198551776298713       -2.5733549191553351E-006 F
     orb,it,eci,eold,eci-eold=                   12                    2  -1.1198581979736528       -1.1198577509847905       -4.4698886236815838E-007 F
     orb,it,eci,eold,eci-eold=                   12                    3  -1.1198584207279172       -1.1198581979736528       -2.2275426436735302E-007 F
     orb,it,eci,eold,eci-eold=                   12                    4  -1.1198586221190852       -1.1198584207279172       -2.0139116796435985E-007 F
     orb,it,eci,eold,eci-eold=                   12                    5  -1.1198587114436573       -1.1198586221190852       -8.9324572183357986E-008 F
     orb,it,eci,eold,eci-eold=                   12                    6  -1.1198587531609696       -1.1198587114436573       -4.1717312271316587E-008 F
     orb,it,eci,eold,eci-eold=                   12                    7  -1.1198587948025096       -1.1198587531609696       -4.1641539993975130E-008 F
     orb,it,eci,eold,eci-eold=                   12                    8  -1.1198588243722378       -1.1198587948025096       -2.9569728221545688E-008 F
     orb,it,eci,eold,eci-eold=                   12                    9  -1.1198588622536658       -1.1198588243722378       -3.7881427994435057E-008 F
     orb,it,eci,eold,eci-eold=                   12                   10  -1.1198588811255927       -1.1198588622536658       -1.8871926910080106E-008 F
     orb,it,eci,eold,eci-eold=                   12                   11  -1.1198589179365182       -1.1198588811255927       -3.6810925418961915E-008 F
     orb,it,eci,eold,eci-eold=                   12                   12  -1.1198589237800662       -1.1198589179365182       -5.8435480898566539E-009 F
     orb,it,eci,eold,eci-eold=                   12                   13  -1.1198589309675402       -1.1198589237800662       -7.1874739493438256E-009 F
     orb,it,eci,eold,eci-eold=                   12                   14  -1.1198589554004907       -1.1198589309675402       -2.4432950551656063E-008 F
     orb,it,eci,eold,eci-eold=                   12                   15  -1.1198589558831820       -1.1198589554004907       -4.8269122032706946E-010 F
     orbital  12 current e=  0.207454E+01 error=0.218E+00 (eci= -0.111985896E+01 error=0.483E-09) iterations  15(   0 preconditioned, Ep,Sp= 20.0  200.0)
     orb,it,eci,eold,eci-eold=                   12                    1  -1.1198589964057934       -1.1198589558831820       -4.0522611488569282E-008 F
     orb,it,eci,eold,eci-eold=                   12                    2  -1.1198590074305605       -1.1198589964057934       -1.1024767099243604E-008 F
     orb,it,eci,eold,eci-eold=                   12                    3  -1.1198590074305605       -1.1198590074305605        0.0000000000000000      F
     orbital  12 current e=  0.207487E+01 error=0.333E-03 (eci= -0.111985901E+01 error=0.000E+00) iterations   3(   0 preconditioned, Ep,Sp= 20.0  200.0)
     orb,it,eci,eold,eci-eold=                   12                    1  -1.1198590170417060       -1.1198590068227627       -1.0218943247153334E-008 F
     orb,it,eci,eold,eci-eold=                   12                    2  -1.1198590206486780       -1.1198590170417060       -3.6069720543707717E-009 F
     orb,it,eci,eold,eci-eold=                   12                    3  -1.1198590229507477       -1.1198590206486780       -2.3020696460207546E-009 F
     orb,it,eci,eold,eci-eold=                   12                    4  -1.1198590230461378       -1.1198590229507477       -9.5390140231188525E-011 F
     orbital  12 current e=  0.207439E+01 error=0.477E-03 (eci= -0.111985902E+01 error=0.954E-10) iterations   4(   0 preconditioned, Ep,Sp= 20.0  200.0)
     orb,it,eci,eold,eci-eold=                   13                    1  -1.1198577548262425       -1.1198551900415028       -2.5647847397003432E-006 F
     orb,it,eci,eold,eci-eold=                   13                    2  -1.1198582174972540       -1.1198577548262425       -4.6267101150299084E-007 F
     orb,it,eci,eold,eci-eold=                   13                    3  -1.1198584450245772       -1.1198582174972540       -2.2752732320441282E-007 F
     orb,it,eci,eold,eci-eold=                   13                    4  -1.1198586335823237       -1.1198584450245772       -1.8855774652770663E-007 F
[...]
   16   13   16   16       -0.0000111086
   16   13   17   16       -0.0000000873
   16   13   18   16       -0.0027595842
   16   13   19   16       -0.0000000080
   16   13   17   17       -0.0000106694
   16   13   18   17       -0.0009369921
   16   13   19   17       -0.0000000026
   16   13   18   18       -0.0000108433
   16   13   19   18       -0.0000000121
   16   13   19   19       -0.0000122743
   17   13   17   13        0.0232502917
   17   13   18   13       -0.0000063551
   17   13   19   13       -0.0000000011
   17   13   14   14       -0.0000073280
   17   13   15   14       -0.0000001200
   17   13   16   14        0.0084627507
   17   13   17   14       -0.0000483890
   17   13   18   14       -0.0000100084
   17   13   19   14       -0.0000000023
   17   13   15   15       -0.0000071510
   17   13   16   15       -0.0000000044
   17   13   17   15        0.0000000130
   17   13   18   15        0.0000000002
   17   13   19   15        0.0000002131
   17   13   16   16       -0.0000065588
   17   13   17   16        0.0000000119
   17   13   18   16       -0.0009336455
   17   13   19   16       -0.0000000028
   17   13   17   17       -0.0000070038
   17   13   18   17        0.0027690003
   17   13   19   17        0.0000000075
   17   13   18   18       -0.0000053302
   17   13   19   18        0.0000000019
   17   13   19   19       -0.0000069647
   18   13   18   13        0.0070397612
   18   13   19   13        0.0000003235
   18   13   14   14       -0.0000260477
   18   13   15   14        0.0000000004
   18   13   16   14       -0.0000089597
   18   13   17   14       -0.0000198273
   18   13   18   14       -0.0000000036
   18   13   19   14        0.0000002687
   18   13   15   15       -0.0000375814
   18   13   16   15        0.0000000398
   18   13   17   15        0.0000000048
   18   13   18   15       -0.0000000229
   18   13   19   15       -0.0021580960
   18   13   16   16       -0.0026085901
   18   13   17   16       -0.0008762860
   18   13   18   16       -0.0000029345
   18   13   19   16       -0.0000000361
   18   13   17   17        0.0025540178
   18   13   18   17       -0.0000010205
   18   13   19   17       -0.0000000074
   18   13   18   18       -0.0000369376
   18   13   19   18       -0.0000000185
   18   13   19   19       -0.0000256543
   19   13   19   13        0.0488160581
   19   13   14   14        0.0000000009
   19   13   15   14       -0.0000136431
   19   13   16   14        0.0000000023
   19   13   17   14        0.0000000004
   19   13   18   14       -0.0000004674
   19   13   19   14        0.0437926863
   19   13   15   15        0.0000000093
   19   13   16   15       -0.0000005294
   19   13   17   15        0.0000010935
   19   13   18   15       -0.0008946188
   19   13   19   15       -0.0000000058
   19   13   16   16       -0.0000000083
   19   13   17   16       -0.0000000025
   19   13   18   16       -0.0000000444
   19   13   19   16        0.0000013750
   19   13   17   17        0.0000000053
   19   13   18   17       -0.0000000282
   19   13   19   17       -0.0000010593
   19   13   18   18       -0.0000002324
   19   13   19   18        0.0000022813
   19   13   19   19       -0.0000000019
   14   14   14   14        0.5847433604
   14   14   15   14       -0.0000000005
   14   14   16   14        0.0000232019
   14   14   17   14        0.0000002648
   14   14   18   14        0.0000034703
   14   14   19   14        0.0000000012
   14   14   15   15        0.5324566471
   14   14   16   15       -0.0000000601
   14   14   17   15       -0.0000000075
   14   14   18   15        0.0000001662
   14   14   19   15        0.0000113496
   14   14   16   16        0.5414493270
   14   14   17   16       -0.0000167500
   14   14   18   16       -0.0000077267
   14   14   19   16       -0.0000000017
   14   14   17   17        0.5416396008
   14   14   18   17        0.0000250881
   14   14   19   17        0.0000000004
   14   14   18   18        0.5203386508
   14   14   19   18       -0.0000001814
   14   14   19   19        0.5539834766
   15   14   15   14        0.0144834079
   15   14   16   14       -0.0000001281
   15   14   17   14       -0.0000000177
   15   14   18   14        0.0000000764
   15   14   19   14        0.0000048995
   15   14   15   15       -0.0000000002
   15   14   16   15        0.0000005392
   15   14   17   15       -0.0000000026
   15   14   18   15        0.0000007344
   15   14   19   15       -0.0000000306
   15   14   16   16       -0.0000000079
   15   14   17   16        0.0000000232
   15   14   18   16        0.0000000087
   15   14   19   16       -0.0000011182
   15   14   17   17        0.0000000075
   15   14   18   17       -0.0000000395
   15   14   19   17        0.0000008233
   15   14   18   18        0.0000000204
   15   14   19   18       -0.0008432659
   15   14   19   19       -0.0000000046
   16   14   16   14        0.0230884774
   16   14   17   14       -0.0000109041
   16   14   18   14       -0.0000047826
   16   14   19   14        0.0000000003
   16   14   15   15        0.0000107404
   16   14   16   15       -0.0000000043
   16   14   17   15        0.0000000131
   16   14   18   15        0.0000000000
   16   14   19   15       -0.0000002631
   16   14   16   16        0.0000098430
   16   14   17   16        0.0000002174
   16   14   18   16       -0.0009164640
   16   14   19   16       -0.0000000029
   16   14   17   17        0.0000098035
   16   14   18   17        0.0027754079
   16   14   19   17        0.0000000078
   16   14   18   18        0.0000138659
   16   14   19   18       -0.0000000085
   16   14   19   19        0.0000114427
   17   14   17   14        0.0230878327
   17   14   18   14        0.0000170419
   17   14   19   14        0.0000000001
   17   14   15   15        0.0000000060
   17   14   16   15        0.0000000131
   17   14   17   15        0.0000000044
   17   14   18   15       -0.0000000447
   17   14   19   15       -0.0000007197
   17   14   16   16        0.0000002850
   17   14   17   16       -0.0000000869
   17   14   18   16        0.0027659671
   17   14   19   16        0.0000000079
   17   14   17   17       -0.0000000458
   17   14   18   17        0.0009225353
   17   14   19   17        0.0000000024
   17   14   18   18       -0.0000015840
   17   14   19   18       -0.0000000010
   17   14   19   19        0.0000003162
   18   14   18   14        0.0070471427
   18   14   19   14       -0.0000005719
   18   14   15   15        0.0000086835
   18   14   16   15        0.0000000046
   18   14   17   15       -0.0000000400
   18   14   18   15        0.0000000382
   18   14   19   15       -0.0022823259
   18   14   16   16       -0.0008554680
   18   14   17   16        0.0026097413
   18   14   18   16        0.0000050353
   18   14   19   16       -0.0000000327
   18   14   17   17        0.0008724892
   18   14   18   17       -0.0000009678
   18   14   19   17       -0.0000000110
   18   14   18   18        0.0000085534
   18   14   19   18       -0.0000000195
   18   14   19   19        0.0000059380
   19   14   19   14        0.0535111690
   19   14   15   15        0.0000000099
   19   14   16   15        0.0000004512
   19   14   17   15       -0.0000004094
   19   14   18   15       -0.0009448261
   19   14   19   15       -0.0000000062
   19   14   16   16       -0.0000000035
   19   14   17   16        0.0000000072
   19   14   18   16       -0.0000000470
   19   14   19   16       -0.0000026673
   19   14   17   17        0.0000000006
   19   14   18   17       -0.0000000302
   19   14   19   17       -0.0000030163
   19   14   18   18       -0.0000002450
   19   14   19   18       -0.0000005077
   19   14   19   19       -0.0000000019
   15   15   15   15        0.6675641585
   15   15   16   15        0.0000003182
   15   15   17   15        0.0000000478
   15   15   18   15       -0.0000000285
   15   15   19   15        0.0000000016
   15   15   16   16        0.6105735097
   15   15   17   16       -0.0000003756
   15   15   18   16       -0.0000013675
   15   15   19   16        0.0000002657
   15   15   17   17        0.6108685141
   15   15   18   17        0.0000011756
   15   15   19   17       -0.0000001975
   15   15   18   18        0.6161115814
   15   15   19   18        0.0000001481
   15   15   19   19        0.5689484454
   16   15   16   15        0.0232145501
   16   15   17   15       -0.0000001023
   16   15   18   15       -0.0000001350
   16   15   19   15        0.0000000110
   16   15   16   16        0.0000004590
   16   15   17   16       -0.0000000060
   16   15   18   16       -0.0000000694
   16   15   19   16       -0.0105907759
   16   15   17   17        0.0000005467
   16   15   18   17       -0.0000001218
   16   15   19   17        0.0056864814
   16   15   18   18        0.0000005980
   16   15   19   18        0.0000006019
   16   15   19   19        0.0000000266
   17   15   17   15        0.0232473014
   17   15   18   15        0.0000000853
   17   15   19   15       -0.0000000099
   17   15   16   16        0.0000000799
   17   15   17   16       -0.0000000366
   17   15   18   16       -0.0000001219
   17   15   19   16        0.0056907559
   17   15   17   17        0.0000000676
   17   15   18   17       -0.0000000160
   17   15   19   17        0.0106022016
   17   15   18   18        0.0000001473
   17   15   19   18        0.0000032335
   17   15   19   19        0.0000000040
   18   15   18   15        0.0236389591
   18   15   19   15        0.0000000070
   18   15   16   16        0.0000000899
   18   15   17   16        0.0000001118
   18   15   18   16       -0.0000000128
   18   15   19   16        0.0000007009
   18   15   17   17        0.0000000398
   18   15   18   17        0.0000000054
   18   15   19   17        0.0000035220
   18   15   18   18        0.0000000628
   18   15   19   18        0.0000000265
   18   15   19   19        0.0000001337
   19   15   19   15        0.0215958857
   19   15   16   16        0.0094619979
   19   15   17   16       -0.0050465274
   19   15   18   16       -0.0000003002
   19   15   19   16       -0.0000000475
   19   15   17   17       -0.0094632145
   19   15   18   17       -0.0000024953
   19   15   19   17       -0.0000000065
   19   15   18   18        0.0000000700
   19   15   19   18        0.0000001039
   19   15   19   19       -0.0000000061
   16   16   16   16        0.6323129786
   16   16   17   16        0.0000327869
   16   16   18   16       -0.0000009060
   16   16   19   16       -0.0000001656
   16   16   17   17        0.5806027866
   16   16   18   17        0.0000009612
   16   16   19   17        0.0000001788
   16   16   18   18        0.5866294264
   16   16   19   18        0.0000001385
   16   16   19   19        0.5733202483
   17   16   17   16        0.0264735774
   17   16   18   16        0.0000000732
   17   16   19   16       -0.0000000090
   17   16   17   17       -0.0000344769
   17   16   18   17        0.0000000250
   17   16   19   17        0.0000001564
   17   16   18   18       -0.0000005188
   17   16   19   18       -0.0000000470
   17   16   19   19       -0.0000009934
   18   16   18   16        0.0252382850
   18   16   19   16        0.0000000304
   18   16   17   17       -0.0000010366
   18   16   18   17        0.0000003195
   18   16   19   17       -0.0000001328
   18   16   18   18       -0.0000020620
   18   16   19   18       -0.0000000012
   18   16   19   19        0.0000020141
   19   16   19   16        0.0245220847
   19   16   17   17       -0.0000001055
   19   16   18   17        0.0000001012
   19   16   19   17        0.0000010547
   19   16   18   18       -0.0000000004
   19   16   19   18        0.0000016236
   19   16   19   19       -0.0000000034
   17   17   17   17        0.6328711176
   17   17   18   17        0.0000007684
   17   17   19   17        0.0000000243
   17   17   18   18        0.5869281527
   17   17   19   18       -0.0000000369
   17   17   19   19        0.5735527961
   18   17   18   17        0.0252681832
   18   17   19   17       -0.0000000278
   18   17   18   18        0.0000016812
   18   17   19   18        0.0000000611
   18   17   19   19        0.0000086136
   19   17   19   17        0.0245329134
   19   17   18   18        0.0000000940
   19   17   19   18        0.0000050292
   19   17   19   19        0.0000000008
   18   18   18   18        0.6417716089
   18   18   19   18        0.0000002565
   18   18   19   19        0.5485210934
   19   18   19   18        0.0039823294
   19   18   19   19       -0.0000000929
   19   19   19   19        0.5938632772
 end_two_electron_integrals


 output epsi filename:./pspw_hf_H2.emovecs

 Total PSPW energy     :  -0.1119421640E+01


=== Spin Contamination ===

 <Sexact^2> =    0.0000000000000000     
 <S^2>      =    0.0000000000000000     



== Center of Charge ==

spin up     (    0.0000,    0.0000,    0.0000 )
spin down   (    0.0000,    0.0000,    0.0000 )
     total  (    0.0000,    0.0000,    0.0000 )
ionic       (    0.0000,    0.0000,    0.0000 )


== Molecular Dipole wrt Center of Mass ==

mu   =  (   -0.0000,   -0.0000,   -0.0000 ) au
|mu| =     0.0000 au,       0.0000 Debye

 output psi filename:./pspw_hf_H2.movecs

 Writing Crystallographic Information File:./H2.cif
   - cell not shifted (nwpw:cif_shift_cell .false.)


== Timing ==

cputime in seconds
  prologue    :   0.718042E+01
  main loop   :   0.277304E+03
  epilogue    :   0.156521E-01
  total       :   0.284500E+03
  cputime/step:   0.295004E+01       (      94 evalulations,      42 linesearches)


Time spent doing                        total          step       percent
  total time                 :   0.284517E+03  0.302678E+01       100.0 %
  i/o time                   :   0.463547E+00  0.493135E-02         0.2 %
  FFTs                       :   0.194739E+03  0.207169E+01        68.4 %
  dot products               :   0.152775E+02  0.162527E+00         5.4 %
  geodesic                   :   0.465475E-01  0.495186E-03         0.0 %
  ffm_dgemm                  :   0.690670E-02  0.734755E-04         0.0 %
  fmf_dgemm                  :   0.497781E-02  0.529554E-04         0.0 %
  mmm_dgemm                  :   0.158508E-02  0.168625E-04         0.0 %
  m_diagonalize              :   0.855787E-03  0.910412E-05         0.0 %
  local pseudopotentials     :   0.297315E+01  0.316292E-01         1.0 %
  non-local pseudopotentials :   0.147378E+02  0.156785E+00         5.2 %
  structure factors          :   0.297399E+00  0.316382E-02         0.1 %
  phase factors              :   0.641800E-05  0.682766E-07         0.0 %
  masking and packing        :   0.126186E+02  0.134240E+00         4.4 %
  queue fft                  :   0.561102E+01  0.596917E-01         2.0 %
  queue fft (serial)         :   0.170709E+01  0.181606E-01         0.6 %
  queue fft (message passing):   0.388158E+01  0.412934E-01         1.4 %
  HFX potential              :   0.395555E+01  0.420803E-01         1.4 %
  non-local psp FFM          :   0.144621E+02  0.153852E+00         5.1 %
  non-local psp FMF          :   0.589691E-01  0.627331E-03         0.0 %
  non-local psp FFM A        :   0.240080E-01  0.255404E-03         0.0 %
  non-local psp FFM B        :   0.800235E-01  0.851314E-03         0.0 %

== HFX Counters ==
  HFX Evalulations         =    94
  Lin ACE HFX Evalulations =     0


     >>>  JOB COMPLETED     AT Sun Apr  6 09:40:31 2025  <<<

 Task  times  cpu:      261.0s     wall:      284.5s


                                NWChem Input Module
                                -------------------


 Summary of allocated global arrays
-----------------------------------
  No active global arrays


MA_summarize_allocated_blocks: starting scan ...
MA_summarize_allocated_blocks: scan completed: 0 heap blocks, 0 stack blocks
MA usage statistics:

	allocation statistics:
					      heap	     stack
					      ----	     -----
	current number of blocks	         0	         0
	maximum number of blocks	       313	        36
	current total bytes		         0	         0
	maximum total bytes		  16802688	   5334760
	maximum total K-bytes		     16803	      5335
	maximum total M-bytes		        17	         6


                                     CITATION
                                     --------
                Please cite the following reference when publishing
                           results obtained with NWChem:

          E. Apra, E. J. Bylaska, W. A. de Jong, N. Govind, K. Kowalski,
       T. P. Straatsma, M. Valiev, H. J. J. van Dam, Y. Alexeev, J. Anchell,
       V. Anisimov, F. W. Aquino, R. Atta-Fynn, J. Autschbach, N. P. Bauman,
     J. C. Becca, D. E. Bernholdt, K. Bhaskaran-Nair, S. Bogatko, P. Borowski,
         J. Boschen, J. Brabec, A. Bruner, E. Cauet, Y. Chen, G. N. Chuev,
      C. J. Cramer, J. Daily, M. J. O. Deegan, T. H. Dunning Jr., M. Dupuis,
   K. G. Dyall, G. I. Fann, S. A. Fischer, A. Fonari, H. Fruchtl, L. Gagliardi,
      J. Garza, N. Gawande, S. Ghosh, K. Glaesemann, A. W. Gotz, J. Hammond,
       V. Helms, E. D. Hermes, K. Hirao, S. Hirata, M. Jacquelin, L. Jensen,
   B. G. Johnson, H. Jonsson, R. A. Kendall, M. Klemm, R. Kobayashi, V. Konkov,
      S. Krishnamoorthy, M. Krishnan, Z. Lin, R. D. Lins, R. J. Littlefield,
      A. J. Logsdail, K. Lopata, W. Ma, A. V. Marenich, J. Martin del Campo,
   D. Mejia-Rodriguez, J. E. Moore, J. M. Mullin, T. Nakajima, D. R. Nascimento,
    J. A. Nichols, P. J. Nichols, J. Nieplocha, A. Otero-de-la-Roza, B. Palmer,
    A. Panyala, T. Pirojsirikul, B. Peng, R. Peverati, J. Pittner, L. Pollack,
   R. M. Richard, P. Sadayappan, G. C. Schatz, W. A. Shelton, D. W. Silverstein,
   D. M. A. Smith, T. A. Soares, D. Song, M. Swart, H. L. Taylor, G. S. Thomas,
            V. Tipparaju, D. G. Truhlar, K. Tsemekhman, T. Van Voorhis,
      A. Vazquez-Mayagoitia, P. Verma, O. Villa, A. Vishnu, K. D. Vogiatzis,
        D. Wang, J. H. Weare, M. J. Williamson, T. L. Windus, K. Wolinski,
        A. T. Wong, Q. Wu, C. Yang, Q. Yu, M. Zacharias, Z. Zhang, Y. Zhao,
                                and R. J. Harrison
                        "NWChem: Past, present, and future
                         J. Chem. Phys. 152, 184102 (2020)
                               doi:10.1063/5.0004997

                                      AUTHORS
                                      -------
  E. Apra, E. J. Bylaska, N. Govind, K. Kowalski, M. Valiev, D. Mejia-Rodriguez,
       A. Kunitsa, N. P. Bauman, A. Panyala, W. A. de Jong, T. P. Straatsma,
   H. J. J. van Dam, D. Wang, T. L. Windus, J. Hammond, J. Autschbach, A. Woods,
    K. Bhaskaran-Nair, J. Brabec, K. Lopata, S. A. Fischer, S. Krishnamoorthy,
     M. Jacquelin, W. Ma, M. Klemm, O. Villa, Y. Chen, V. Anisimov, F. Aquino,
     S. Hirata, M. T. Hackler, E. Hermes, L. Jensen, J. E. Moore, J. C. Becca,
      V. Konjkov, T. Risthaus, M. Malagoli, A. Marenich, A. Otero-de-la-Roza,
        J. Mullin, P. Nichols, R. Peverati, J. Pittner, Y. Zhao, P.-D. Fan,
        A. Fonari, M. J. Williamson, R. J. Harrison, J. R. Rehr, M. Dupuis,
     D. Silverstein, D. M. A. Smith, J. Nieplocha, V. Tipparaju, M. Krishnan,
     B. E. Van Kuiken, A. Vazquez-Mayagoitia, M. Swart, Q. Wu, T. Van Voorhis,
     A. A. Auer, M. Nooijen, L. D. Crosby, E. Brown, G. Cisneros, G. I. Fann,
   H. Fruchtl, J. Garza, K. Hirao, R. A. Kendall, J. A. Nichols, K. Tsemekhman,
    K. Wolinski, J. Anchell, D. E. Bernholdt, P. Borowski, T. Clark, D. Clerc,
   H. Dachsel, M. J. O. Deegan, K. Dyall, D. Elwood, E. Glendening, M. Gutowski,
   A. C. Hess, J. Jaffe, B. G. Johnson, J. Ju, R. Kobayashi, R. Kutteh, Z. Lin,
   R. Littlefield, X. Long, B. Meng, T. Nakajima, S. Niu, L. Pollack, M. Rosing,
   K. Glaesemann, G. Sandrone, M. Stave, H. Taylor, G. Thomas, J. H. van Lenthe,
                               A. T. Wong, Z. Zhang.

 Total times  cpu:      261.0s     wall:      284.6s
