 argument  1 = H2-0.6.nw



============================== echo of input deck ==============================
title "swnc: e theory=pspw4 xc=hf formula=H2 charge=0 mult=1"
#machinejob:expert

echo

start pspw_hf_H2

memory heap 1200 mb stack 1200 mb global 10 mb

charge 0

geometry
H    0.00000    0.00000   -0.30000
H    0.00000    0.00000    0.30000
end

nwpw
  ### pseudopotential block begin ###
  ### pseudopotential block end   ###
  simulation_cell
     SC 15.0000
     boundary_conditions aperiodic
  end

  cutoff 50.0
  mult 1
  xc hf
  lmbfgs
  tolerances 1.0e-9 1.0e-9

  virtual 18
end
set nwpw:cif_filename H2

#set nwpw:CI_maxit_orb 15
#set nwpw:CI_maxit_linesearch 15
set pspw:HFX_screening_radius 14.0


set nwpw:2qintegrals .true.
set nwpw:3x3_virtual .true.

task pspw energy
================================================================================


                                         
                                         


             Northwest Computational Chemistry Package (NWChem) 7.2.3
             --------------------------------------------------------


                    Environmental Molecular Sciences Laboratory
                       Pacific Northwest National Laboratory
                                Richland, WA 99352

                              Copyright (c) 1994-2022
                       Pacific Northwest National Laboratory
                            Battelle Memorial Institute

             NWChem is an open-source computational chemistry package
                        distributed under the terms of the
                      Educational Community License (ECL) 2.0
             A copy of the license is included with this distribution
                              in the LICENSE.TXT file

                                  ACKNOWLEDGMENT
                                  --------------

            This software and its documentation were developed at the
            EMSL at Pacific Northwest National Laboratory, a multiprogram
            national laboratory, operated for the U.S. Department of Energy
            by Battelle under Contract Number DE-AC05-76RL01830. Support
            for this work was provided by the Department of Energy Office
            of Biological and Environmental Research, Office of Basic
            Energy Sciences, and the Office of Advanced Scientific Computing.


           Job information
           ---------------

    hostname        = mqs-al
    program         = nwchem
    date            = Sun Apr  6 09:18:01 2025

    compiled        = Thu_Oct_31_08:55:15_2024
    source          = /home/conda/feedstock_root/build_artifacts/nwchem_1730356057992/work
    nwchem branch   = 7.2.3
    nwchem revision = c400b04
    ga revision     = 5.8.0
    use scalapack   = T
    input           = H2-0.6.nw
    prefix          = pspw_hf_H2.
    data base       = ./pspw_hf_H2.db
    status          = startup
    nproc           =       24
    time left       =     -1s



           Memory information
           ------------------

    heap     =  157286394 doubles =   1200.0 Mbytes
    stack    =  157286399 doubles =   1200.0 Mbytes
    global   =    1310720 doubles =     10.0 Mbytes (distinct from heap & stack)
    total    =  315883513 doubles =   2410.0 Mbytes
    verify   = yes
    hardfail = no 


           Directory information
           ---------------------

  0 permanent = .
  0 scratch   = .




                                NWChem Input Module
                                -------------------


               swnc: e theory=pspw4 xc=hf formula=H2 charge=0 mult=1
               -----------------------------------------------------

 Scaling coordinates for geometry "geometry" by  1.889725989
 (inverse scale =  0.529177249)

  zeroes
  zeroes
  zeroes
  zeroes
  zeroes
  zeroes
  zeroes
  zeroes
  zeroes
  zeroes
  zeroes
  zeroes
  zeroes
  zeroes
  zeroes
  zeroes
  zeroes
  zeroes
  zeroes
  zeroes
  zeroes
  zeroes
  zeroes
  zeroes
  zeroes
  zeroes
  zeroes
  zeroes
  zeroes
  zeroes
  zeroes
  zeroes
  zeroes
  zeroes
  zeroes
  zeroes
  zeroes
  zeroes
  zeroes
  zeroes
  zeroes
  zeroes
  zeroes
  zeroes
  zeroes
  zeroes
  zeroes
  zeroes
 ORDER OF PRIMARY AXIS IS BEING SET TO 4
 D4H symmetry detected

          ------
          auto-z
          ------
  no constraints, skipping    0.0000000000000000     
  no constraints, skipping    0.0000000000000000     


                             Geometry "geometry" -> ""
                             -------------------------

 Output coordinates in angstroms (scale by  1.889725989 to convert to a.u.)

  No.       Tag          Charge          X              Y              Z
 ---- ---------------- ---------- -------------- -------------- --------------
    1 H                    1.0000     0.00000000     0.00000000    -0.30000000
    2 H                    1.0000     0.00000000     0.00000000     0.30000000

      Atomic Mass 
      ----------- 

      H                  1.007825


 Effective nuclear repulsion energy (a.u.)       0.8819620817

            Nuclear Dipole moment (a.u.) 
            ----------------------------
        X                 Y               Z
 ---------------- ---------------- ----------------
     0.0000000000     0.0000000000     0.0000000000

      Symmetry information
      --------------------

 Group name             D4h       
 Group number             28
 Group order              16
 No. of unique centers     1

      Symmetry unique atoms

     1



                                Z-matrix (autoz)
                                -------- 

 Units are Angstrom for bonds and degrees for angles

      Type          Name      I     J     K     L     M      Value
      ----------- --------  ----- ----- ----- ----- ----- ----------
    1 Stretch                  1     2                       0.60000


            XYZ format geometry
            -------------------
     2
 geometry
 H                     0.00000000     0.00000000    -0.30000000
 H                     0.00000000     0.00000000     0.30000000

 ==============================================================================
                                internuclear distances
 ------------------------------------------------------------------------------
       center one      |      center two      | atomic units |  angstroms
 ------------------------------------------------------------------------------
    2 H                |   1 H                |     1.13384  |     0.60000
 ------------------------------------------------------------------------------
                         number of included internuclear distances:          1
 ==============================================================================



          ****************************************************
          *                                                  *
          *               NWPW PSPW Calculation              *
          *                                                  *
          * [ (Grassmann/Stiefel manifold implementation)  ] *
          *                                                  *
          *      [ NorthWest Chemistry implementation ]      *
          *                                                  *
          *            version #5.10   06/12/02              *
          *                                                  *
          *    This code was developed by Eric J. Bylaska,   *
          *    and was based upon algorithms and code        *
          *    developed by the group of Prof. John H. Weare *
          *                                                  *
          ****************************************************
     >>>  JOB STARTED       AT Sun Apr  6 09:18:01 2025  <<<
          ================ input data ========================
  library name resolved from: environment
  NWCHEM_NWPW_LIBRARY set to: </home/adria/miniconda/envs/adrienv/share/nwchem/libraryps/>
 Generating 1d pseudopotential for H   

 Generated formatted_filename: ./H.vpp
 random planewave guess, initial psi:pspw_hf_H2.movecs                                 
 -   spin, nalpha, nbeta:                    1                    1                    0

 input psi filename:./pspw_hf_H2.movecs

 Warning - K.S. orbitals are not orthonormal. Applying Gram-Schmidt orthonormalization.
         - exact norm=0.100000E+01 norm=0.791079E+00 corrected norm=0.100000E+01 (error=0.208921E+00)


 number of processors used:        24
 processor grid           :  24 x   1
 parallel mapping         :2d-hilbert
 parallel mapping         :  balanced
 number of threads        :         1
 parallel io              :       off

 options:
      boundary conditions  = aperiodic   (version4)
      electron spin        = restricted
      exchange-correlation = Hartree-Fock
      - HFX relaxed
      - HFX restricted orbitals :    1
      - HFX free-space coulomb solver


 elements involved in the cluster:
      1: H   valence charge:  1.0000  lmax=  1
             comment    : Parameterized (Chem.Phys.Lett., vol 322, page 447) Hamman psp
             pseudpotential type            :   0
             highest angular component      :   1
             local potential used           :   1
             number of non-local projections:   1
             aperiodic cutoff radius        :  1.000
             cutoff =   0.800   0.800


 total charge:   0.000

 atomic composition:
     H   :    2

 number of electrons: spin up=     1 (   1 per task)  down=     1 (   1 per task) (Fourier space)
 number of orbitals : spin up=     1 (   1 per task)  down=     1 (   1 per task) (Fourier space)

 supercell:
      cell_name:  cell_default                                      
      lattice:    a1=<  15.000   0.000   0.000 >
                  a2=<   0.000  15.000   0.000 >
                  a3=<   0.000   0.000  15.000 >
      reciprocal: b1=<   0.419   0.000   0.000 >
                  b2=<   0.000   0.419   0.000 >
                  b3=<   0.000   0.000   0.419 >
      lattice:    a=      15.000 b=     15.000 c=      15.000
                  alpha=  90.000 beta=  90.000 gamma=  90.000
                  omega=      3375.0

      density cutoff= 25.000  fft= 36x 36x 36(    10003 waves      416 per task)
      wavefnc cutoff= 12.500  fft= 36x 36x 36(     3562 waves      148 per task)

 technical parameters:
      time step=      5.80     fictitious mass=  400000.0
      tolerance=0.100E-08 (energy)   0.100E-08 (density)
      maximum iterations =      1000 (   10 inner    100 outer )





== Energy Calculation ==


          ============ Grassmann lmbfgs iteration ============
     >>>  ITERATION STARTED AT Sun Apr  6 09:18:02 2025  <<<
    iter.           Energy         DeltaE       DeltaRho 
    ------------------------------------------------------
     -  15 steepest descent iterations performed
      10   -0.1113792367E+01   -0.13725E-01    0.21886E+00
     -  10 steepest descent iterations performed
      20   -0.1120466506E+01   -0.26582E-05    0.10241E-03
      30   -0.1120468387E+01   -0.20896E-09    0.42029E-07
      40   -0.1120468387E+01   -0.89666E-10    0.71855E-13
  *** tolerance ok. iteration terminated
     >>>  ITERATION ENDED   AT Sun Apr  6 09:18:03 2025  <<<


==  Summary Of Results  ==

 number of electrons: spin up=    1.00000  down=    1.00000 (real space)

 total     energy    :  -0.1120468387E+01 (   -0.56023E+00/ion)
 total orbital energy:  -0.1291096291E+01 (   -0.12911E+01/electron)
 hartree   energy    :   0.1422668356E+01 (    0.14227E+01/electron)
 exc-corr  energy    :   0.0000000000E+00 (    0.00000E+00/electron)
 HF exchange energy  :  -0.7113341780E+00 (   -0.71133E+00/electron)
 ion-ion   energy    :   0.8819620817E+00 (    0.44098E+00/ion)

 kinetic (planewave) :   0.1229694660E+01 (    0.12297E+01/electron)
 V_local (planewave) :  -0.3539307802E+01 (   -0.35393E+01/electron)
 V_nl    (planewave) :  -0.4041515048E+00 (   -0.40415E+00/electron)
 V_Coul  (planewave) :   0.2845336712E+01 (    0.28453E+01/electron)
 V_xc.   (planewave) :   0.0000000000E+00 (    0.00000E+00/electron)
 K.S. HFX energy     :  -0.1422668356E+01 (   -0.14227E+01/electron)
 Virial Coefficient  :  -0.8930042803E+00

 orbital energies:
    -0.6455481E+00 ( -17.566eV)


== Virtual Orbital Calculation ==

 random planewave guess, initial psi:pspw_hf_H2.emovecs                                
 -   spin, nalpha, nbeta:                    1                   18                    0

 input epsi filename:./pspw_hf_H2.emovecs

 COVOs Mimimization
 ------------------
CI gradient algorithm =         3
maxit_sweeps          =         3
maxit_orb             =       120
maxit_linesearch      =        15
maxerror              = 0.100E-08

     orb,it,eci,eold,eci-eold=                    1                    1  -1.1257500952781387       -1.1204777376918857       -5.2723575862529959E-003 F
     orb,it,eci,eold,eci-eold=                    1                    2  -1.1276600719128391       -1.1257500952781387       -1.9099766347003833E-003 F
     orb,it,eci,eold,eci-eold=                    1                    3  -1.1280645684345110       -1.1276600719128391       -4.0449652167184880E-004 F
     orb,it,eci,eold,eci-eold=                    1                    4  -1.1285768823056250       -1.1280645684345110       -5.1231387111405624E-004 F
     orb,it,eci,eold,eci-eold=                    1                    5  -1.1286781394923360       -1.1285768823056250       -1.0125718671094575E-004 F
     orb,it,eci,eold,eci-eold=                    1                    6  -1.1288627887968554       -1.1286781394923360       -1.8464930451944639E-004 F
     orb,it,eci,eold,eci-eold=                    1                    7  -1.1289294419053197       -1.1288627887968554       -6.6653108464320709E-005 F
     orb,it,eci,eold,eci-eold=                    1                    8  -1.1289615709101841       -1.1289294419053197       -3.2129004864378530E-005 F
     orb,it,eci,eold,eci-eold=                    1                    9  -1.1289661352765714       -1.1289615709101841       -4.5643663872940721E-006 F
     orb,it,eci,eold,eci-eold=                    1                   10  -1.1289672188916797       -1.1289661352765714       -1.0836151083104539E-006 F
     orb,it,eci,eold,eci-eold=                    1                   11  -1.1289778293599737       -1.1289672188916797       -1.0610468293981157E-005 F
     orb,it,eci,eold,eci-eold=                    1                   12  -1.1289902364717646       -1.1289778293599737       -1.2407111790846415E-005 F
     orb,it,eci,eold,eci-eold=                    1                   13  -1.1290194522522292       -1.1289902364717646       -2.9215780464664221E-005 F
     orb,it,eci,eold,eci-eold=                    1                   14  -1.1298983284823392       -1.1290194522522292       -8.7887623010995952E-004 F
     orb,it,eci,eold,eci-eold=                    1                   15  -1.1313891590173735       -1.1298983284823392       -1.4908305350342932E-003 F
     orb,it,eci,eold,eci-eold=                    1                   16  -1.1315450218168677       -1.1313891590173735       -1.5586279949419968E-004 F
     orb,it,eci,eold,eci-eold=                    1                   17  -1.1321693799608008       -1.1315450218168677       -6.2435814393313471E-004 F
     orb,it,eci,eold,eci-eold=                    1                   18  -1.1325677433296031       -1.1321693799608008       -3.9836336880227918E-004 F
     orb,it,eci,eold,eci-eold=                    1                   19  -1.1326243978244033       -1.1325677433296031       -5.6654494800190136E-005 F
     orb,it,eci,eold,eci-eold=                    1                   20  -1.1334007533742707       -1.1326243978244033       -7.7635554986743571E-004 F
     orb,it,eci,eold,eci-eold=                    1                   21  -1.1334221705324108       -1.1334007533742707       -2.1417158140080161E-005 F
     orb,it,eci,eold,eci-eold=                    1                   22  -1.1336000908132537       -1.1334221705324108       -1.7792028084295808E-004 F
     orb,it,eci,eold,eci-eold=                    1                   23  -1.1338821044471969       -1.1336000908132537       -2.8201363394320111E-004 F
     orb,it,eci,eold,eci-eold=                    1                   24  -1.1339742192758158       -1.1338821044471969       -9.2114828618816702E-005 F
     orb,it,eci,eold,eci-eold=                    1                   25  -1.1339844426732484       -1.1339742192758158       -1.0223397432618242E-005 F
     orb,it,eci,eold,eci-eold=                    1                   26  -1.1340549305559211       -1.1339844426732484       -7.0487882672720659E-005 F
     orb,it,eci,eold,eci-eold=                    1                   27  -1.1341380145478976       -1.1340549305559211       -8.3083991976540261E-005 F
     orb,it,eci,eold,eci-eold=                    1                   28  -1.1341673855610530       -1.1341380145478976       -2.9371013155365944E-005 F
     orb,it,eci,eold,eci-eold=                    1                   29  -1.1341719314417043       -1.1341673855610530       -4.5458806512410632E-006 F
     orb,it,eci,eold,eci-eold=                    1                   30  -1.1341750479399315       -1.1341719314417043       -3.1164982272624542E-006 F
     orb,it,eci,eold,eci-eold=                    1                   31  -1.1341839247641010       -1.1341750479399315       -8.8768241695014183E-006 F
     orb,it,eci,eold,eci-eold=                    1                   32  -1.1341872965312876       -1.1341839247641010       -3.3717671865662879E-006 F
     orb,it,eci,eold,eci-eold=                    1                   33  -1.1341875872151881       -1.1341872965312876       -2.9068390050568382E-007 F
     orb,it,eci,eold,eci-eold=                    1                   34  -1.1341877659917963       -1.1341875872151881       -1.7877660818399477E-007 F
     orb,it,eci,eold,eci-eold=                    1                   35  -1.1341887002724733       -1.1341877659917963       -9.3428067704515172E-007 F
     orb,it,eci,eold,eci-eold=                    1                   36  -1.1341889479495699       -1.1341887002724733       -2.4767709660977744E-007 F
     orb,it,eci,eold,eci-eold=                    1                   37  -1.1341890271267612       -1.1341889479495699       -7.9177191247836731E-008 F
     orb,it,eci,eold,eci-eold=                    1                   38  -1.1341893291152803       -1.1341890271267612       -3.0198851908025404E-007 F
     orb,it,eci,eold,eci-eold=                    1                   39  -1.1341894701546655       -1.1341893291152803       -1.4103938528187143E-007 F
     orb,it,eci,eold,eci-eold=                    1                   40  -1.1341895334681715       -1.1341894701546655       -6.3313505993534136E-008 F
     orb,it,eci,eold,eci-eold=                    1                   41  -1.1341895665927388       -1.1341895334681715       -3.3124567311304531E-008 F
     orb,it,eci,eold,eci-eold=                    1                   42  -1.1341895826002222       -1.1341895665927388       -1.6007483338853490E-008 F
     orb,it,eci,eold,eci-eold=                    1                   43  -1.1341895948730634       -1.1341895826002222       -1.2272841187765948E-008 F
     orb,it,eci,eold,eci-eold=                    1                   44  -1.1341896403086889       -1.1341895948730634       -4.5435625484202546E-008 F
     orb,it,eci,eold,eci-eold=                    1                   45  -1.1341896627615546       -1.1341896403086889       -2.2452865788835652E-008 F
     orb,it,eci,eold,eci-eold=                    1                   46  -1.1341896808671075       -1.1341896627615546       -1.8105552834768446E-008 F
     orb,it,eci,eold,eci-eold=                    1                   47  -1.1341896856563849       -1.1341896808671075       -4.7892774190927412E-009 F
     orb,it,eci,eold,eci-eold=                    1                   48  -1.1341896876486472       -1.1341896856563849       -1.9922623550883145E-009 F
     orb,it,eci,eold,eci-eold=                    1                   49  -1.1341896903246691       -1.1341896876486472       -2.6760218485577525E-009 F
     orb,it,eci,eold,eci-eold=                    1                   50  -1.1341896955000810       -1.1341896903246691       -5.1754118768343460E-009 F
     orb,it,eci,eold,eci-eold=                    1                   51  -1.1341896955000810       -1.1341896955000810        0.0000000000000000      F
     orbital   1 current e=  0.810525E+00 error=0.450E+00 (eci= -0.113418970E+01 error=0.000E+00) iterations  51(   0 preconditioned, Ep,Sp= 20.0  200.0)
     orb,it,eci,eold,eci-eold=                    1                    1  -1.1341897041690436       -1.1341896952422552       -8.9267884195720626E-009 F
     orb,it,eci,eold,eci-eold=                    1                    2  -1.1341897060178647       -1.1341897041690436       -1.8488210962175344E-009 F
     orb,it,eci,eold,eci-eold=                    1                    3  -1.1341897061844957       -1.1341897060178647       -1.6663093127533557E-010 F
     orbital   1 current e=  0.810551E+00 error=0.262E-04 (eci= -0.113418971E+01 error=0.167E-09) iterations   3(   0 preconditioned, Ep,Sp= 20.0  200.0)
     orb,it,eci,eold,eci-eold=                    1                    1  -1.1341897063107900       -1.1341897061844957       -1.2629430834465438E-010 F
     orbital   1 current e=  0.810547E+00 error=0.463E-05 (eci= -0.113418971E+01 error=0.126E-09) iterations   1(   0 preconditioned, Ep,Sp= 20.0  200.0)
     orb,it,eci,eold,eci-eold=                    2                    1  -1.1205652040723839       -1.1204736468782617       -9.1557194122238172E-005 F
     orb,it,eci,eold,eci-eold=                    2                    2  -1.1211236258338484       -1.1205652040723839       -5.5842176146447819E-004 F
     orb,it,eci,eold,eci-eold=                    2                    3  -1.1221901222676163       -1.1211236258338484       -1.0664964337678828E-003 F
     orb,it,eci,eold,eci-eold=                    2                    4  -1.1261163772360274       -1.1221901222676163       -3.9262549684111470E-003 F
     orb,it,eci,eold,eci-eold=                    2                    5  -1.1276517771769579       -1.1261163772360274       -1.5353999409304375E-003 F
     orb,it,eci,eold,eci-eold=                    2                    6  -1.1282416125209049       -1.1276517771769579       -5.8983534394707604E-004 F
     orb,it,eci,eold,eci-eold=                    2                    7  -1.1286366936319534       -1.1282416125209049       -3.9508111104846755E-004 F
     orb,it,eci,eold,eci-eold=                    2                    8  -1.1287661285471886       -1.1286366936319534       -1.2943491523520478E-004 F
     orb,it,eci,eold,eci-eold=                    2                    9  -1.1289203617258106       -1.1287661285471886       -1.5423317862195418E-004 F
     orb,it,eci,eold,eci-eold=                    2                   10  -1.1289520323337956       -1.1289203617258106       -3.1670607985034849E-005 F
     orb,it,eci,eold,eci-eold=                    2                   11  -1.1289636192021029       -1.1289520323337956       -1.1586868307267295E-005 F
     orb,it,eci,eold,eci-eold=                    2                   12  -1.1289643365665296       -1.1289636192021029       -7.1736442674996681E-007 F
     orb,it,eci,eold,eci-eold=                    2                   13  -1.1289644792093609       -1.1289643365665296       -1.4264283132447986E-007 F
     orb,it,eci,eold,eci-eold=                    2                   14  -1.1289660234683483       -1.1289644792093609       -1.5442589873515544E-006 F
     orb,it,eci,eold,eci-eold=                    2                   15  -1.1289668303987919       -1.1289660234683483       -8.0693044357538213E-007 F
     orb,it,eci,eold,eci-eold=                    2                   16  -1.1289681683636721       -1.1289668303987919       -1.3379648802214206E-006 F
     orb,it,eci,eold,eci-eold=                    2                   17  -1.1289693096570996       -1.1289681683636721       -1.1412934275423225E-006 F
     orb,it,eci,eold,eci-eold=                    2                   18  -1.1289699265222601       -1.1289693096570996       -6.1686516050762918E-007 F
     orb,it,eci,eold,eci-eold=                    2                   19  -1.1289703494599390       -1.1289699265222601       -4.2293767887890965E-007 F
     orb,it,eci,eold,eci-eold=                    2                   20  -1.1289705273378530       -1.1289703494599390       -1.7787791395385000E-007 F
     orb,it,eci,eold,eci-eold=                    2                   21  -1.1289706413721119       -1.1289705273378530       -1.1403425892453356E-007 F
     orb,it,eci,eold,eci-eold=                    2                   22  -1.1289706671651620       -1.1289706413721119       -2.5793050140165974E-008 F
     orb,it,eci,eold,eci-eold=                    2                   23  -1.1289707002119287       -1.1289706671651620       -3.3046766656497084E-008 F
     orb,it,eci,eold,eci-eold=                    2                   24  -1.1289707269433742       -1.1289707002119287       -2.6731445501582130E-008 F
     orb,it,eci,eold,eci-eold=                    2                   25  -1.1289707437654117       -1.1289707269433742       -1.6822037540720203E-008 F
     orb,it,eci,eold,eci-eold=                    2                   26  -1.1289708040877915       -1.1289707437654117       -6.0322379757948852E-008 F
     orb,it,eci,eold,eci-eold=                    2                   27  -1.1289708193870394       -1.1289708040877915       -1.5299247868583166E-008 F
     orb,it,eci,eold,eci-eold=                    2                   28  -1.1289708202242021       -1.1289708193870394       -8.3716278354017959E-010 F
     orbital   2 current e=  0.102400E+01 error=0.319E+00 (eci= -0.112897082E+01 error=0.837E-09) iterations  28(   0 preconditioned, Ep,Sp= 20.0  200.0)
     orb,it,eci,eold,eci-eold=                    2                    1  -1.1289708708479558       -1.1289708202242021       -5.0623753633516344E-008 F
     orb,it,eci,eold,eci-eold=                    2                    2  -1.1289708892487618       -1.1289708708479558       -1.8400805990026470E-008 F
     orb,it,eci,eold,eci-eold=                    2                    3  -1.1289708946748618       -1.1289708892487618       -5.4261000137501014E-009 F
     orb,it,eci,eold,eci-eold=                    2                    4  -1.1289708949136148       -1.1289708946748618       -2.3875301735643006E-010 F
     orbital   2 current e=  0.102549E+01 error=0.149E-02 (eci= -0.112897089E+01 error=0.239E-09) iterations   4(   0 preconditioned, Ep,Sp= 20.0  200.0)
     orb,it,eci,eold,eci-eold=                    2                    1  -1.1289708955057134       -1.1289708949136148       -5.9209859237796536E-010 F
     orbital   2 current e=  0.102545E+01 error=0.414E-04 (eci= -0.112897090E+01 error=0.592E-09) iterations   1(   0 preconditioned, Ep,Sp= 20.0  200.0)
     orb,it,eci,eold,eci-eold=                    3                    1  -1.1205237732195441       -1.1204686559576251       -5.5117261918979921E-005 F
     orb,it,eci,eold,eci-eold=                    3                    2  -1.1206146852293857       -1.1205237732195441       -9.0912009841570551E-005 F
     orb,it,eci,eold,eci-eold=                    3                    3  -1.1210617038470414       -1.1206146852293857       -4.4701861765572559E-004 F
     orb,it,eci,eold,eci-eold=                    3                    4  -1.1216299097005236       -1.1210617038470414       -5.6820585348216213E-004 F
     orb,it,eci,eold,eci-eold=                    3                    5  -1.1222118940743369       -1.1216299097005236       -5.8198437381329349E-004 F
     orb,it,eci,eold,eci-eold=                    3                    6  -1.1225966838474197       -1.1222118940743369       -3.8478977308287199E-004 F
     orb,it,eci,eold,eci-eold=                    3                    7  -1.1225966838474197       -1.1225966838474197        0.0000000000000000      F
     orbital   3 current e=  0.147453E+01 error=0.679E+00 (eci= -0.112259668E+01 error=0.000E+00) iterations   7(   0 preconditioned, Ep,Sp= 20.0  200.0)
     orb,it,eci,eold,eci-eold=                    3                    1  -1.1225118962601930       -1.1224879744845675       -2.3921775625490582E-005 F
     orb,it,eci,eold,eci-eold=                    3                    2  -1.1243016781896744       -1.1225118962601930       -1.7897819294814266E-003 F
     orb,it,eci,eold,eci-eold=                    3                    3  -1.1243016781896744       -1.1243016781896744        0.0000000000000000      F
     orbital   3 current e=  0.182174E+01 error=0.347E+00 (eci= -0.112430168E+01 error=0.000E+00) iterations   3(   0 preconditioned, Ep,Sp= 20.0  200.0)
     orb,it,eci,eold,eci-eold=                    3                    1  -1.1263263068613865       -1.1242958541671848       -2.0304526942016565E-003 F
     orb,it,eci,eold,eci-eold=                    3                    2  -1.1268039966819592       -1.1263263068613865       -4.7768982057272424E-004 F
     orb,it,eci,eold,eci-eold=                    3                    3  -1.1269500409610014       -1.1268039966819592       -1.4604427904219008E-004 F
     orb,it,eci,eold,eci-eold=                    3                    4  -1.1270044159009316       -1.1269500409610014       -5.4374939930212918E-005 F
     orb,it,eci,eold,eci-eold=                    3                    5  -1.1270134904059548       -1.1270044159009316       -9.0745050231877400E-006 F
     orb,it,eci,eold,eci-eold=                    3                    6  -1.1270200264123684       -1.1270134904059548       -6.5360064136488205E-006 F
     orb,it,eci,eold,eci-eold=                    3                    7  -1.1270216417327690       -1.1270200264123684       -1.6153204005497912E-006 F
     orb,it,eci,eold,eci-eold=                    3                    8  -1.1270221939756488       -1.1270216417327690       -5.5224287986987974E-007 F
     orb,it,eci,eold,eci-eold=                    3                    9  -1.1270272011530651       -1.1270221939756488       -5.0071774162496752E-006 F
     orb,it,eci,eold,eci-eold=                    3                   10  -1.1270290865675754       -1.1270272011530651       -1.8854145102942255E-006 F
     orb,it,eci,eold,eci-eold=                    3                   11  -1.1270293521422683       -1.1270290865675754       -2.6557469290366953E-007 F
     orb,it,eci,eold,eci-eold=                    3                   12  -1.1270294449934906       -1.1270293521422683       -9.2851222266432387E-008 F
     orb,it,eci,eold,eci-eold=                    3                   13  -1.1270300991316122       -1.1270294449934906       -6.5413812166958962E-007 F
     orb,it,eci,eold,eci-eold=                    3                   14  -1.1270301535015801       -1.1270300991316122       -5.4369967861234159E-008 F
     orb,it,eci,eold,eci-eold=                    3                   15  -1.1270302699747867       -1.1270301535015801       -1.1647320663499272E-007 F
     orb,it,eci,eold,eci-eold=                    3                   16  -1.1270306503455891       -1.1270302699747867       -3.8037080241082322E-007 F
     orb,it,eci,eold,eci-eold=                    3                   17  -1.1270308806700835       -1.1270306503455891       -2.3032449436577451E-007 F
     orb,it,eci,eold,eci-eold=                    3                   18  -1.1270310287160916       -1.1270308806700835       -1.4804600811935131E-007 F
     orb,it,eci,eold,eci-eold=                    3                   19  -1.1270310809914323       -1.1270310287160916       -5.2275340722829355E-008 F
     orb,it,eci,eold,eci-eold=                    3                   20  -1.1270311761407890       -1.1270310809914323       -9.5149356615920055E-008 F
     orb,it,eci,eold,eci-eold=                    3                   21  -1.1270312322548153       -1.1270311761407890       -5.6114026314446619E-008 F
     orb,it,eci,eold,eci-eold=                    3                   22  -1.1270312814125143       -1.1270312322548153       -4.9157699022472912E-008 F
     orb,it,eci,eold,eci-eold=                    3                   23  -1.1270313002127557       -1.1270312814125143       -1.8800241363692294E-008 F
     orb,it,eci,eold,eci-eold=                    3                   24  -1.1270313161209069       -1.1270313002127557       -1.5908151240751067E-008 F
     orb,it,eci,eold,eci-eold=                    3                   25  -1.1270313255823274       -1.1270313161209069       -9.4614205359278003E-009 F
     orb,it,eci,eold,eci-eold=                    3                   26  -1.1270313428854821       -1.1270313255823274       -1.7303154686842959E-008 F
     orb,it,eci,eold,eci-eold=                    3                   27  -1.1270313528450338       -1.1270313428854821       -9.9595516278583318E-009 F
     orb,it,eci,eold,eci-eold=                    3                   28  -1.1270313583746792       -1.1270313528450338       -5.5296454082309765E-009 F
     orb,it,eci,eold,eci-eold=                    3                   29  -1.1270313603259670       -1.1270313583746792       -1.9512877980076837E-009 F
     orb,it,eci,eold,eci-eold=                    3                   30  -1.1270313656637205       -1.1270313603259670       -5.3377535724763447E-009 F
     orb,it,eci,eold,eci-eold=                    3                   31  -1.1270313684362281       -1.1270313656637205       -2.7725075568696411E-009 F
     orb,it,eci,eold,eci-eold=                    3                   32  -1.1270313696223282       -1.1270313684362281       -1.1861001070201382E-009 F
     orb,it,eci,eold,eci-eold=                    3                   33  -1.1270313700126529       -1.1270313696223282       -3.9032466148114509E-010 F
     orbital   3 current e=  0.113806E+01 error=0.684E+00 (eci= -0.112703137E+01 error=0.390E-09) iterations  33(   0 preconditioned, Ep,Sp= 20.0  200.0)
     orb,it,eci,eold,eci-eold=                    4                    1  -1.1205427332634967       -1.1204684305882122       -7.4302675284521058E-005 F
     orb,it,eci,eold,eci-eold=                    4                    2  -1.1206218214431354       -1.1205427332634967       -7.9088179638642231E-005 F
     orb,it,eci,eold,eci-eold=                    4                    3  -1.1208317224060487       -1.1206218214431354       -2.0990096291328975E-004 F
     orb,it,eci,eold,eci-eold=                    4                    4  -1.1208582948559522       -1.1208317224060487       -2.6572449903561335E-005 F
     orb,it,eci,eold,eci-eold=                    4                    5  -1.1209152964587261       -1.1208582948559522       -5.7001602773887328E-005 F
     orb,it,eci,eold,eci-eold=                    4                    6  -1.1217424488432957       -1.1209152964587261       -8.2715238456954054E-004 F
     orb,it,eci,eold,eci-eold=                    4                    7  -1.1225481003074609       -1.1217424488432957       -8.0565146416522460E-004 F
     orb,it,eci,eold,eci-eold=                    4                    8  -1.1227144028535896       -1.1225481003074609       -1.6630254612870488E-004 F
     orb,it,eci,eold,eci-eold=                    4                    9  -1.1227278851902942       -1.1227144028535896       -1.3482336704617737E-005 F
     orb,it,eci,eold,eci-eold=                    4                   10  -1.1253797141357005       -1.1227278851902942       -2.6518289454062760E-003 F
     orb,it,eci,eold,eci-eold=                    4                   11  -1.1258607146515551       -1.1253797141357005       -4.8100051585464598E-004 F
     orb,it,eci,eold,eci-eold=                    4                   12  -1.1267274347959324       -1.1258607146515551       -8.6672014437727540E-004 F
     orb,it,eci,eold,eci-eold=                    4                   13  -1.1269306963043808       -1.1267274347959324       -2.0326150844840463E-004 F
     orb,it,eci,eold,eci-eold=                    4                   14  -1.1269844890001375       -1.1269306963043808       -5.3792695756671449E-005 F
     orb,it,eci,eold,eci-eold=                    4                   15  -1.1270214037610744       -1.1269844890001375       -3.6914760936923585E-005 F
     orb,it,eci,eold,eci-eold=                    4                   16  -1.1270282395741031       -1.1270214037610744       -6.8358130287382579E-006 F
     orb,it,eci,eold,eci-eold=                    4                   17  -1.1270298784002000       -1.1270282395741031       -1.6388260968280832E-006 F
     orb,it,eci,eold,eci-eold=                    4                   18  -1.1270309498393642       -1.1270298784002000       -1.0714391642796528E-006 F
     orb,it,eci,eold,eci-eold=                    4                   19  -1.1270312705310512       -1.1270309498393642       -3.2069168698356521E-007 F
     orb,it,eci,eold,eci-eold=                    4                   20  -1.1270313341544729       -1.1270312705310512       -6.3623421642233779E-008 F
     orb,it,eci,eold,eci-eold=                    4                   21  -1.1270313585855958       -1.1270313341544729       -2.4431122902512925E-008 F
     orb,it,eci,eold,eci-eold=                    4                   22  -1.1270313696271947       -1.1270313585855958       -1.1041598968475341E-008 F
     orb,it,eci,eold,eci-eold=                    4                   23  -1.1270313725797261       -1.1270313696271947       -2.9525313305356349E-009 F
     orb,it,eci,eold,eci-eold=                    4                   24  -1.1270313732774360       -1.1270313725797261       -6.9770988986306293E-010 F
     orbital   4 current e=  0.113773E+01 error=0.200E+00 (eci= -0.112703137E+01 error=0.698E-09) iterations  24(   0 preconditioned, Ep,Sp= 20.0  200.0)
     orb,it,eci,eold,eci-eold=                    4                    1  -1.1270313734077972       -1.1270313732774360       -1.3036127732846126E-010 F
     orbital   4 current e=  0.113774E+01 error=0.195E-04 (eci= -0.112703137E+01 error=0.130E-09) iterations   1(   0 preconditioned, Ep,Sp= 20.0  200.0)
     orb,it,eci,eold,eci-eold=                    4                    1  -1.1270313734077972       -1.1270313734077972        0.0000000000000000      F
     orbital   4 current e=  0.113776E+01 error=0.125E-04 (eci= -0.112703137E+01 error=0.000E+00) iterations   1(   0 preconditioned, Ep,Sp= 20.0  200.0)
     orb,it,eci,eold,eci-eold=                    5                    1  -1.1205084338999662       -1.1204686344857124       -3.9799414253804954E-005 F
     orb,it,eci,eold,eci-eold=                    5                    2  -1.1205638923998331       -1.1205084338999662       -5.5458499866878341E-005 F
     orb,it,eci,eold,eci-eold=                    5                    3  -1.1209456150833621       -1.1205638923998331       -3.8172268352898442E-004 F
     orb,it,eci,eold,eci-eold=                    5                    4  -1.1210647482872329       -1.1209456150833621       -1.1913320387080262E-004 F
     orb,it,eci,eold,eci-eold=                    5                    5  -1.1211373318089128       -1.1210647482872329       -7.2583521679936425E-005 F
     orb,it,eci,eold,eci-eold=                    5                    6  -1.1211373503509208       -1.1211373318089128       -1.8542007929056581E-008 F
     orb,it,eci,eold,eci-eold=                    5                    7  -1.1211971089184665       -1.1211373503509208       -5.9758567545697971E-005 F
     orb,it,eci,eold,eci-eold=                    5                    8  -1.1212187595837080       -1.1211971089184665       -2.1650665241512712E-005 F
     orb,it,eci,eold,eci-eold=                    5                    9  -1.1212189753609725       -1.1212187595837080       -2.1577726450061618E-007 F
     orb,it,eci,eold,eci-eold=                    5                   10  -1.1212271132089540       -1.1212189753609725       -8.1378479814819826E-006 F
     orb,it,eci,eold,eci-eold=                    5                   11  -1.1212320834471503       -1.1212271132089540       -4.9702381963445674E-006 F
     orb,it,eci,eold,eci-eold=                    5                   12  -1.1212344866528126       -1.1212320834471503       -2.4032056622491638E-006 F
     orb,it,eci,eold,eci-eold=                    5                   13  -1.1212349996144522       -1.1212344866528126       -5.1296163960934393E-007 F
     orb,it,eci,eold,eci-eold=                    5                   14  -1.1212351095587025       -1.1212349996144522       -1.0994425037047506E-007 F
     orb,it,eci,eold,eci-eold=                    5                   15  -1.1212374240826455       -1.1212351095587025       -2.3145239429478437E-006 F
     orb,it,eci,eold,eci-eold=                    5                   16  -1.1212383423591501       -1.1212374240826455       -9.1827650461340227E-007 F
     orb,it,eci,eold,eci-eold=                    5                   17  -1.1212388734416066       -1.1212383423591501       -5.3108245645638874E-007 F
     orb,it,eci,eold,eci-eold=                    5                   18  -1.1212390630034148       -1.1212388734416066       -1.8956180825036029E-007 F
     orb,it,eci,eold,eci-eold=                    5                   19  -1.1212392586790119       -1.1212390630034148       -1.9567559705890858E-007 F
     orb,it,eci,eold,eci-eold=                    5                   20  -1.1212408665196953       -1.1212392586790119       -1.6078406834818537E-006 F
     orb,it,eci,eold,eci-eold=                    5                   21  -1.1212452188378801       -1.1212408665196953       -4.3523181847415771E-006 F
     orb,it,eci,eold,eci-eold=                    5                   22  -1.1212706572681741       -1.1212452188378801       -2.5438430294011383E-005 F
     orb,it,eci,eold,eci-eold=                    5                   23  -1.1212920095912173       -1.1212706572681741       -2.1352323043233312E-005 F
     orb,it,eci,eold,eci-eold=                    5                   24  -1.1213071226870048       -1.1212920095912173       -1.5113095787500086E-005 F
     orb,it,eci,eold,eci-eold=                    5                   25  -1.1213228764438159       -1.1213071226870048       -1.5753756811065500E-005 F
     orb,it,eci,eold,eci-eold=                    5                   26  -1.1213320124049508       -1.1213228764438159       -9.1359611349428604E-006 F
     orb,it,eci,eold,eci-eold=                    5                   27  -1.1213320387527606       -1.1213320124049508       -2.6347809711779746E-008 F
     orb,it,eci,eold,eci-eold=                    5                   28  -1.1213404943828558       -1.1213320387527606       -8.4556300952165486E-006 F
     orb,it,eci,eold,eci-eold=                    5                   29  -1.1213442739446025       -1.1213404943828558       -3.7795617466862552E-006 F
     orb,it,eci,eold,eci-eold=                    5                   30  -1.1213463549810361       -1.1213442739446025       -2.0810364336210085E-006 F
     orb,it,eci,eold,eci-eold=                    5                   31  -1.1213465005468590       -1.1213463549810361       -1.4556582295099929E-007 F
     orb,it,eci,eold,eci-eold=                    5                   32  -1.1213468300653318       -1.1213465005468590       -3.2951847273032797E-007 F
     orb,it,eci,eold,eci-eold=                    5                   33  -1.1213499942627363       -1.1213468300653318       -3.1641974045371057E-006 F
     orb,it,eci,eold,eci-eold=                    5                   34  -1.1213500382942214       -1.1213499942627363       -4.4031485124662595E-008 F
     orb,it,eci,eold,eci-eold=                    5                   35  -1.1213500553804197       -1.1213500382942214       -1.7086198234039784E-008 F
     orb,it,eci,eold,eci-eold=                    5                   36  -1.1213502741164063       -1.1213500553804197       -2.1873598665678173E-007 F
     orb,it,eci,eold,eci-eold=                    5                   37  -1.1213502817267156       -1.1213502741164063       -7.6103092716550691E-009 F
     orb,it,eci,eold,eci-eold=                    5                   38  -1.1213503245771352       -1.1213502817267156       -4.2850419657014527E-008 F
     orb,it,eci,eold,eci-eold=                    5                   39  -1.1213503526696058       -1.1213503245771352       -2.8092470572005368E-008 F
     orb,it,eci,eold,eci-eold=                    5                   40  -1.1213503643994758       -1.1213503526696058       -1.1729869964227646E-008 F
     orb,it,eci,eold,eci-eold=                    5                   41  -1.1213504190655097       -1.1213503643994758       -5.4666033921790813E-008 F
     orb,it,eci,eold,eci-eold=                    5                   42  -1.1213504480632881       -1.1213504190655097       -2.8997778400707830E-008 F
     orb,it,eci,eold,eci-eold=                    5                   43  -1.1213504656268092       -1.1213504480632881       -1.7563521081953581E-008 F
     orb,it,eci,eold,eci-eold=                    5                   44  -1.1213504785875454       -1.1213504656268092       -1.2960736262002115E-008 F
     orb,it,eci,eold,eci-eold=                    5                   45  -1.1213504813802528       -1.1213504785875454       -2.7927073986688811E-009 F
     orb,it,eci,eold,eci-eold=                    5                   46  -1.1213504867198518       -1.1213504813802528       -5.3395989851878767E-009 F
     orb,it,eci,eold,eci-eold=                    5                   47  -1.1213504920948429       -1.1213504867198518       -5.3749911188560873E-009 F
     orb,it,eci,eold,eci-eold=                    5                   48  -1.1213505036821856       -1.1213504920948429       -1.1587342640950737E-008 F
     orb,it,eci,eold,eci-eold=                    5                   49  -1.1213505097127441       -1.1213505036821856       -6.0305584970166137E-009 F
     orb,it,eci,eold,eci-eold=                    5                   50  -1.1213505160867614       -1.1213505097127441       -6.3740173139592571E-009 F
     orb,it,eci,eold,eci-eold=                    5                   51  -1.1213505201952276       -1.1213505160867614       -4.1084662338874978E-009 F
     orb,it,eci,eold,eci-eold=                    5                   52  -1.1213505218907878       -1.1213505201952276       -1.6955601367385498E-009 F
     orb,it,eci,eold,eci-eold=                    5                   53  -1.1213505235964700       -1.1213505218907878       -1.7056822620986622E-009 F
     orb,it,eci,eold,eci-eold=                    5                   54  -1.1213505252888210       -1.1213505235964700       -1.6923509260635683E-009 F
     orb,it,eci,eold,eci-eold=                    5                   55  -1.1213505294225461       -1.1213505252888210       -4.1337251399653496E-009 F
     orb,it,eci,eold,eci-eold=                    5                   56  -1.1213505307913811       -1.1213505294225461       -1.3688350453122666E-009 F
     orb,it,eci,eold,eci-eold=                    5                   57  -1.1213505317697223       -1.1213505307913811       -9.7834118584216867E-010 F
     orbital   5 current e=  0.262975E+01 error=0.170E+01 (eci= -0.112135053E+01 error=0.978E-09) iterations  57(   0 preconditioned, Ep,Sp= 20.0  200.0)
     orb,it,eci,eold,eci-eold=                    5                    1  -1.1213505397546086       -1.1213505317697223       -7.9848863077103260E-009 F
     orb,it,eci,eold,eci-eold=                    5                    2  -1.1213505403425306       -1.1213505397546086       -5.8792193335932552E-010 F
     orbital   5 current e=  0.262506E+01 error=0.470E-02 (eci= -0.112135054E+01 error=0.588E-09) iterations   2(   0 preconditioned, Ep,Sp= 20.0  200.0)
     orb,it,eci,eold,eci-eold=                    5                    1  -1.1213505450085157       -1.1213505403425306       -4.6659851538066732E-009 F
     orb,it,eci,eold,eci-eold=                    5                    2  -1.1213505450085157       -1.1213505450085157        0.0000000000000000      F
     orbital   5 current e=  0.262662E+01 error=0.157E-02 (eci= -0.112135055E+01 error=0.000E+00) iterations   2(   0 preconditioned, Ep,Sp= 20.0  200.0)
     orb,it,eci,eold,eci-eold=                    6                    1  -1.1205016228275677       -1.1204685668248568       -3.3056002710862842E-005 F
     orb,it,eci,eold,eci-eold=                    6                    2  -1.1205430805386853       -1.1205016228275677       -4.1457711117631746E-005 F
     orb,it,eci,eold,eci-eold=                    6                    3  -1.1207312117245816       -1.1205430805386853       -1.8813118589622313E-004 F
     orb,it,eci,eold,eci-eold=                    6                    4  -1.1208806023341944       -1.1207312117245816       -1.4939060961283168E-004 F
     orb,it,eci,eold,eci-eold=                    6                    5  -1.1208968524608980       -1.1208806023341944       -1.6250126703587497E-005 F
     orb,it,eci,eold,eci-eold=                    6                    6  -1.1209013114792747       -1.1208968524608980       -4.4590183767567737E-006 F
     orb,it,eci,eold,eci-eold=                    6                    7  -1.1209231059935312       -1.1209013114792747       -2.1794514256434638E-005 F
     orb,it,eci,eold,eci-eold=                    6                    8  -1.1209370331331265       -1.1209231059935312       -1.3927139595359961E-005 F
     orb,it,eci,eold,eci-eold=                    6                    9  -1.1209419059367507       -1.1209370331331265       -4.8728036241563188E-006 F
     orb,it,eci,eold,eci-eold=                    6                   10  -1.1209422204405470       -1.1209419059367507       -3.1450379633923831E-007 F
     orb,it,eci,eold,eci-eold=                    6                   11  -1.1209564791356612       -1.1209422204405470       -1.4258695114177655E-005 F
     orb,it,eci,eold,eci-eold=                    6                   12  -1.1209891362960933       -1.1209564791356612       -3.2657160432103538E-005 F
     orb,it,eci,eold,eci-eold=                    6                   13  -1.1210705372369674       -1.1209891362960933       -8.1400940874054584E-005 F
     orb,it,eci,eold,eci-eold=                    6                   14  -1.1211590571567296       -1.1210705372369674       -8.8519919762219956E-005 F
     orb,it,eci,eold,eci-eold=                    6                   15  -1.1211815619258116       -1.1211590571567296       -2.2504769082054565E-005 F
     orb,it,eci,eold,eci-eold=                    6                   16  -1.1212221727196277       -1.1211815619258116       -4.0610793816009405E-005 F
     orb,it,eci,eold,eci-eold=                    6                   17  -1.1212258931201715       -1.1212221727196277       -3.7204005438606913E-006 F
     orb,it,eci,eold,eci-eold=                    6                   18  -1.1212281460049078       -1.1212258931201715       -2.2528847363201265E-006 F
     orb,it,eci,eold,eci-eold=                    6                   19  -1.1212288201700902       -1.1212281460049078       -6.7416518234608702E-007 F
     orb,it,eci,eold,eci-eold=                    6                   20  -1.1212298551385631       -1.1212288201700902       -1.0349684729238362E-006 F
     orb,it,eci,eold,eci-eold=                    6                   21  -1.1212321979265742       -1.1212298551385631       -2.3427880111448474E-006 F
     orb,it,eci,eold,eci-eold=                    6                   22  -1.1212330237024408       -1.1212321979265742       -8.2577586657528457E-007 F
     orb,it,eci,eold,eci-eold=                    6                   23  -1.1212350580480555       -1.1212330237024408       -2.0343456146321159E-006 F
     orb,it,eci,eold,eci-eold=                    6                   24  -1.1212377715340278       -1.1212350580480555       -2.7134859723609850E-006 F
     orb,it,eci,eold,eci-eold=                    6                   25  -1.1212380692396535       -1.1212377715340278       -2.9770562570696768E-007 F
     orb,it,eci,eold,eci-eold=                    6                   26  -1.1212382697232752       -1.1212380692396535       -2.0048362170399514E-007 F
     orb,it,eci,eold,eci-eold=                    6                   27  -1.1212384939655748       -1.1212382697232752       -2.2424229961792719E-007 F
     orb,it,eci,eold,eci-eold=                    6                   28  -1.1212385758823740       -1.1212384939655748       -8.1916799121728445E-008 F
     orb,it,eci,eold,eci-eold=                    6                   29  -1.1212387101063936       -1.1212385758823740       -1.3422401967666531E-007 F
     orb,it,eci,eold,eci-eold=                    6                   30  -1.1212387759159008       -1.1212387101063936       -6.5809507177050364E-008 F
     orb,it,eci,eold,eci-eold=                    6                   31  -1.1212387829953552       -1.1212387759159008       -7.0794543560737111E-009 F
     orb,it,eci,eold,eci-eold=                    6                   32  -1.1212387877751453       -1.1212387829953552       -4.7797901192581094E-009 F
     orb,it,eci,eold,eci-eold=                    6                   33  -1.1212388362547170       -1.1212387877751453       -4.8479571690407397E-008 F
     orb,it,eci,eold,eci-eold=                    6                   34  -1.1212388593827096       -1.1212388362547170       -2.3127992632154815E-008 F
     orb,it,eci,eold,eci-eold=                    6                   35  -1.1212388593827096       -1.1212388593827096        0.0000000000000000      F
     orbital   6 current e=  0.275186E+01 error=0.183E+01 (eci= -0.112123886E+01 error=0.000E+00) iterations  35(   0 preconditioned, Ep,Sp= 20.0  200.0)
     orb,it,eci,eold,eci-eold=                    6                    1  -1.1212388756960605       -1.1212388587628124       -1.6933248137007695E-008 F
     orb,it,eci,eold,eci-eold=                    6                    2  -1.1212388756960605       -1.1212388756960605        0.0000000000000000      F
     orbital   6 current e=  0.275217E+01 error=0.309E-03 (eci= -0.112123888E+01 error=0.000E+00) iterations   2(   0 preconditioned, Ep,Sp= 20.0  200.0)
     orb,it,eci,eold,eci-eold=                    6                    1  -1.1212388765723798       -1.1212388754191316       -1.1532481636322700E-009 F
     orb,it,eci,eold,eci-eold=                    6                    2  -1.1212388772506896       -1.1212388765723798       -6.7830985273076294E-010 F
     orbital   6 current e=  0.275212E+01 error=0.467E-04 (eci= -0.112123888E+01 error=0.678E-09) iterations   2(   0 preconditioned, Ep,Sp= 20.0  200.0)
     orb,it,eci,eold,eci-eold=                    7                    1  -1.1205099654830071       -1.1204685186045473       -4.1446878459749925E-005 F
     orb,it,eci,eold,eci-eold=                    7                    2  -1.1205707955437385       -1.1205099654830071       -6.0830060731431601E-005 F
     orb,it,eci,eold,eci-eold=                    7                    3  -1.1207237399372674       -1.1205707955437385       -1.5294439352886435E-004 F
     orb,it,eci,eold,eci-eold=                    7                    4  -1.1208808368367105       -1.1207237399372674       -1.5709689944309879E-004 F
     orb,it,eci,eold,eci-eold=                    7                    5  -1.1208975437079811       -1.1208808368367105       -1.6706871270644186E-005 F
     orb,it,eci,eold,eci-eold=                    7                    6  -1.1209102957846893       -1.1208975437079811       -1.2752076708144600E-005 F
     orb,it,eci,eold,eci-eold=                    7                    7  -1.1209381253127151       -1.1209102957846893       -2.7829528025824501E-005 F
     orb,it,eci,eold,eci-eold=                    7                    8  -1.1209439825046148       -1.1209381253127151       -5.8571918997163408E-006 F
     orb,it,eci,eold,eci-eold=                    7                    9  -1.1209483078694928       -1.1209439825046148       -4.3253648780439136E-006 F
     orb,it,eci,eold,eci-eold=                    7                   10  -1.1209545238901266       -1.1209483078694928       -6.2160206337757984E-006 F
     orb,it,eci,eold,eci-eold=                    7                   11  -1.1209563420832456       -1.1209545238901266       -1.8181931189520384E-006 F
     orb,it,eci,eold,eci-eold=                    7                   12  -1.1209584412584912       -1.1209563420832456       -2.0991752456289703E-006 F
     orb,it,eci,eold,eci-eold=                    7                   13  -1.1209649820285505       -1.1209584412584912       -6.5407700593489437E-006 F
     orb,it,eci,eold,eci-eold=                    7                   14  -1.1209685706024159       -1.1209649820285505       -3.5885738653984589E-006 F
     orb,it,eci,eold,eci-eold=                    7                   15  -1.1209786491733793       -1.1209685706024159       -1.0078570963356626E-005 F
     orb,it,eci,eold,eci-eold=                    7                   16  -1.1210307016442036       -1.1209786491733793       -5.2052470824293096E-005 F
     orb,it,eci,eold,eci-eold=                    7                   17  -1.1210555543276519       -1.1210307016442036       -2.4852683448317592E-005 F
     orb,it,eci,eold,eci-eold=                    7                   18  -1.1211450630855051       -1.1210555543276519       -8.9508757853185017E-005 F
     orb,it,eci,eold,eci-eold=                    7                   19  -1.1211648040448534       -1.1211450630855051       -1.9740959348313325E-005 F
     orb,it,eci,eold,eci-eold=                    7                   20  -1.1211681345858409       -1.1211648040448534       -3.3305409874451186E-006 F
     orb,it,eci,eold,eci-eold=                    7                   21  -1.1211827441372100       -1.1211681345858409       -1.4609551369115792E-005 F
     orb,it,eci,eold,eci-eold=                    7                   22  -1.1211897742314854       -1.1211827441372100       -7.0300942753842577E-006 F
     orb,it,eci,eold,eci-eold=                    7                   23  -1.1211921363385644       -1.1211897742314854       -2.3621070790458276E-006 F
     orb,it,eci,eold,eci-eold=                    7                   24  -1.1211928490242782       -1.1211921363385644       -7.1268571377736123E-007 F
     orb,it,eci,eold,eci-eold=                    7                   25  -1.1211934571776769       -1.1211928490242782       -6.0815339875119889E-007 F
     orb,it,eci,eold,eci-eold=                    7                   26  -1.1211934758116031       -1.1211934571776769       -1.8633926179845162E-008 F
     orb,it,eci,eold,eci-eold=                    7                   27  -1.1211935909025408       -1.1211934758116031       -1.1509093766903788E-007 F
     orb,it,eci,eold,eci-eold=                    7                   28  -1.1211939593755367       -1.1211935909025408       -3.6847299589304328E-007 F
     orb,it,eci,eold,eci-eold=                    7                   29  -1.1211941288439804       -1.1211939593755367       -1.6946844372256464E-007 F
     orb,it,eci,eold,eci-eold=                    7                   30  -1.1211941498860432       -1.1211941288439804       -2.1042062758880320E-008 F
     orb,it,eci,eold,eci-eold=                    7                   31  -1.1211941594377823       -1.1211941498860432       -9.5517391773825011E-009 F
     orb,it,eci,eold,eci-eold=                    7                   32  -1.1211942084176330       -1.1211941594377823       -4.8979850619801368E-008 F
     orb,it,eci,eold,eci-eold=                    7                   33  -1.1211942313339638       -1.1211942084176330       -2.2916330832956078E-008 F
     orb,it,eci,eold,eci-eold=                    7                   34  -1.1211942427724200       -1.1211942313339638       -1.1438456182233381E-008 F
     orb,it,eci,eold,eci-eold=                    7                   35  -1.1211942520924576       -1.1211942427724200       -9.3200376305446753E-009 F
     orb,it,eci,eold,eci-eold=                    7                   36  -1.1211942572601477       -1.1211942520924576       -5.1676900536534731E-009 F
     orb,it,eci,eold,eci-eold=                    7                   37  -1.1211942669065671       -1.1211942572601477       -9.6464194410117443E-009 F
     orb,it,eci,eold,eci-eold=                    7                   38  -1.1211942683210232       -1.1211942669065671       -1.4144561077955586E-009 F
     orb,it,eci,eold,eci-eold=                    7                   39  -1.1211942702994915       -1.1211942683210232       -1.9784682780965568E-009 F
     orb,it,eci,eold,eci-eold=                    7                   40  -1.1211942736179743       -1.1211942702994915       -3.3184828218679741E-009 F
     orb,it,eci,eold,eci-eold=                    7                   41  -1.1211942740670284       -1.1211942736179743       -4.4905412721618632E-010 F
     orbital   7 current e=  0.259335E+01 error=0.176E+01 (eci= -0.112119427E+01 error=0.449E-09) iterations  41(   0 preconditioned, Ep,Sp= 20.0  200.0)
     orb,it,eci,eold,eci-eold=                    7                    1  -1.1211942844908473       -1.1211942740670284       -1.0423818919136352E-008 F
     orb,it,eci,eold,eci-eold=                    7                    2  -1.1211942844908473       -1.1211942844908473        0.0000000000000000      F
     orbital   7 current e=  0.259522E+01 error=0.187E-02 (eci= -0.112119428E+01 error=0.000E+00) iterations   2(   0 preconditioned, Ep,Sp= 20.0  200.0)
     orb,it,eci,eold,eci-eold=                    7                    1  -1.1211942882446519       -1.1211942837990174       -4.4456345271726150E-009 F
     orb,it,eci,eold,eci-eold=                    7                    2  -1.1211942882446519       -1.1211942882446519        0.0000000000000000      F
     orbital   7 current e=  0.259456E+01 error=0.662E-03 (eci= -0.112119429E+01 error=0.000E+00) iterations   2(   0 preconditioned, Ep,Sp= 20.0  200.0)
     orb,it,eci,eold,eci-eold=                    8                    1  -1.1204974465999595       -1.1204684195141850       -2.9027085774568917E-005 F
     orb,it,eci,eold,eci-eold=                    8                    2  -1.1205301433739612       -1.1204974465999595       -3.2696774001639284E-005 F
     orb,it,eci,eold,eci-eold=                    8                    3  -1.1206123486898962       -1.1205301433739612       -8.2205315935057754E-005 F
     orb,it,eci,eold,eci-eold=                    8                    4  -1.1209143626433404       -1.1206123486898962       -3.0201395344420234E-004 F
     orb,it,eci,eold,eci-eold=                    8                    5  -1.1209505945007263       -1.1209143626433404       -3.6231857385882194E-005 F
     orb,it,eci,eold,eci-eold=                    8                    6  -1.1209505945007263       -1.1209505945007263        0.0000000000000000      F
     orbital   8 current e=  0.525070E+01 error=0.416E+01 (eci= -0.112095059E+01 error=0.000E+00) iterations   6(   0 preconditioned, Ep,Sp= 20.0  200.0)
     orb,it,eci,eold,eci-eold=                    8                    1  -1.1208859945445990       -1.1205353463143604       -3.5064823023867042E-004 F
     orb,it,eci,eold,eci-eold=                    8                    2  -1.1209263714611153       -1.1208859945445990       -4.0376916516260408E-005 F
     orb,it,eci,eold,eci-eold=                    8                    3  -1.1209706784797815       -1.1209263714611153       -4.4307018666200904E-005 F
     orb,it,eci,eold,eci-eold=                    8                    4  -1.1210202373775466       -1.1209706784797815       -4.9558897765145105E-005 F
     orb,it,eci,eold,eci-eold=                    8                    5  -1.1210706886449759       -1.1210202373775466       -5.0451267429307833E-005 F
     orb,it,eci,eold,eci-eold=                    8                    6  -1.1210780374755633       -1.1210706886449759       -7.3488305873947724E-006 F
     orb,it,eci,eold,eci-eold=                    8                    7  -1.1211503215925052       -1.1210780374755633       -7.2284116941823129E-005 F
     orb,it,eci,eold,eci-eold=                    8                    8  -1.1211649814076730       -1.1211503215925052       -1.4659815167794576E-005 F
     orb,it,eci,eold,eci-eold=                    8                    9  -1.1211781180351263       -1.1211649814076730       -1.3136627453391725E-005 F
     orb,it,eci,eold,eci-eold=                    8                   10  -1.1211885406243118       -1.1211781180351263       -1.0422589185488107E-005 F
     orb,it,eci,eold,eci-eold=                    8                   11  -1.1211917082899971       -1.1211885406243118       -3.1676656853107943E-006 F
     orb,it,eci,eold,eci-eold=                    8                   12  -1.1211919729831967       -1.1211917082899971       -2.6469319958088988E-007 F
     orb,it,eci,eold,eci-eold=                    8                   13  -1.1211925635544784       -1.1211919729831967       -5.9057128165562744E-007 F
     orb,it,eci,eold,eci-eold=                    8                   14  -1.1211926550590190       -1.1211925635544784       -9.1504540611353491E-008 F
     orb,it,eci,eold,eci-eold=                    8                   15  -1.1211928703160743       -1.1211926550590190       -2.1525705529157335E-007 F
     orb,it,eci,eold,eci-eold=                    8                   16  -1.1211933119708692       -1.1211928703160743       -4.4165479495816840E-007 F
     orb,it,eci,eold,eci-eold=                    8                   17  -1.1211934792183966       -1.1211933119708692       -1.6724752738284110E-007 F
     orb,it,eci,eold,eci-eold=                    8                   18  -1.1211937609197267       -1.1211934792183966       -2.8170133004046249E-007 F
     orb,it,eci,eold,eci-eold=                    8                   19  -1.1211938417401419       -1.1211937609197267       -8.0820415249149846E-008 F
     orb,it,eci,eold,eci-eold=                    8                   20  -1.1211939660327392       -1.1211938417401419       -1.2429259732549269E-007 F
     orb,it,eci,eold,eci-eold=                    8                   21  -1.1211940629343151       -1.1211939660327392       -9.6901575874497325E-008 F
     orb,it,eci,eold,eci-eold=                    8                   22  -1.1211941552162872       -1.1211940629343151       -9.2281972063901208E-008 F
     orb,it,eci,eold,eci-eold=                    8                   23  -1.1211941910973287       -1.1211941552162872       -3.5881041471341746E-008 F
     orb,it,eci,eold,eci-eold=                    8                   24  -1.1211942263959691       -1.1211941910973287       -3.5298640455039276E-008 F
     orb,it,eci,eold,eci-eold=                    8                   25  -1.1211942414630431       -1.1211942263959691       -1.5067074032870664E-008 F
     orb,it,eci,eold,eci-eold=                    8                   26  -1.1211942496921206       -1.1211942414630431       -8.2290774194859750E-009 F
     orb,it,eci,eold,eci-eold=                    8                   27  -1.1211942499797549       -1.1211942496921206       -2.8763436077383631E-010 F
     orbital   8 current e=  0.259479E+01 error=0.266E+01 (eci= -0.112119425E+01 error=0.288E-09) iterations  27(   0 preconditioned, Ep,Sp= 20.0  200.0)
     orb,it,eci,eold,eci-eold=                    8                    1  -1.1211942635059229       -1.1211942499797549       -1.3526167963462399E-008 F
     orb,it,eci,eold,eci-eold=                    8                    2  -1.1211942762314000       -1.1211942635059229       -1.2725477116504180E-008 F
     orb,it,eci,eold,eci-eold=                    8                    3  -1.1211942808960660       -1.1211942762314000       -4.6646659868088136E-009 F
     orb,it,eci,eold,eci-eold=                    8                    4  -1.1211942822306493       -1.1211942808960660       -1.3345833327349510E-009 F
     orb,it,eci,eold,eci-eold=                    8                    5  -1.1211942824358743       -1.1211942822306493       -2.0522494814656511E-010 F
     orbital   8 current e=  0.259465E+01 error=0.136E-03 (eci= -0.112119428E+01 error=0.205E-09) iterations   5(   0 preconditioned, Ep,Sp= 20.0  200.0)
     orb,it,eci,eold,eci-eold=                    9                    1  -1.1204756930516708       -1.1204684219541263       -7.2710975445033910E-006 F
     orb,it,eci,eold,eci-eold=                    9                    2  -1.1204831465720346       -1.1204756930516708       -7.4535203637982050E-006 F
     orb,it,eci,eold,eci-eold=                    9                    3  -1.1205964813720901       -1.1204831465720346       -1.1333480005548680E-004 F
     orb,it,eci,eold,eci-eold=                    9                    4  -1.1206446214497854       -1.1205964813720901       -4.8140077695268957E-005 F
     orb,it,eci,eold,eci-eold=                    9                    5  -1.1207722089205472       -1.1206446214497854       -1.2758747076180299E-004 F
     orb,it,eci,eold,eci-eold=                    9                    6  -1.1207731258525138       -1.1207722089205472       -9.1693196657693932E-007 F
     orb,it,eci,eold,eci-eold=                    9                    7  -1.1208556436441730       -1.1207731258525138       -8.2517791659242334E-005 F
     orb,it,eci,eold,eci-eold=                    9                    8  -1.1208631343883109       -1.1208556436441730       -7.4907441378613271E-006 F
     orb,it,eci,eold,eci-eold=                    9                    9  -1.1209461715095150       -1.1208631343883109       -8.3037121204165842E-005 F
     orb,it,eci,eold,eci-eold=                    9                   10  -1.1209494677899468       -1.1209461715095150       -3.2962804317193672E-006 F
     orb,it,eci,eold,eci-eold=                    9                   11  -1.1209622469342453       -1.1209494677899468       -1.2779144298535883E-005 F
     orb,it,eci,eold,eci-eold=                    9                   12  -1.1209622469342453       -1.1209622469342453        0.0000000000000000      F
     orbital   9 current e=  0.253197E+01 error=0.140E+01 (eci= -0.112096225E+01 error=0.000E+00) iterations  12(   0 preconditioned, Ep,Sp= 20.0  200.0)
     orb,it,eci,eold,eci-eold=                    9                    1  -1.1209364749668307       -1.1208398724156041       -9.6602551226565581E-005 F
     orb,it,eci,eold,eci-eold=                    9                    2  -1.1209664186082506       -1.1209364749668307       -2.9943641419949429E-005 F
     orb,it,eci,eold,eci-eold=                    9                    3  -1.1209665928983295       -1.1209664186082506       -1.7429007881375469E-007 F
     orb,it,eci,eold,eci-eold=                    9                    4  -1.1209666312953059       -1.1209665928983295       -3.8396976487220513E-008 F
     orb,it,eci,eold,eci-eold=                    9                    5  -1.1209689355627679       -1.1209666312953059       -2.3042674619500048E-006 F
     orb,it,eci,eold,eci-eold=                    9                    6  -1.1209694808917030       -1.1209689355627679       -5.4532893511982650E-007 F
     orb,it,eci,eold,eci-eold=                    9                    7  -1.1209695224955583       -1.1209694808917030       -4.1603855249761068E-008 F
     orb,it,eci,eold,eci-eold=                    9                    8  -1.1209709783161481       -1.1209695224955583       -1.4558205898573817E-006 F
     orb,it,eci,eold,eci-eold=                    9                    9  -1.1209717121987841       -1.1209709783161481       -7.3388263599483139E-007 F
     orb,it,eci,eold,eci-eold=                    9                   10  -1.1209720302940542       -1.1209717121987841       -3.1809527012427452E-007 F
     orb,it,eci,eold,eci-eold=                    9                   11  -1.1209736765921372       -1.1209720302940542       -1.6462980829690110E-006 F
     orb,it,eci,eold,eci-eold=                    9                   12  -1.1209741573956311       -1.1209736765921372       -4.8080349390744459E-007 F
     orb,it,eci,eold,eci-eold=                    9                   13  -1.1209756989130277       -1.1209741573956311       -1.5415173966193407E-006 F
     orb,it,eci,eold,eci-eold=                    9                   14  -1.1209769231033062       -1.1209756989130277       -1.2241902784815295E-006 F
     orb,it,eci,eold,eci-eold=                    9                   15  -1.1209773144920829       -1.1209769231033062       -3.9138877672151295E-007 F
     orb,it,eci,eold,eci-eold=                    9                   16  -1.1209774565874668       -1.1209773144920829       -1.4209538390375087E-007 F
     orb,it,eci,eold,eci-eold=                    9                   17  -1.1209775080427677       -1.1209774565874668       -5.1455300908997970E-008 F
     orb,it,eci,eold,eci-eold=                    9                   18  -1.1209775159889157       -1.1209775080427677       -7.9461479618458952E-009 F
     orb,it,eci,eold,eci-eold=                    9                   19  -1.1209775205735482       -1.1209775159889157       -4.5846324514542403E-009 F
     orb,it,eci,eold,eci-eold=                    9                   20  -1.1209775777764770       -1.1209775205735482       -5.7202928838151479E-008 F
     orb,it,eci,eold,eci-eold=                    9                   21  -1.1209776274877359       -1.1209775777764770       -4.9711258887086274E-008 F
     orb,it,eci,eold,eci-eold=                    9                   22  -1.1209776551737198       -1.1209776274877359       -2.7685983949865545E-008 F
     orb,it,eci,eold,eci-eold=                    9                   23  -1.1209776580774193       -1.1209776551737198       -2.9036995030651269E-009 F
     orb,it,eci,eold,eci-eold=                    9                   24  -1.1209776732272860       -1.1209776580774193       -1.5149866694486036E-008 F
     orb,it,eci,eold,eci-eold=                    9                   25  -1.1209776789777235       -1.1209776732272860       -5.7504374595396257E-009 F
     orb,it,eci,eold,eci-eold=                    9                   26  -1.1209776801589686       -1.1209776789777235       -1.1812451017334524E-009 F
     orb,it,eci,eold,eci-eold=                    9                   27  -1.1209776919524763       -1.1209776801589686       -1.1793507725954555E-008 F
     orb,it,eci,eold,eci-eold=                    9                   28  -1.1209776961717410       -1.1209776919524763       -4.2192647153882490E-009 F
     orb,it,eci,eold,eci-eold=                    9                   29  -1.1209777010919773       -1.1209776961717410       -4.9202362184530557E-009 F
     orb,it,eci,eold,eci-eold=                    9                   30  -1.1209777043858988       -1.1209777010919773       -3.2939215799387966E-009 F
     orb,it,eci,eold,eci-eold=                    9                   31  -1.1209777046050509       -1.1209777043858988       -2.1915202985667293E-010 F
     orbital   9 current e=  0.332819E+01 error=0.796E+00 (eci= -0.112097770E+01 error=0.219E-09) iterations  31(   0 preconditioned, Ep,Sp= 20.0  200.0)
     orb,it,eci,eold,eci-eold=                    9                    1  -1.1209777072648783       -1.1209777046050509       -2.6598274693867552E-009 F
     orb,it,eci,eold,eci-eold=                    9                    2  -1.1209777078260259       -1.1209777072648783       -5.6114757285286032E-010 F
     orbital   9 current e=  0.332826E+01 error=0.725E-04 (eci= -0.112097771E+01 error=0.561E-09) iterations   2(   0 preconditioned, Ep,Sp= 20.0  200.0)
     orb,it,eci,eold,eci-eold=                   10                    1  -1.1204904179726529       -1.1204684246053418       -2.1993367311123890E-005 F
     orb,it,eci,eold,eci-eold=                   10                    2  -1.1205178792975636       -1.1204904179726529       -2.7461324910715845E-005 F
     orb,it,eci,eold,eci-eold=                   10                    3  -1.1206430963263043       -1.1205178792975636       -1.2521702874068730E-004 F
     orb,it,eci,eold,eci-eold=                   10                    4  -1.1208586279595776       -1.1206430963263043       -2.1553163327325819E-004 F
     orb,it,eci,eold,eci-eold=                   10                    5  -1.1209159240414750       -1.1208586279595776       -5.7296081897417750E-005 F
     orb,it,eci,eold,eci-eold=                   10                    6  -1.1209366348513989       -1.1209159240414750       -2.0710809923940587E-005 F
     orb,it,eci,eold,eci-eold=                   10                    7  -1.1209423661652964       -1.1209366348513989       -5.7313138974723898E-006 F
     orb,it,eci,eold,eci-eold=                   10                    8  -1.1209439230252811       -1.1209423661652964       -1.5568599847082254E-006 F
     orb,it,eci,eold,eci-eold=                   10                    9  -1.1209447943358337       -1.1209439230252811       -8.7131055259703771E-007 F
     orb,it,eci,eold,eci-eold=                   10                   10  -1.1209450529062557       -1.1209447943358337       -2.5857042196264501E-007 F
     orb,it,eci,eold,eci-eold=                   10                   11  -1.1209451146983371       -1.1209450529062557       -6.1792081451628178E-008 F
     orb,it,eci,eold,eci-eold=                   10                   12  -1.1209465525393969       -1.1209451146983371       -1.4378410597704061E-006 F
     orb,it,eci,eold,eci-eold=                   10                   13  -1.1209472449492051       -1.1209465525393969       -6.9240980815621356E-007 F
     orb,it,eci,eold,eci-eold=                   10                   14  -1.1209479311977655       -1.1209472449492051       -6.8624856042198701E-007 F
     orb,it,eci,eold,eci-eold=                   10                   15  -1.1209489692674590       -1.1209479311977655       -1.0380696935374800E-006 F
     orb,it,eci,eold,eci-eold=                   10                   16  -1.1209490110676876       -1.1209489692674590       -4.1800228611776902E-008 F
     orb,it,eci,eold,eci-eold=                   10                   17  -1.1209494749589439       -1.1209490110676876       -4.6389125629708872E-007 F
     orb,it,eci,eold,eci-eold=                   10                   18  -1.1209500081173531       -1.1209494749589439       -5.3315840919943014E-007 F
     orb,it,eci,eold,eci-eold=                   10                   19  -1.1209503175504110       -1.1209500081173531       -3.0943305784347785E-007 F
     orb,it,eci,eold,eci-eold=                   10                   20  -1.1209504406687611       -1.1209503175504110       -1.2311835018152806E-007 F
     orb,it,eci,eold,eci-eold=                   10                   21  -1.1209504895847604       -1.1209504406687611       -4.8915999251164521E-008 F
     orb,it,eci,eold,eci-eold=                   10                   22  -1.1209507051469736       -1.1209504895847604       -2.1556221319052327E-007 F
     orb,it,eci,eold,eci-eold=                   10                   23  -1.1209507666173024       -1.1209507051469736       -6.1470328827084586E-008 F
     orb,it,eci,eold,eci-eold=                   10                   24  -1.1209508346608397       -1.1209507666173024       -6.8043537249096175E-008 F
     orb,it,eci,eold,eci-eold=                   10                   25  -1.1209509937519635       -1.1209508346608397       -1.5909112383027946E-007 F
     orb,it,eci,eold,eci-eold=                   10                   26  -1.1209510797684452       -1.1209509937519635       -8.6016481715134319E-008 F
     orb,it,eci,eold,eci-eold=                   10                   27  -1.1209512212778259       -1.1209510797684452       -1.4150938065782270E-007 F
[...]
   16   13   16   16       -0.0000934716
   16   13   17   16       -0.0000018912
   16   13   18   16       -0.0023433999
   16   13   19   16       -0.0000008111
   16   13   17   17       -0.0000848832
   16   13   18   17       -0.0007918389
   16   13   19   17       -0.0000003380
   16   13   18   18       -0.0001002394
   16   13   19   18       -0.0000015632
   16   13   19   19       -0.0000949900
   17   13   17   13        0.0261974420
   17   13   18   13       -0.0000625045
   17   13   19   13        0.0000038762
   17   13   14   14       -0.0000918197
   17   13   15   14       -0.0000314307
   17   13   16   14        0.0091806153
   17   13   17   14       -0.0000512238
   17   13   18   14       -0.0000368350
   17   13   19   14        0.0000044526
   17   13   15   15       -0.0000789738
   17   13   16   15       -0.0000000304
   17   13   17   15       -0.0000000946
   17   13   18   15       -0.0000013212
   17   13   19   15        0.0000054020
   17   13   16   16       -0.0000741228
   17   13   17   16        0.0000005348
   17   13   18   16       -0.0007919182
   17   13   19   16       -0.0000002573
   17   13   17   17       -0.0000780909
   17   13   18   17        0.0023454558
   17   13   19   17        0.0000007651
   17   13   18   18       -0.0000867808
   17   13   19   18        0.0000010151
   17   13   19   19       -0.0000800860
   18   13   18   13        0.0083397062
   18   13   19   13        0.0000449277
   18   13   14   14       -0.0000604588
   18   13   15   14        0.0000005069
   18   13   16   14       -0.0000665444
   18   13   17   14       -0.0001067952
   18   13   18   14       -0.0000006965
   18   13   19   14        0.0000366066
   18   13   15   15       -0.0000742221
   18   13   16   15        0.0000080637
   18   13   17   15        0.0000003766
   18   13   18   15       -0.0000063231
   18   13   19   15       -0.0023611649
   18   13   16   16       -0.0023085385
   18   13   17   16       -0.0007605390
   18   13   18   16       -0.0000247247
   18   13   19   16       -0.0000095943
   18   13   17   17        0.0021875733
   18   13   18   17       -0.0000220499
   18   13   19   17       -0.0000025735
   18   13   18   18       -0.0000640703
   18   13   19   18       -0.0000002900
   18   13   19   19       -0.0000530352
   19   13   19   13        0.0542770971
   19   13   14   14        0.0000000340
   19   13   15   14       -0.0000512381
   19   13   16   14        0.0000022104
   19   13   17   14        0.0000024238
   19   13   18   14       -0.0000641122
   19   13   19   14        0.0481241566
   19   13   15   15        0.0000006896
   19   13   16   15       -0.0000051902
   19   13   17   15        0.0000071577
   19   13   18   15       -0.0038440845
   19   13   19   15       -0.0000025811
   19   13   16   16       -0.0000008961
   19   13   17   16       -0.0000002733
   19   13   18   16       -0.0000182399
   19   13   19   16        0.0000107658
   19   13   17   17        0.0000005513
   19   13   18   17       -0.0000104974
   19   13   19   17        0.0000070204
   19   13   18   18       -0.0000040973
   19   13   19   18        0.0000059252
   19   13   19   19        0.0000000289
   14   14   14   14        0.6953575079
   14   14   15   14       -0.0000003756
   14   14   16   14        0.0001071966
   14   14   17   14        0.0000444695
   14   14   18   14        0.0000026793
   14   14   19   14       -0.0000000265
   14   14   15   15        0.6251132110
   14   14   16   15       -0.0000285894
   14   14   17   15       -0.0000040869
   14   14   18   15        0.0000015823
   14   14   19   15        0.0000625224
   14   14   16   16        0.6358649565
   14   14   17   16       -0.0000703993
   14   14   18   16       -0.0000011004
   14   14   19   16        0.0000003465
   14   14   17   17        0.6358181341
   14   14   18   17        0.0001209741
   14   14   19   17       -0.0000000794
   14   14   18   18        0.6178789516
   14   14   19   18       -0.0000306217
   14   14   19   19        0.6554172459
   15   14   15   14        0.0177632814
   15   14   16   14       -0.0000283513
   15   14   17   14       -0.0000038349
   15   14   18   14        0.0000012941
   15   14   19   14        0.0000407530
   15   14   15   15       -0.0000002196
   15   14   16   15        0.0000022995
   15   14   17   15        0.0000009506
   15   14   18   15        0.0000017265
   15   14   19   15        0.0000000191
   15   14   16   16       -0.0000001717
   15   14   17   16        0.0000000195
   15   14   18   16        0.0000019109
   15   14   19   16       -0.0000042629
   15   14   17   17       -0.0000001820
   15   14   18   17       -0.0000077494
   15   14   19   17        0.0000052686
   15   14   18   18        0.0000015076
   15   14   19   18       -0.0005408744
   15   14   19   19       -0.0000006272
   16   14   16   14        0.0258507585
   16   14   17   14       -0.0000426324
   16   14   18   14        0.0000022236
   16   14   19   14        0.0000003918
   16   14   15   15        0.0000573205
   16   14   16   15        0.0000000050
   16   14   17   15       -0.0000000730
   16   14   18   15       -0.0000010162
   16   14   19   15       -0.0000015140
   16   14   16   16        0.0000533705
   16   14   17   16        0.0000037000
   16   14   18   16       -0.0007681719
   16   14   19   16       -0.0000002759
   16   14   17   17        0.0000530015
   16   14   18   17        0.0023246693
   16   14   19   17        0.0000008041
   16   14   18   18        0.0000673920
   16   14   19   18       -0.0000005670
   16   14   19   19        0.0000591087
   17   14   17   14        0.0258224277
   17   14   18   14        0.0000771428
   17   14   19   14       -0.0000001720
   17   14   15   15        0.0000228919
   17   14   16   15       -0.0000000573
   17   14   17   15       -0.0000000073
   17   14   18   15       -0.0000101060
   17   14   19   15       -0.0000021772
   17   14   16   16        0.0000252858
   17   14   17   16       -0.0000000900
   17   14   18   16        0.0023242289
   17   14   19   16        0.0000008153
   17   14   17   17        0.0000214849
   17   14   18   17        0.0007679230
   17   14   19   17        0.0000002500
   17   14   18   18        0.0000218854
   17   14   19   18       -0.0000003231
   17   14   19   19        0.0000238930
   18   14   18   14        0.0083383162
   18   14   19   14       -0.0000793988
   18   14   15   15        0.0000176610
   18   14   16   15        0.0000005123
   18   14   17   15       -0.0000087412
   18   14   18   15        0.0000106177
   18   14   19   15       -0.0024919439
   18   14   16   16       -0.0007320016
   18   14   17   16        0.0022608100
   18   14   18   16        0.0000185009
   18   14   19   16       -0.0000084942
   18   14   17   17        0.0007608787
   18   14   18   17        0.0000040973
   18   14   19   17       -0.0000040063
   18   14   18   18        0.0000151788
   18   14   19   18       -0.0000002968
   18   14   19   19        0.0000128982
   19   14   19   14        0.0594513594
   19   14   15   15        0.0000006835
   19   14   16   15       -0.0000021450
   19   14   17   15       -0.0000015739
   19   14   18   15       -0.0040564441
   19   14   19   15       -0.0000026573
   19   14   16   16       -0.0000003854
   19   14   17   16        0.0000007832
   19   14   18   16       -0.0000200582
   19   14   19   16       -0.0000094106
   19   14   17   17       -0.0000000419
   19   14   18   17       -0.0000106593
   19   14   19   17       -0.0000093145
   19   14   18   18       -0.0000044094
   19   14   19   18       -0.0000002911
   19   14   19   19       -0.0000000070
   15   15   15   15        0.7628207573
   15   15   16   15        0.0000504283
   15   15   17   15        0.0000072237
   15   15   18   15       -0.0000019383
   15   15   19   15       -0.0000000937
   15   15   16   16        0.7041845342
   15   15   17   16        0.0000001810
   15   15   18   16       -0.0000065401
   15   15   19   16        0.0000614662
   15   15   17   17        0.7041842961
   15   15   18   17        0.0000030956
   15   15   19   17       -0.0000557050
   15   15   18   18        0.7165838372
   15   15   19   18        0.0000165120
   15   15   19   19        0.6620332937
   16   15   16   15        0.0252496116
   16   15   17   15        0.0000000345
   16   15   18   15        0.0000012901
   16   15   19   15       -0.0000042592
   16   15   16   16        0.0000834968
   16   15   17   16       -0.0000039390
   16   15   18   16       -0.0000048498
   16   15   19   16       -0.0114679733
   16   15   17   17        0.0001213597
   16   15   18   17       -0.0000169827
   16   15   19   17        0.0061650361
   16   15   18   18        0.0001306065
   16   15   19   18        0.0000056099
   16   15   19   19       -0.0000109923
   17   15   17   15        0.0252498713
   17   15   18   15       -0.0000003633
   17   15   19   15        0.0000029914
   17   15   16   16        0.0000190005
   17   15   17   16       -0.0000159694
   17   15   18   16       -0.0000167902
   17   15   19   16        0.0061652466
   17   15   17   17        0.0000132459
   17   15   18   17        0.0000026016
   17   15   19   17        0.0114682340
   17   15   18   18        0.0000401251
   17   15   19   18        0.0000030343
   17   15   19   19       -0.0000055586
   18   15   18   15        0.0288220452
   18   15   19   15        0.0000003791
   18   15   16   16        0.0000040399
   18   15   17   16        0.0000187890
   18   15   18   16       -0.0000021815
   18   15   19   16        0.0000052576
   18   15   17   17       -0.0000041444
   18   15   18   17        0.0000034426
   18   15   19   17        0.0000042120
   18   15   18   18        0.0000015514
   18   15   19   18       -0.0000002211
   18   15   19   19        0.0000014104
   19   15   19   15        0.0276867104
   19   15   16   16        0.0126317732
   19   15   17   16       -0.0067456853
   19   15   18   16       -0.0000057428
   19   15   19   16       -0.0000036689
   19   15   17   17       -0.0126317638
   19   15   18   17       -0.0000017297
   19   15   19   17       -0.0000001156
   19   15   18   18        0.0000000217
   19   15   19   18        0.0000025088
   19   15   19   19       -0.0000003799
   16   16   16   16        0.7335159451
   16   16   17   16        0.0000426989
   16   16   18   16       -0.0000040874
   16   16   19   16       -0.0000375170
   16   16   17   17        0.6722768866
   16   16   18   17        0.0000025936
   16   16   19   17        0.0000445912
   16   16   18   18        0.6875459008
   16   16   19   18        0.0000059865
   16   16   19   19        0.6692755109
   17   16   17   16        0.0311200180
   17   16   18   16        0.0000008815
   17   16   19   16       -0.0000060245
   17   16   17   17       -0.0000423004
   17   16   18   17       -0.0000003251
   17   16   19   17        0.0000384052
   17   16   18   18        0.0000004199
   17   16   19   18       -0.0000010679
   17   16   19   19        0.0000002978
   18   16   18   16        0.0304525191
   18   16   19   16        0.0000014144
   18   16   17   17       -0.0000037598
   18   16   18   17        0.0000000758
   18   16   19   17       -0.0000174075
   18   16   18   18       -0.0000094841
   18   16   19   18       -0.0000045622
   18   16   19   19       -0.0000116727
   19   16   19   16        0.0284027480
   19   16   17   17       -0.0000369379
   19   16   18   17        0.0000168056
   19   16   19   17        0.0000001139
   19   16   18   18       -0.0000084774
   19   16   19   18       -0.0000070516
   19   16   19   19       -0.0000063253
   17   17   17   17        0.7335157045
   17   17   18   17        0.0000012269
   17   17   19   17        0.0000031800
   17   17   18   18        0.6875455374
   17   17   19   18        0.0000017407
   17   17   19   19        0.6692762927
   18   17   18   17        0.0304526594
   18   17   19   17       -0.0000003525
   18   17   18   18        0.0000038570
   18   17   19   18        0.0000212171
   18   17   19   19        0.0000154670
   19   17   19   17        0.0284030246
   19   17   18   18        0.0000307360
   19   17   19   18        0.0000090797
   19   17   19   19       -0.0000025868
   18   18   18   18        0.7646933266
   18   18   19   18        0.0000349854
   18   18   19   19        0.6469162513
   19   18   19   18        0.0046001366
   19   18   19   19       -0.0000171753
   19   19   19   19        0.6974565552
 end_two_electron_integrals


 output epsi filename:./pspw_hf_H2.emovecs

 Total PSPW energy     :  -0.1123735753E+01


=== Spin Contamination ===

 <Sexact^2> =    0.0000000000000000     
 <S^2>      =    0.0000000000000000     



== Center of Charge ==

spin up     (    0.0000,    0.0000,    0.0000 )
spin down   (    0.0000,    0.0000,    0.0000 )
     total  (    0.0000,    0.0000,    0.0000 )
ionic       (    0.0000,    0.0000,    0.0000 )


== Molecular Dipole wrt Center of Mass ==

mu   =  (   -0.0000,   -0.0000,   -0.0000 ) au
|mu| =     0.0000 au,       0.0000 Debye

 output psi filename:./pspw_hf_H2.movecs

 Writing Crystallographic Information File:./H2.cif
   - cell not shifted (nwpw:cif_shift_cell .false.)


== Timing ==

cputime in seconds
  prologue    :   0.687903E+01
  main loop   :   0.111350E+03
  epilogue    :   0.172549E-01
  total       :   0.118246E+03
  cputime/step:   0.412408E+01       (      27 evalulations,      11 linesearches)


Time spent doing                        total          step       percent
  total time                 :   0.118263E+03  0.438011E+01       100.0 %
  i/o time                   :   0.738151E+00  0.273389E-01         0.6 %
  FFTs                       :   0.782321E+02  0.289749E+01        66.2 %
  dot products               :   0.461541E+01  0.170941E+00         3.9 %
  geodesic                   :   0.106977E-01  0.396210E-03         0.0 %
  ffm_dgemm                  :   0.136238E-02  0.504586E-04         0.0 %
  fmf_dgemm                  :   0.134079E-02  0.496589E-04         0.0 %
  mmm_dgemm                  :   0.453861E-03  0.168097E-04         0.0 %
  m_diagonalize              :   0.235320E-03  0.871556E-05         0.0 %
  local pseudopotentials     :   0.940130E+00  0.348196E-01         0.8 %
  non-local pseudopotentials :   0.429464E+01  0.159061E+00         3.6 %
  structure factors          :   0.107271E+00  0.397301E-02         0.1 %
  phase factors              :   0.959700E-05  0.355444E-06         0.0 %
  masking and packing        :   0.848828E+01  0.314381E+00         7.2 %
  queue fft                  :   0.178855E+01  0.662426E-01         1.5 %
  queue fft (serial)         :   0.544844E+00  0.201794E-01         0.5 %
  queue fft (message passing):   0.123650E+01  0.457963E-01         1.0 %
  HFX potential              :   0.187200E+01  0.693332E-01         1.6 %
  non-local psp FFM          :   0.420465E+01  0.155728E+00         3.6 %
  non-local psp FMF          :   0.193799E-01  0.717774E-03         0.0 %
  non-local psp FFM A        :   0.865295E-02  0.320480E-03         0.0 %
  non-local psp FFM B        :   0.270815E-01  0.100302E-02         0.0 %

== HFX Counters ==
  HFX Evalulations         =    27
  Lin ACE HFX Evalulations =     0


     >>>  JOB COMPLETED     AT Sun Apr  6 09:23:14 2025  <<<

 Task  times  cpu:      295.3s     wall:      313.0s


                                NWChem Input Module
                                -------------------


 Summary of allocated global arrays
-----------------------------------
  No active global arrays


MA_summarize_allocated_blocks: starting scan ...
MA_summarize_allocated_blocks: scan completed: 0 heap blocks, 0 stack blocks
MA usage statistics:

	allocation statistics:
					      heap	     stack
					      ----	     -----
	current number of blocks	         0	         0
	maximum number of blocks	       313	        36
	current total bytes		         0	         0
	maximum total bytes		  20669928	   5334808
	maximum total K-bytes		     20670	      5335
	maximum total M-bytes		        21	         6


                                     CITATION
                                     --------
                Please cite the following reference when publishing
                           results obtained with NWChem:

          E. Apra, E. J. Bylaska, W. A. de Jong, N. Govind, K. Kowalski,
       T. P. Straatsma, M. Valiev, H. J. J. van Dam, Y. Alexeev, J. Anchell,
       V. Anisimov, F. W. Aquino, R. Atta-Fynn, J. Autschbach, N. P. Bauman,
     J. C. Becca, D. E. Bernholdt, K. Bhaskaran-Nair, S. Bogatko, P. Borowski,
         J. Boschen, J. Brabec, A. Bruner, E. Cauet, Y. Chen, G. N. Chuev,
      C. J. Cramer, J. Daily, M. J. O. Deegan, T. H. Dunning Jr., M. Dupuis,
   K. G. Dyall, G. I. Fann, S. A. Fischer, A. Fonari, H. Fruchtl, L. Gagliardi,
      J. Garza, N. Gawande, S. Ghosh, K. Glaesemann, A. W. Gotz, J. Hammond,
       V. Helms, E. D. Hermes, K. Hirao, S. Hirata, M. Jacquelin, L. Jensen,
   B. G. Johnson, H. Jonsson, R. A. Kendall, M. Klemm, R. Kobayashi, V. Konkov,
      S. Krishnamoorthy, M. Krishnan, Z. Lin, R. D. Lins, R. J. Littlefield,
      A. J. Logsdail, K. Lopata, W. Ma, A. V. Marenich, J. Martin del Campo,
   D. Mejia-Rodriguez, J. E. Moore, J. M. Mullin, T. Nakajima, D. R. Nascimento,
    J. A. Nichols, P. J. Nichols, J. Nieplocha, A. Otero-de-la-Roza, B. Palmer,
    A. Panyala, T. Pirojsirikul, B. Peng, R. Peverati, J. Pittner, L. Pollack,
   R. M. Richard, P. Sadayappan, G. C. Schatz, W. A. Shelton, D. W. Silverstein,
   D. M. A. Smith, T. A. Soares, D. Song, M. Swart, H. L. Taylor, G. S. Thomas,
            V. Tipparaju, D. G. Truhlar, K. Tsemekhman, T. Van Voorhis,
      A. Vazquez-Mayagoitia, P. Verma, O. Villa, A. Vishnu, K. D. Vogiatzis,
        D. Wang, J. H. Weare, M. J. Williamson, T. L. Windus, K. Wolinski,
        A. T. Wong, Q. Wu, C. Yang, Q. Yu, M. Zacharias, Z. Zhang, Y. Zhao,
                                and R. J. Harrison
                        "NWChem: Past, present, and future
                         J. Chem. Phys. 152, 184102 (2020)
                               doi:10.1063/5.0004997

                                      AUTHORS
                                      -------
  E. Apra, E. J. Bylaska, N. Govind, K. Kowalski, M. Valiev, D. Mejia-Rodriguez,
       A. Kunitsa, N. P. Bauman, A. Panyala, W. A. de Jong, T. P. Straatsma,
   H. J. J. van Dam, D. Wang, T. L. Windus, J. Hammond, J. Autschbach, A. Woods,
    K. Bhaskaran-Nair, J. Brabec, K. Lopata, S. A. Fischer, S. Krishnamoorthy,
     M. Jacquelin, W. Ma, M. Klemm, O. Villa, Y. Chen, V. Anisimov, F. Aquino,
     S. Hirata, M. T. Hackler, E. Hermes, L. Jensen, J. E. Moore, J. C. Becca,
      V. Konjkov, T. Risthaus, M. Malagoli, A. Marenich, A. Otero-de-la-Roza,
        J. Mullin, P. Nichols, R. Peverati, J. Pittner, Y. Zhao, P.-D. Fan,
        A. Fonari, M. J. Williamson, R. J. Harrison, J. R. Rehr, M. Dupuis,
     D. Silverstein, D. M. A. Smith, J. Nieplocha, V. Tipparaju, M. Krishnan,
     B. E. Van Kuiken, A. Vazquez-Mayagoitia, M. Swart, Q. Wu, T. Van Voorhis,
     A. A. Auer, M. Nooijen, L. D. Crosby, E. Brown, G. Cisneros, G. I. Fann,
   H. Fruchtl, J. Garza, K. Hirao, R. A. Kendall, J. A. Nichols, K. Tsemekhman,
    K. Wolinski, J. Anchell, D. E. Bernholdt, P. Borowski, T. Clark, D. Clerc,
   H. Dachsel, M. J. O. Deegan, K. Dyall, D. Elwood, E. Glendening, M. Gutowski,
   A. C. Hess, J. Jaffe, B. G. Johnson, J. Ju, R. Kobayashi, R. Kutteh, Z. Lin,
   R. Littlefield, X. Long, B. Meng, T. Nakajima, S. Niu, L. Pollack, M. Rosing,
   K. Glaesemann, G. Sandrone, M. Stave, H. Taylor, G. Thomas, J. H. van Lenthe,
                               A. T. Wong, Z. Zhang.

 Total times  cpu:      295.3s     wall:      313.1s
