 argument  1 = H2-1.5.nw



============================== echo of input deck ==============================
title "swnc: e theory=pspw4 xc=hf formula=H2 charge=0 mult=1"
#machinejob:expert

echo

start pspw_hf_H2

memory heap 1200 mb stack 1200 mb global 10 mb

charge 0

geometry
H    0.00000    0.00000   -0.75000
H    0.00000    0.00000    0.75000
end

nwpw
  ### pseudopotential block begin ###
  ### pseudopotential block end   ###
  simulation_cell
     SC 15.0000
     boundary_conditions aperiodic
  end

  cutoff 50.0
  mult 1
  xc hf
  lmbfgs
  tolerances 1.0e-9 1.0e-9

  virtual 18
end
set nwpw:cif_filename H2

#set nwpw:CI_maxit_orb 15
#set nwpw:CI_maxit_linesearch 15
set pspw:HFX_screening_radius 14.0


set nwpw:2qintegrals .true.
set nwpw:3x3_virtual .true.

task pspw energy
================================================================================


                                         
                                         


             Northwest Computational Chemistry Package (NWChem) 7.2.3
             --------------------------------------------------------


                    Environmental Molecular Sciences Laboratory
                       Pacific Northwest National Laboratory
                                Richland, WA 99352

                              Copyright (c) 1994-2022
                       Pacific Northwest National Laboratory
                            Battelle Memorial Institute

             NWChem is an open-source computational chemistry package
                        distributed under the terms of the
                      Educational Community License (ECL) 2.0
             A copy of the license is included with this distribution
                              in the LICENSE.TXT file

                                  ACKNOWLEDGMENT
                                  --------------

            This software and its documentation were developed at the
            EMSL at Pacific Northwest National Laboratory, a multiprogram
            national laboratory, operated for the U.S. Department of Energy
            by Battelle under Contract Number DE-AC05-76RL01830. Support
            for this work was provided by the Department of Energy Office
            of Biological and Environmental Research, Office of Basic
            Energy Sciences, and the Office of Advanced Scientific Computing.


           Job information
           ---------------

    hostname        = mqs-al
    program         = nwchem
    date            = Sun Apr  6 09:47:43 2025

    compiled        = Thu_Oct_31_08:55:15_2024
    source          = /home/conda/feedstock_root/build_artifacts/nwchem_1730356057992/work
    nwchem branch   = 7.2.3
    nwchem revision = c400b04
    ga revision     = 5.8.0
    use scalapack   = T
    input           = H2-1.5.nw
    prefix          = pspw_hf_H2.
    data base       = ./pspw_hf_H2.db
    status          = startup
    nproc           =       24
    time left       =     -1s



           Memory information
           ------------------

    heap     =  157286400 doubles =   1200.0 Mbytes
    stack    =  157286397 doubles =   1200.0 Mbytes
    global   =    1310720 doubles =     10.0 Mbytes (distinct from heap & stack)
    total    =  315883517 doubles =   2410.0 Mbytes
    verify   = yes
    hardfail = no 


           Directory information
           ---------------------

  0 permanent = .
  0 scratch   = .




                                NWChem Input Module
                                -------------------


               swnc: e theory=pspw4 xc=hf formula=H2 charge=0 mult=1
               -----------------------------------------------------

 Scaling coordinates for geometry "geometry" by  1.889725989
 (inverse scale =  0.529177249)

  zeroes
  zeroes
  zeroes
  zeroes
  zeroes
  zeroes
  zeroes
  zeroes
  zeroes
  zeroes
  zeroes
  zeroes
  zeroes
  zeroes
  zeroes
  zeroes
  zeroes
  zeroes
  zeroes
  zeroes
  zeroes
  zeroes
  zeroes
  zeroes
  zeroes
  zeroes
  zeroes
  zeroes
  zeroes
  zeroes
  zeroes
  zeroes
  zeroes
  zeroes
  zeroes
  zeroes
  zeroes
  zeroes
  zeroes
  zeroes
  zeroes
  zeroes
  zeroes
  zeroes
  zeroes
  zeroes
  zeroes
  zeroes
 ORDER OF PRIMARY AXIS IS BEING SET TO 4
 D4H symmetry detected

          ------
          auto-z
          ------
     1 autoz failed with cvr_scaling = 1.2 changing to 1.3
     2 autoz failed with cvr_scaling = 1.3 changing to 1.4
     3 autoz failed with cvr_scaling = 1.4 changing to 1.5
     4 autoz failed with cvr_scaling = 1.5 changing to 1.6
     5 autoz failed with cvr_scaling = 1.6 changing to 1.7

 AUTOZ failed to generate good internal coordinates.
 Cartesian coordinates will be used in optimizations.



                             Geometry "geometry" -> ""
                             -------------------------

 Output coordinates in angstroms (scale by  1.889725989 to convert to a.u.)

  No.       Tag          Charge          X              Y              Z
 ---- ---------------- ---------- -------------- -------------- --------------
    1 H                    1.0000     0.00000000     0.00000000    -0.75000000
    2 H                    1.0000     0.00000000     0.00000000     0.75000000

      Atomic Mass 
      ----------- 

      H                  1.007825


 Effective nuclear repulsion energy (a.u.)       0.3527848327

            Nuclear Dipole moment (a.u.) 
            ----------------------------
        X                 Y               Z
 ---------------- ---------------- ----------------
     0.0000000000     0.0000000000     0.0000000000

      Symmetry information
      --------------------

 Group name             D4h       
 Group number             28
 Group order              16
 No. of unique centers     1

      Symmetry unique atoms

     1


            XYZ format geometry
            -------------------
     2
 geometry
 H                     0.00000000     0.00000000    -0.75000000
 H                     0.00000000     0.00000000     0.75000000

          ****************************************************
          *                                                  *
          *               NWPW PSPW Calculation              *
          *                                                  *
          * [ (Grassmann/Stiefel manifold implementation)  ] *
          *                                                  *
          *      [ NorthWest Chemistry implementation ]      *
          *                                                  *
          *            version #5.10   06/12/02              *
          *                                                  *
          *    This code was developed by Eric J. Bylaska,   *
          *    and was based upon algorithms and code        *
          *    developed by the group of Prof. John H. Weare *
          *                                                  *
          ****************************************************
     >>>  JOB STARTED       AT Sun Apr  6 09:47:43 2025  <<<
          ================ input data ========================

 input psi filename:./pspw_hf_H2.movecs

 number of processors used:        24
 processor grid           :  24 x   1
 parallel mapping         :2d-hilbert
 parallel mapping         :  balanced
 number of threads        :         1
 parallel io              :       off

 options:
      boundary conditions  = aperiodic   (version4)
      electron spin        = restricted
      exchange-correlation = Hartree-Fock
      - HFX relaxed
      - HFX restricted orbitals :    1
      - HFX free-space coulomb solver


 elements involved in the cluster:
      1: H   valence charge:  1.0000  lmax=  1
             comment    : Parameterized (Chem.Phys.Lett., vol 322, page 447) Hamman psp
             pseudpotential type            :   0
             highest angular component      :   1
             local potential used           :   1
             number of non-local projections:   1
             aperiodic cutoff radius        :  1.000
             cutoff =   0.800   0.800


 total charge:   0.000

 atomic composition:
     H   :    2

 number of electrons: spin up=     1 (   1 per task)  down=     1 (   1 per task) (Fourier space)
 number of orbitals : spin up=     1 (   1 per task)  down=     1 (   1 per task) (Fourier space)

 supercell:
      cell_name:  cell_default                                      
      lattice:    a1=<  15.000   0.000   0.000 >
                  a2=<   0.000  15.000   0.000 >
                  a3=<   0.000   0.000  15.000 >
      reciprocal: b1=<   0.419   0.000   0.000 >
                  b2=<   0.000   0.419   0.000 >
                  b3=<   0.000   0.000   0.419 >
      lattice:    a=      15.000 b=     15.000 c=      15.000
                  alpha=  90.000 beta=  90.000 gamma=  90.000
                  omega=      3375.0

      density cutoff=100.000  fft= 70x 70x 70(    80618 waves     3359 per task)
      wavefnc cutoff= 50.000  fft= 70x 70x 70(    28526 waves     1188 per task)

 technical parameters:
      time step=      5.80     fictitious mass=  400000.0
      tolerance=0.100E-08 (energy)   0.100E-08 (density)
      maximum iterations =      1000 (   10 inner    100 outer )





== Energy Calculation ==


          ============ Grassmann lmbfgs iteration ============
     >>>  ITERATION STARTED AT Sun Apr  6 09:47:50 2025  <<<
    iter.           Energy         DeltaE       DeltaRho 
    ------------------------------------------------------
      10   -0.1000721356E+01   -0.14784E-02    0.21907E-01
     -  10 steepest descent iterations performed
      20   -0.1004157082E+01   -0.46673E-04    0.56009E-04
      30   -0.1004256409E+01   -0.23536E-05    0.16663E-05
      40   -0.1004260823E+01   -0.65434E-07    0.24330E-07
      50   -0.1004261033E+01   -0.22027E-08    0.57489E-09
      60   -0.1004261037E+01   -0.87669E-09    0.58415E-11
  *** tolerance ok. iteration terminated
     >>>  ITERATION ENDED   AT Sun Apr  6 09:47:56 2025  <<<


==  Summary Of Results  ==

 number of electrons: spin up=    1.00000  down=    1.00000 (real space)

 total     energy    :  -0.1004261037E+01 (   -0.50213E+00/ion)
 total orbital energy:  -0.8821275871E+00 (   -0.88213E+00/electron)
 hartree   energy    :   0.9498365643E+00 (    0.94984E+00/electron)
 exc-corr  energy    :   0.0000000000E+00 (    0.00000E+00/electron)
 HF exchange energy  :  -0.4749182821E+00 (   -0.47492E+00/electron)
 ion-ion   energy    :   0.3527848327E+00 (    0.17639E+00/ion)

 kinetic (planewave) :   0.6931290608E+00 (    0.69313E+00/electron)
 V_local (planewave) :  -0.2351194262E+01 (   -0.23512E+01/electron)
 V_nl    (planewave) :  -0.1738989502E+00 (   -0.17390E+00/electron)
 V_Coul  (planewave) :   0.1899673129E+01 (    0.18997E+01/electron)
 V_xc.   (planewave) :   0.0000000000E+00 (    0.00000E+00/electron)
 K.S. HFX energy     :  -0.9498365643E+00 (   -0.94984E+00/electron)
 Virial Coefficient  :  -0.9023140408E+00

 orbital energies:
    -0.4410638E+00 ( -12.002eV)


== Virtual Orbital Calculation ==


 input epsi filename:./pspw_hf_H2.emovecs

 COVOs Mimimization
 ------------------
CI gradient algorithm =         3
maxit_sweeps          =         3
maxit_orb             =       120
maxit_linesearch      =        15
maxerror              = 0.100E-08

     orb,it,eci,eold,eci-eold=                    1                    1  -1.0360301769440365       -1.0340599643304489       -1.9702126135876519E-003 F
     orb,it,eci,eold,eci-eold=                    1                    2  -1.0361236594300565       -1.0360301769440365       -9.3482486019924593E-005 F
     orb,it,eci,eold,eci-eold=                    1                    3  -1.0396328149341885       -1.0361236594300565       -3.5091555041319999E-003 F
     orb,it,eci,eold,eci-eold=                    1                    4  -1.0402277881079955       -1.0396328149341885       -5.9497317380707848E-004 F
     orb,it,eci,eold,eci-eold=                    1                    5  -1.0407989491536724       -1.0402277881079955       -5.7116104567689341E-004 F
     orb,it,eci,eold,eci-eold=                    1                    6  -1.0427154535882059       -1.0407989491536724       -1.9165044345335058E-003 F
     orb,it,eci,eold,eci-eold=                    1                    7  -1.0432863036029747       -1.0427154535882059       -5.7085001476875341E-004 F
     orb,it,eci,eold,eci-eold=                    1                    8  -1.0440844369226672       -1.0432863036029747       -7.9813331969247336E-004 F
     orb,it,eci,eold,eci-eold=                    1                    9  -1.0444814423076150       -1.0440844369226672       -3.9700538494780169E-004 F
     orb,it,eci,eold,eci-eold=                    1                   10  -1.0451127656755610       -1.0444814423076150       -6.3132336794602395E-004 F
     orb,it,eci,eold,eci-eold=                    1                   11  -1.0453605005850979       -1.0451127656755610       -2.4773490953688970E-004 F
     orb,it,eci,eold,eci-eold=                    1                   12  -1.0457910438962743       -1.0453605005850979       -4.3054331117642342E-004 F
     orb,it,eci,eold,eci-eold=                    1                   13  -1.0469699455047465       -1.0457910438962743       -1.1789016084722270E-003 F
     orb,it,eci,eold,eci-eold=                    1                   14  -1.0475977106126573       -1.0469699455047465       -6.2776510791073825E-004 F
     orb,it,eci,eold,eci-eold=                    1                   15  -1.0480025091159588       -1.0475977106126573       -4.0479850330155109E-004 F
     orb,it,eci,eold,eci-eold=                    1                   16  -1.0481576855282788       -1.0480025091159588       -1.5517641231999058E-004 F
     orb,it,eci,eold,eci-eold=                    1                   17  -1.0487327192834006       -1.0481576855282788       -5.7503375512180099E-004 F
     orb,it,eci,eold,eci-eold=                    1                   18  -1.0490974839985221       -1.0487327192834006       -3.6476471512147945E-004 F
     orb,it,eci,eold,eci-eold=                    1                   19  -1.0492529435631588       -1.0490974839985221       -1.5545956463669519E-004 F
     orb,it,eci,eold,eci-eold=                    1                   20  -1.0496319359678914       -1.0492529435631588       -3.7899240473260321E-004 F
     orb,it,eci,eold,eci-eold=                    1                   21  -1.0499068526206381       -1.0496319359678914       -2.7491665274670396E-004 F
     orb,it,eci,eold,eci-eold=                    1                   22  -1.0502571351599452       -1.0499068526206381       -3.5028253930713404E-004 F
     orb,it,eci,eold,eci-eold=                    1                   23  -1.0504610285231180       -1.0502571351599452       -2.0389336317272466E-004 F
     orb,it,eci,eold,eci-eold=                    1                   24  -1.0508802549762082       -1.0504610285231180       -4.1922645309022677E-004 F
     orb,it,eci,eold,eci-eold=                    1                   25  -1.0509331391925414       -1.0508802549762082       -5.2884216333204392E-005 F
     orb,it,eci,eold,eci-eold=                    1                   26  -1.0509667737781323       -1.0509331391925414       -3.3634585590913701E-005 F
     orb,it,eci,eold,eci-eold=                    1                   27  -1.0512476808426601       -1.0509667737781323       -2.8090706452776892E-004 F
     orb,it,eci,eold,eci-eold=                    1                   28  -1.0513946320288925       -1.0512476808426601       -1.4695118623242465E-004 F
     orb,it,eci,eold,eci-eold=                    1                   29  -1.0515812032897749       -1.0513946320288925       -1.8657126088239551E-004 F
     orb,it,eci,eold,eci-eold=                    1                   30  -1.0515960366877124       -1.0515812032897749       -1.4833397937508153E-005 F
     orb,it,eci,eold,eci-eold=                    1                   31  -1.0516369721577910       -1.0515960366877124       -4.0935470078551361E-005 F
     orb,it,eci,eold,eci-eold=                    1                   32  -1.0518188332000062       -1.0516369721577910       -1.8186104221529220E-004 F
     orb,it,eci,eold,eci-eold=                    1                   33  -1.0518648008243645       -1.0518188332000062       -4.5967624358267400E-005 F
     orb,it,eci,eold,eci-eold=                    1                   34  -1.0518843751454565       -1.0518648008243645       -1.9574321092008518E-005 F
     orb,it,eci,eold,eci-eold=                    1                   35  -1.0520626729225404       -1.0518843751454565       -1.7829777708389116E-004 F
     orb,it,eci,eold,eci-eold=                    1                   36  -1.0520905930435154       -1.0520626729225404       -2.7920120974966878E-005 F
     orb,it,eci,eold,eci-eold=                    1                   37  -1.0520957646062490       -1.0520905930435154       -5.1715627336079706E-006 F
     orb,it,eci,eold,eci-eold=                    1                   38  -1.0522054679185862       -1.0520957646062490       -1.0970331233717268E-004 F
     orb,it,eci,eold,eci-eold=                    1                   39  -1.0522836277632732       -1.0522054679185862       -7.8159844687064606E-005 F
     orb,it,eci,eold,eci-eold=                    1                   40  -1.0523071962602573       -1.0522836277632732       -2.3568496984038845E-005 F
     orb,it,eci,eold,eci-eold=                    1                   41  -1.0523836984235631       -1.0523071962602573       -7.6502163305791626E-005 F
     orb,it,eci,eold,eci-eold=                    1                   42  -1.0524310937011034       -1.0523836984235631       -4.7395277540385194E-005 F
     orb,it,eci,eold,eci-eold=                    1                   43  -1.0524666302881518       -1.0524310937011034       -3.5536587048357049E-005 F
     orb,it,eci,eold,eci-eold=                    1                   44  -1.0525630246260294       -1.0524666302881518       -9.6394337877558911E-005 F
     orb,it,eci,eold,eci-eold=                    1                   45  -1.0525793724629704       -1.0525630246260294       -1.6347836941044136E-005 F
     orb,it,eci,eold,eci-eold=                    1                   46  -1.0525886244684144       -1.0525793724629704       -9.2520054439937383E-006 F
     orb,it,eci,eold,eci-eold=                    1                   47  -1.0526716336873347       -1.0525886244684144       -8.3009218920349070E-005 F
     orb,it,eci,eold,eci-eold=                    1                   48  -1.0526761899629211       -1.0526716336873347       -4.5562755863759463E-006 F
     orb,it,eci,eold,eci-eold=                    1                   49  -1.0526829362560659       -1.0526761899629211       -6.7462931447881402E-006 F
     orb,it,eci,eold,eci-eold=                    1                   50  -1.0527642492609295       -1.0526829362560659       -8.1313004863581284E-005 F
     orb,it,eci,eold,eci-eold=                    1                   51  -1.0527708617627844       -1.0527642492609295       -6.6125018549634262E-006 F
     orb,it,eci,eold,eci-eold=                    1                   52  -1.0527724882572425       -1.0527708617627844       -1.6264944580068885E-006 F
     orb,it,eci,eold,eci-eold=                    1                   53  -1.0528249536551229       -1.0527724882572425       -5.2465397880396836E-005 F
     orb,it,eci,eold,eci-eold=                    1                   54  -1.0528446666940363       -1.0528249536551229       -1.9713038913460323E-005 F
     orb,it,eci,eold,eci-eold=                    1                   55  -1.0528489533995509       -1.0528446666940363       -4.2867055145556776E-006 F
     orb,it,eci,eold,eci-eold=                    1                   56  -1.0528847289087360       -1.0528489533995509       -3.5775509185098642E-005 F
     orb,it,eci,eold,eci-eold=                    1                   57  -1.0529090874665084       -1.0528847289087360       -2.4358557772385936E-005 F
     orb,it,eci,eold,eci-eold=                    1                   58  -1.0529174384940325       -1.0529090874665084       -8.3510275241671650E-006 F
     orb,it,eci,eold,eci-eold=                    1                   59  -1.0529423056251606       -1.0529174384940325       -2.4867131128036846E-005 F
     orb,it,eci,eold,eci-eold=                    1                   60  -1.0529525196277079       -1.0529423056251606       -1.0214002547304091E-005 F
     orb,it,eci,eold,eci-eold=                    1                   61  -1.0529599093989659       -1.0529525196277079       -7.3897712580262009E-006 F
     orb,it,eci,eold,eci-eold=                    1                   62  -1.0529880863003178       -1.0529599093989659       -2.8176901351928407E-005 F
     orb,it,eci,eold,eci-eold=                    1                   63  -1.0529999320594872       -1.0529880863003178       -1.1845759169348824E-005 F
     orb,it,eci,eold,eci-eold=                    1                   64  -1.0530025680729009       -1.0529999320594872       -2.6360134137703994E-006 F
     orb,it,eci,eold,eci-eold=                    1                   65  -1.0530177305569535       -1.0530025680729009       -1.5162484052533287E-005 F
     orb,it,eci,eold,eci-eold=                    1                   66  -1.0530249955608113       -1.0530177305569535       -7.2650038578370157E-006 F
     orb,it,eci,eold,eci-eold=                    1                   67  -1.0530295913566277       -1.0530249955608113       -4.5957958163533874E-006 F
     orb,it,eci,eold,eci-eold=                    1                   68  -1.0530475060965829       -1.0530295913566277       -1.7914739955271486E-005 F
     orb,it,eci,eold,eci-eold=                    1                   69  -1.0530555563260529       -1.0530475060965829       -8.0502294699247301E-006 F
     orb,it,eci,eold,eci-eold=                    1                   70  -1.0530575470142243       -1.0530555563260529       -1.9906881714160107E-006 F
     orb,it,eci,eold,eci-eold=                    1                   71  -1.0530680563046912       -1.0530575470142243       -1.0509290466975685E-005 F
     orb,it,eci,eold,eci-eold=                    1                   72  -1.0530740791502531       -1.0530680563046912       -6.0228455618371868E-006 F
     orb,it,eci,eold,eci-eold=                    1                   73  -1.0530778580719651       -1.0530740791502531       -3.7789217119943430E-006 F
     orb,it,eci,eold,eci-eold=                    1                   74  -1.0530906008069001       -1.0530778580719651       -1.2742734935011768E-005 F
     orb,it,eci,eold,eci-eold=                    1                   75  -1.0530957689432912       -1.0530906008069001       -5.1681363910649480E-006 F
     orb,it,eci,eold,eci-eold=                    1                   76  -1.0530970156985751       -1.0530957689432912       -1.2467552839012797E-006 F
     orb,it,eci,eold,eci-eold=                    1                   77  -1.0531041583201901       -1.0530970156985751       -7.1426216150527466E-006 F
     orb,it,eci,eold,eci-eold=                    1                   78  -1.0531073427456210       -1.0531041583201901       -3.1844254309021380E-006 F
     orb,it,eci,eold,eci-eold=                    1                   79  -1.0531089525429775       -1.0531073427456210       -1.6097973565276646E-006 F
     orb,it,eci,eold,eci-eold=                    1                   80  -1.0531158767129019       -1.0531089525429775       -6.9241699243161037E-006 F
     orb,it,eci,eold,eci-eold=                    1                   81  -1.0531191277680905       -1.0531158767129019       -3.2510551886133499E-006 F
     orb,it,eci,eold,eci-eold=                    1                   82  -1.0531201865949824       -1.0531191277680905       -1.0588268919420329E-006 F
     orb,it,eci,eold,eci-eold=                    1                   83  -1.0531247865539741       -1.0531201865949824       -4.5999589917133932E-006 F
     orb,it,eci,eold,eci-eold=                    1                   84  -1.0531269675467989       -1.0531247865539741       -2.1809928247851218E-006 F
     orb,it,eci,eold,eci-eold=                    1                   85  -1.0531282248069724       -1.0531269675467989       -1.2572601735261202E-006 F
     orb,it,eci,eold,eci-eold=                    1                   86  -1.0531330712733162       -1.0531282248069724       -4.8464663437997046E-006 F
     orb,it,eci,eold,eci-eold=                    1                   87  -1.0531353060419275       -1.0531330712733162       -2.2347686112755838E-006 F
     orb,it,eci,eold,eci-eold=                    1                   88  -1.0531360013337225       -1.0531353060419275       -6.9529179502758609E-007 F
     orb,it,eci,eold,eci-eold=                    1                   89  -1.0531391402046979       -1.0531360013337225       -3.1388709753610300E-006 F
     orb,it,eci,eold,eci-eold=                    1                   90  -1.0531406152086067       -1.0531391402046979       -1.4750039087907396E-006 F
     orb,it,eci,eold,eci-eold=                    1                   91  -1.0531413946186887       -1.0531406152086067       -7.7941008203019635E-007 F
     orb,it,eci,eold,eci-eold=                    1                   92  -1.0531444712066347       -1.0531413946186887       -3.0765879459604406E-006 F
     orb,it,eci,eold,eci-eold=                    1                   93  -1.0531456989648582       -1.0531444712066347       -1.2277582235320494E-006 F
     orb,it,eci,eold,eci-eold=                    1                   94  -1.0531460102899999       -1.0531456989648582       -3.1132514166642977E-007 F
     orb,it,eci,eold,eci-eold=                    1                   95  -1.0531479588396717       -1.0531460102899999       -1.9485496718374407E-006 F
     orb,it,eci,eold,eci-eold=                    1                   96  -1.0531491131981408       -1.0531479588396717       -1.1543584690354436E-006 F
     orb,it,eci,eold,eci-eold=                    1                   97  -1.0531497239784420       -1.0531491131981408       -6.1078030122452276E-007 F
     orb,it,eci,eold,eci-eold=                    1                   98  -1.0531516726152268       -1.0531497239784420       -1.9486367848209341E-006 F
     orb,it,eci,eold,eci-eold=                    1                   99  -1.0531523487117505       -1.0531516726152268       -6.7609652365518969E-007 F
     orb,it,eci,eold,eci-eold=                    1                  100  -1.0531525698783022       -1.0531523487117505       -2.2116655173931576E-007 F
     orb,it,eci,eold,eci-eold=                    1                  101  -1.0531538719958622       -1.0531525698783022       -1.3021175599980950E-006 F
     orb,it,eci,eold,eci-eold=                    1                  102  -1.0531545036897823       -1.0531538719958622       -6.3169392006123815E-007 F
     orb,it,eci,eold,eci-eold=                    1                  103  -1.0531547853808754       -1.0531545036897823       -2.8169109311804164E-007 F
     orb,it,eci,eold,eci-eold=                    1                  104  -1.0531559969817792       -1.0531547853808754       -1.2116009038276587E-006 F
     orb,it,eci,eold,eci-eold=                    1                  105  -1.0531566751802743       -1.0531559969817792       -6.7819849514094699E-007 F
     orb,it,eci,eold,eci-eold=                    1                  106  -1.0531569591050931       -1.0531566751802743       -2.8392481876693410E-007 F
     orb,it,eci,eold,eci-eold=                    1                  107  -1.0531579006965268       -1.0531569591050931       -9.4159143371186360E-007 F
     orb,it,eci,eold,eci-eold=                    1                  108  -1.0531582140605145       -1.0531579006965268       -3.1336398764736373E-007 F
     orb,it,eci,eold,eci-eold=                    1                  109  -1.0531583413030581       -1.0531582140605145       -1.2724254361273779E-007 F
     orb,it,eci,eold,eci-eold=                    1                  110  -1.0531590577939509       -1.0531583413030581       -7.1649089283809531E-007 F
     orb,it,eci,eold,eci-eold=                    1                  111  -1.0531593851264009       -1.0531590577939509       -3.2733245003413458E-007 F
     orb,it,eci,eold,eci-eold=                    1                  112  -1.0531594983912989       -1.0531593851264009       -1.1326489790519645E-007 F
     orb,it,eci,eold,eci-eold=                    1                  113  -1.0531600509451500       -1.0531594983912989       -5.5255385111863120E-007 F
     orb,it,eci,eold,eci-eold=                    1                  114  -1.0531603749715570       -1.0531600509451500       -3.2402640703921293E-007 F
     orb,it,eci,eold,eci-eold=                    1                  115  -1.0531605442673935       -1.0531603749715570       -1.6929583646074775E-007 F
     orb,it,eci,eold,eci-eold=                    1                  116  -1.0531610887309411       -1.0531605442673935       -5.4446354758042048E-007 F
     orb,it,eci,eold,eci-eold=                    1                  117  -1.0531612616455210       -1.0531610887309411       -1.7291457998780402E-007 F
     orb,it,eci,eold,eci-eold=                    1                  118  -1.0531612997161302       -1.0531612616455210       -3.8070609109652764E-008 F
     orb,it,eci,eold,eci-eold=                    1                  119  -1.0531616244650035       -1.0531612997161302       -3.2474887334821290E-007 F
     orb,it,eci,eold,eci-eold=                    1                  120  -1.0531618171483055       -1.0531616244650035       -1.9268330198052297E-007 F
     orb,it,eci,eold,eci-eold=                    1                  121  -1.0531619170538615       -1.0531618171483055       -9.9905556050217115E-008 F
     orbital   1 current e=  0.106190E+00 error=0.250E+00 (eci= -0.105316192E+01 error=0.999E-07) iterations 121(   0 preconditioned, Ep,Sp= 20.0  200.0)
     orb,it,eci,eold,eci-eold=                    1                    1  -1.0531632926070089       -1.0531619170538615       -1.3755531473869098E-006 F
     orb,it,eci,eold,eci-eold=                    1                    2  -1.0531635640809029       -1.0531632926070089       -2.7147389403125999E-007 F
     orb,it,eci,eold,eci-eold=                    1                    3  -1.0531636909752868       -1.0531635640809029       -1.2689438388946428E-007 F
     orb,it,eci,eold,eci-eold=                    1                    4  -1.0531637281267452       -1.0531636909752868       -3.7151458354145461E-008 F
     orb,it,eci,eold,eci-eold=                    1                    5  -1.0531637397907185       -1.0531637281267452       -1.1663973342734835E-008 F
     orb,it,eci,eold,eci-eold=                    1                    6  -1.0531639709898195       -1.0531637397907185       -2.3119910097513241E-007 F
     orb,it,eci,eold,eci-eold=                    1                    7  -1.0531639894712790       -1.0531639709898195       -1.8481459473917994E-008 F
     orb,it,eci,eold,eci-eold=                    1                    8  -1.0531639938064112       -1.0531639894712790       -4.3351322531748337E-009 F
     orb,it,eci,eold,eci-eold=                    1                    9  -1.0531641413197534       -1.0531639938064112       -1.4751334220797219E-007 F
     orb,it,eci,eold,eci-eold=                    1                   10  -1.0531641413886248       -1.0531641413197534       -6.8871353064992036E-011 F
     orbital   1 current e=  0.106171E+00 error=0.191E-04 (eci= -0.105316414E+01 error=0.689E-10) iterations  10(   0 preconditioned, Ep,Sp= 20.0  200.0)
     orb,it,eci,eold,eci-eold=                    1                    1  -1.0531642095895672       -1.0531641413886248       -6.8200942449081481E-008 F
     orb,it,eci,eold,eci-eold=                    1                    2  -1.0531642493516877       -1.0531642095895672       -3.9762120485065111E-008 F
     orb,it,eci,eold,eci-eold=                    1                    3  -1.0531643793480301       -1.0531642493516877       -1.2999634235733026E-007 F
     orb,it,eci,eold,eci-eold=                    1                    4  -1.0531644247820091       -1.0531643793480301       -4.5433979023457027E-008 F
     orb,it,eci,eold,eci-eold=                    1                    5  -1.0531644281930632       -1.0531644247820091       -3.4110541058396393E-009 F
     orb,it,eci,eold,eci-eold=                    1                    6  -1.0531644316376703       -1.0531644281930632       -3.4446070440452559E-009 F
     orb,it,eci,eold,eci-eold=                    1                    7  -1.0531644537246960       -1.0531644316376703       -2.2087025763894985E-008 F
     orb,it,eci,eold,eci-eold=                    1                    8  -1.0531644622564120       -1.0531644537246960       -8.5317160003484105E-009 F
     orb,it,eci,eold,eci-eold=                    1                    9  -1.0531644630050068       -1.0531644622564120       -7.4859474175070773E-010 F
     orbital   1 current e=  0.106151E+00 error=0.200E-04 (eci= -0.105316446E+01 error=0.749E-09) iterations   9(   0 preconditioned, Ep,Sp= 20.0  200.0)
     orb,it,eci,eold,eci-eold=                    2                    1  -1.0084230911023260       -1.0078941979053024       -5.2889319702353887E-004 F
     orb,it,eci,eold,eci-eold=                    2                    2  -1.0084401798317313       -1.0084230911023260       -1.7088729405312364E-005 F
     orb,it,eci,eold,eci-eold=                    2                    3  -1.0085035732076695       -1.0084401798317313       -6.3393375938192165E-005 F
     orb,it,eci,eold,eci-eold=                    2                    4  -1.0086384003605031       -1.0085035732076695       -1.3482715283363866E-004 F
     orb,it,eci,eold,eci-eold=                    2                    5  -1.0087230917035326       -1.0086384003605031       -8.4691343029463795E-005 F
     orb,it,eci,eold,eci-eold=                    2                    6  -1.0087673992159814       -1.0087230917035326       -4.4307512448771291E-005 F
     orb,it,eci,eold,eci-eold=                    2                    7  -1.0087778518121437       -1.0087673992159814       -1.0452596162391359E-005 F
     orb,it,eci,eold,eci-eold=                    2                    8  -1.0088168977961023       -1.0087778518121437       -3.9045983958541086E-005 F
     orb,it,eci,eold,eci-eold=                    2                    9  -1.0088208664887404       -1.0088168977961023       -3.9686926380788634E-006 F
     orb,it,eci,eold,eci-eold=                    2                   10  -1.0088373715738364       -1.0088208664887404       -1.6505085095985805E-005 F
     orb,it,eci,eold,eci-eold=                    2                   11  -1.0088741032551871       -1.0088373715738364       -3.6731681350765655E-005 F
     orb,it,eci,eold,eci-eold=                    2                   12  -1.0088849870608434       -1.0088741032551871       -1.0883805656280998E-005 F
     orb,it,eci,eold,eci-eold=                    2                   13  -1.0089013117431842       -1.0088849870608434       -1.6324682340806973E-005 F
     orb,it,eci,eold,eci-eold=                    2                   14  -1.0089272912730585       -1.0089013117431842       -2.5979529874264884E-005 F
     orb,it,eci,eold,eci-eold=                    2                   15  -1.0089302443478168       -1.0089272912730585       -2.9530747582828809E-006 F
     orb,it,eci,eold,eci-eold=                    2                   16  -1.0089427462901486       -1.0089302443478168       -1.2501942331821780E-005 F
     orb,it,eci,eold,eci-eold=                    2                   17  -1.0089654867362179       -1.0089427462901486       -2.2740446069313691E-005 F
     orb,it,eci,eold,eci-eold=                    2                   18  -1.0089662868057911       -1.0089654867362179       -8.0006957325906569E-007 F
     orb,it,eci,eold,eci-eold=                    2                   19  -1.0089737528772507       -1.0089662868057911       -7.4660714595164990E-006 F
     orb,it,eci,eold,eci-eold=                    2                   20  -1.0089935235919441       -1.0089737528772507       -1.9770714693390090E-005 F
     orb,it,eci,eold,eci-eold=                    2                   21  -1.0090052597558632       -1.0089935235919441       -1.1736163919140452E-005 F
     orb,it,eci,eold,eci-eold=                    2                   22  -1.0090204809451313       -1.0090052597558632       -1.5221189268110891E-005 F
     orb,it,eci,eold,eci-eold=                    2                   23  -1.0090205708271611       -1.0090204809451313       -8.9882029818966203E-008 F
     orb,it,eci,eold,eci-eold=                    2                   24  -1.0090225295661850       -1.0090205708271611       -1.9587390238662294E-006 F
     orb,it,eci,eold,eci-eold=                    2                   25  -1.0090321622235714       -1.0090225295661850       -9.6326573864047305E-006 F
     orb,it,eci,eold,eci-eold=                    2                   26  -1.0090387327044352       -1.0090321622235714       -6.5704808638322731E-006 F
     orb,it,eci,eold,eci-eold=                    2                   27  -1.0090449492736142       -1.0090387327044352       -6.2165691789850541E-006 F
     orb,it,eci,eold,eci-eold=                    2                   28  -1.0090484528588288       -1.0090449492736142       -3.5035852146148017E-006 F
     orb,it,eci,eold,eci-eold=                    2                   29  -1.0090554677531012       -1.0090484528588288       -7.0148942723502472E-006 F
     orb,it,eci,eold,eci-eold=                    2                   30  -1.0090589795691751       -1.0090554677531012       -3.5118160739422422E-006 F
     orb,it,eci,eold,eci-eold=                    2                   31  -1.0090617008449918       -1.0090589795691751       -2.7212758166861306E-006 F
     orb,it,eci,eold,eci-eold=                    2                   32  -1.0090630870313406       -1.0090617008449918       -1.3861863488173753E-006 F
     orb,it,eci,eold,eci-eold=                    2                   33  -1.0090660946170886       -1.0090630870313406       -3.0075857480049706E-006 F
     orb,it,eci,eold,eci-eold=                    2                   34  -1.0090678985203303       -1.0090660946170886       -1.8039032416705680E-006 F
     orb,it,eci,eold,eci-eold=                    2                   35  -1.0090699079114021       -1.0090678985203303       -2.0093910717555730E-006 F
     orb,it,eci,eold,eci-eold=                    2                   36  -1.0090709792828683       -1.0090699079114021       -1.0713714662102802E-006 F
     orb,it,eci,eold,eci-eold=                    2                   37  -1.0090724993295148       -1.0090709792828683       -1.5200466465525864E-006 F
     orb,it,eci,eold,eci-eold=                    2                   38  -1.0090732828821567       -1.0090724993295148       -7.8355264188090246E-007 F
     orb,it,eci,eold,eci-eold=                    2                   39  -1.0090744329959924       -1.0090732828821567       -1.1501138357239427E-006 F
     orb,it,eci,eold,eci-eold=                    2                   40  -1.0090750937874065       -1.0090744329959924       -6.6079141403108110E-007 F
     orb,it,eci,eold,eci-eold=                    2                   41  -1.0090758171067384       -1.0090750937874065       -7.2331933198555021E-007 F
     orb,it,eci,eold,eci-eold=                    2                   42  -1.0090761737809302       -1.0090758171067384       -3.5667419173712744E-007 F
     orb,it,eci,eold,eci-eold=                    2                   43  -1.0090768146779681       -1.0090761737809302       -6.4089703788461350E-007 F
     orb,it,eci,eold,eci-eold=                    2                   44  -1.0090771918221009       -1.0090768146779681       -3.7714413281264569E-007 F
     orb,it,eci,eold,eci-eold=                    2                   45  -1.0090775717638694       -1.0090771918221009       -3.7994176849132089E-007 F
     orb,it,eci,eold,eci-eold=                    2                   46  -1.0090777482020128       -1.0090775717638694       -1.7643814342882536E-007 F
     orb,it,eci,eold,eci-eold=                    2                   47  -1.0090780589308508       -1.0090777482020128       -3.1072883799332374E-007 F
     orb,it,eci,eold,eci-eold=                    2                   48  -1.0090780606686316       -1.0090780589308508       -1.7377808081420199E-009 F
     orb,it,eci,eold,eci-eold=                    2                   49  -1.0090780907648023       -1.0090780606686316       -3.0096170666737976E-008 F
     orb,it,eci,eold,eci-eold=                    2                   50  -1.0090783049842793       -1.0090780907648023       -2.1421947704602928E-007 F
     orb,it,eci,eold,eci-eold=                    2                   51  -1.0090783138595287       -1.0090783049842793       -8.8752494242783087E-009 F
     orb,it,eci,eold,eci-eold=                    2                   52  -1.0090783284339668       -1.0090783138595287       -1.4574438100822817E-008 F
     orb,it,eci,eold,eci-eold=                    2                   53  -1.0090785874504908       -1.0090783284339668       -2.5901652400683872E-007 F
     orb,it,eci,eold,eci-eold=                    2                   54  -1.0090786572056214       -1.0090785874504908       -6.9755130560622547E-008 F
     orb,it,eci,eold,eci-eold=                    2                   55  -1.0090786750795844       -1.0090786572056214       -1.7873962976366897E-008 F
     orb,it,eci,eold,eci-eold=                    2                   56  -1.0090788529347234       -1.0090786750795844       -1.7785513906076744E-007 F
     orb,it,eci,eold,eci-eold=                    2                   57  -1.0090789463569900       -1.0090788529347234       -9.3422266589371361E-008 F
     orb,it,eci,eold,eci-eold=                    2                   58  -1.0090790329951975       -1.0090789463569900       -8.6638207497102826E-008 F
     orb,it,eci,eold,eci-eold=                    2                   59  -1.0090790780453291       -1.0090790329951975       -4.5050131625146150E-008 F
     orb,it,eci,eold,eci-eold=                    2                   60  -1.0090791556509580       -1.0090790780453291       -7.7605628812094096E-008 F
     orb,it,eci,eold,eci-eold=                    2                   61  -1.0090792001117024       -1.0090791556509580       -4.4460744419438925E-008 F
     orb,it,eci,eold,eci-eold=                    2                   62  -1.0090792538540749       -1.0090792001117024       -5.3742372552179063E-008 F
     orb,it,eci,eold,eci-eold=                    2                   63  -1.0090792818660659       -1.0090792538540749       -2.8011990949039500E-008 F
     orb,it,eci,eold,eci-eold=                    2                   64  -1.0090793239723308       -1.0090792818660659       -4.2106264919183900E-008 F
     orb,it,eci,eold,eci-eold=                    2                   65  -1.0090793492285641       -1.0090793239723308       -2.5256233326942379E-008 F
     orb,it,eci,eold,eci-eold=                    2                   66  -1.0090793864198027       -1.0090793492285641       -3.7191238533296200E-008 F
     orb,it,eci,eold,eci-eold=                    2                   67  -1.0090794065135713       -1.0090793864198027       -2.0093768648976607E-008 F
     orb,it,eci,eold,eci-eold=                    2                   68  -1.0090794304214259       -1.0090794065135713       -2.3907854584948041E-008 F
     orb,it,eci,eold,eci-eold=                    2                   69  -1.0090794422742033       -1.0090794304214259       -1.1852777426213379E-008 F
     orb,it,eci,eold,eci-eold=                    2                   70  -1.0090794612089296       -1.0090794422742033       -1.8934726231378818E-008 F
     orb,it,eci,eold,eci-eold=                    2                   71  -1.0090794724274992       -1.0090794612089296       -1.1218569628823616E-008 F
     orb,it,eci,eold,eci-eold=                    2                   72  -1.0090794861702903       -1.0090794724274992       -1.3742791127313581E-008 F
     orb,it,eci,eold,eci-eold=                    2                   73  -1.0090794929790552       -1.0090794861702903       -6.8087648852355187E-009 F
     orb,it,eci,eold,eci-eold=                    2                   74  -1.0090795027596624       -1.0090794929790552       -9.7806072130168786E-009 F
     orb,it,eci,eold,eci-eold=                    2                   75  -1.0090795084496629       -1.0090795027596624       -5.6900004707927110E-009 F
     orb,it,eci,eold,eci-eold=                    2                   76  -1.0090795166260231       -1.0090795084496629       -8.1763602555184889E-009 F
     orb,it,eci,eold,eci-eold=                    2                   77  -1.0090795209293582       -1.0090795166260231       -4.3033350216603594E-009 F
     orb,it,eci,eold,eci-eold=                    2                   78  -1.0090795257824983       -1.0090795209293582       -4.8531401120044393E-009 F
     orb,it,eci,eold,eci-eold=                    2                   79  -1.0090795281810312       -1.0090795257824983       -2.3985329278275458E-009 F
     orb,it,eci,eold,eci-eold=                    2                   80  -1.0090795324112172       -1.0090795281810312       -4.2301859792814867E-009 F
     orb,it,eci,eold,eci-eold=                    2                   81  -1.0090795329700664       -1.0090795324112172       -5.5884918914728132E-010 F
     orbital   2 current e=  0.609917E+00 error=0.473E+00 (eci= -0.100907953E+01 error=0.559E-09) iterations  81(   0 preconditioned, Ep,Sp= 20.0  200.0)
     orb,it,eci,eold,eci-eold=                    2                    1  -1.0090795440641926       -1.0090795329700664       -1.1094126284305617E-008 F
     orb,it,eci,eold,eci-eold=                    2                    2  -1.0090795468951570       -1.0090795440641926       -2.8309643518298344E-009 F
     orb,it,eci,eold,eci-eold=                    2                    3  -1.0090795468951570       -1.0090795468951570        0.0000000000000000      F
     orbital   2 current e=  0.609903E+00 error=0.143E-04 (eci= -0.100907955E+01 error=0.000E+00) iterations   3(   0 preconditioned, Ep,Sp= 20.0  200.0)
     orb,it,eci,eold,eci-eold=                    2                    1  -1.0090795476286678       -1.0090795464595326       -1.1691352330700511E-009 F
     orb,it,eci,eold,eci-eold=                    2                    2  -1.0090795476286678       -1.0090795476286678        0.0000000000000000      F
     orbital   2 current e=  0.609896E+00 error=0.631E-05 (eci= -0.100907955E+01 error=0.000E+00) iterations   2(   0 preconditioned, Ep,Sp= 20.0  200.0)
     orb,it,eci,eold,eci-eold=                    3                    1  -1.0081572734164026       -1.0078609655496416       -2.9630786676104748E-004 F
     orb,it,eci,eold,eci-eold=                    3                    2  -1.0081683450651617       -1.0081572734164026       -1.1071648759131136E-005 F
     orb,it,eci,eold,eci-eold=                    3                    3  -1.0082373284009476       -1.0081683450651617       -6.8983335785866018E-005 F
     orb,it,eci,eold,eci-eold=                    3                    4  -1.0082400257671966       -1.0082373284009476       -2.6973662490270556E-006 F
     orb,it,eci,eold,eci-eold=                    3                    5  -1.0082500905381866       -1.0082400257671966       -1.0064770989970384E-005 F
     orb,it,eci,eold,eci-eold=                    3                    6  -1.0083017912017196       -1.0082500905381866       -5.1700663532994184E-005 F
     orb,it,eci,eold,eci-eold=                    3                    7  -1.0083225676687455       -1.0083017912017196       -2.0776467025918066E-005 F
     orb,it,eci,eold,eci-eold=                    3                    8  -1.0083425828594113       -1.0083225676687455       -2.0015190665745308E-005 F
     orb,it,eci,eold,eci-eold=                    3                    9  -1.0083821089127225       -1.0083425828594113       -3.9526053311256248E-005 F
     orb,it,eci,eold,eci-eold=                    3                   10  -1.0083925578477655       -1.0083821089127225       -1.0448935042983720E-005 F
     orb,it,eci,eold,eci-eold=                    3                   11  -1.0084045947649900       -1.0083925578477655       -1.2036917224511612E-005 F
     orb,it,eci,eold,eci-eold=                    3                   12  -1.0084325013038669       -1.0084045947649900       -2.7906538876854015E-005 F
     orb,it,eci,eold,eci-eold=                    3                   13  -1.0084398268348949       -1.0084325013038669       -7.3255310280018193E-006 F
     orb,it,eci,eold,eci-eold=                    3                   14  -1.0084481243006442       -1.0084398268348949       -8.2974657493739556E-006 F
     orb,it,eci,eold,eci-eold=                    3                   15  -1.0084684555438148       -1.0084481243006442       -2.0331243170579327E-005 F
     orb,it,eci,eold,eci-eold=                    3                   16  -1.0084730340816228       -1.0084684555438148       -4.5785378079976624E-006 F
     orb,it,eci,eold,eci-eold=                    3                   17  -1.0084783807697892       -1.0084730340816228       -5.3466881664299137E-006 F
     orb,it,eci,eold,eci-eold=                    3                   18  -1.0084932390214072       -1.0084783807697892       -1.4858251617955176E-005 F
     orb,it,eci,eold,eci-eold=                    3                   19  -1.0084961283369183       -1.0084932390214072       -2.8893155110676361E-006 F
     orb,it,eci,eold,eci-eold=                    3                   20  -1.0084991317393193       -1.0084961283369183       -3.0034024010028304E-006 F
     orb,it,eci,eold,eci-eold=                    3                   21  -1.0085097304149842       -1.0084991317393193       -1.0598675664885704E-005 F
     orb,it,eci,eold,eci-eold=                    3                   22  -1.0085120503998111       -1.0085097304149842       -2.3199848269150891E-006 F
     orb,it,eci,eold,eci-eold=                    3                   23  -1.0085137857924411       -1.0085120503998111       -1.7353926300422984E-006 F
     orb,it,eci,eold,eci-eold=                    3                   24  -1.0085211439286965       -1.0085137857924411       -7.3581362554087093E-006 F
     orb,it,eci,eold,eci-eold=                    3                   25  -1.0085232133035118       -1.0085211439286965       -2.0693748152833535E-006 F
     orb,it,eci,eold,eci-eold=                    3                   26  -1.0085244148866397       -1.0085232133035118       -1.2015831278855416E-006 F
     orb,it,eci,eold,eci-eold=                    3                   27  -1.0085293980682253       -1.0085244148866397       -4.9831815855938544E-006 F
     orb,it,eci,eold,eci-eold=                    3                   28  -1.0085310633650275       -1.0085293980682253       -1.6652968022334846E-006 F
     orb,it,eci,eold,eci-eold=                    3                   29  -1.0085320251546135       -1.0085310633650275       -9.6178958597370467E-007 F
     orb,it,eci,eold,eci-eold=                    3                   30  -1.0085354161639739       -1.0085320251546135       -3.3910093604205827E-006 F
     orb,it,eci,eold,eci-eold=                    3                   31  -1.0085365891845992       -1.0085354161639739       -1.1730206253002251E-006 F
     orb,it,eci,eold,eci-eold=                    3                   32  -1.0085373419943964       -1.0085365891845992       -7.5280979716652041E-007 F
     orb,it,eci,eold,eci-eold=                    3                   33  -1.0085396523548447       -1.0085373419943964       -2.3103604482876960E-006 F
     orb,it,eci,eold,eci-eold=                    3                   34  -1.0085404183990758       -1.0085396523548447       -7.6604423115966824E-007 F
     orb,it,eci,eold,eci-eold=                    3                   35  -1.0085409892907120       -1.0085404183990758       -5.7089163618684324E-007 F
     orb,it,eci,eold,eci-eold=                    3                   36  -1.0085425758191182       -1.0085409892907120       -1.5865284062055451E-006 F
     orb,it,eci,eold,eci-eold=                    3                   37  -1.0085430144644714       -1.0085425758191182       -4.3864535315130126E-007 F
     orb,it,eci,eold,eci-eold=                    3                   38  -1.0085434184913427       -1.0085430144644714       -4.0402687129237336E-007 F
     orb,it,eci,eold,eci-eold=                    3                   39  -1.0085445844545946       -1.0085434184913427       -1.1659632519478436E-006 F
     orb,it,eci,eold,eci-eold=                    3                   40  -1.0085447886149896       -1.0085445844545946       -2.0416039503423633E-007 F
     orb,it,eci,eold,eci-eold=                    3                   41  -1.0085449966913231       -1.0085447886149896       -2.0807633349662069E-007 F
     orb,it,eci,eold,eci-eold=                    3                   42  -1.0085459321162029       -1.0085449966913231       -9.3542487977771316E-007 F
     orb,it,eci,eold,eci-eold=                    3                   43  -1.0085461014856107       -1.0085459321162029       -1.6936940783196519E-007 F
     orb,it,eci,eold,eci-eold=                    3                   44  -1.0085461517844787       -1.0085461014856107       -5.0298867959597260E-008 F
     orb,it,eci,eold,eci-eold=                    3                   45  -1.0085468382925140       -1.0085461517844787       -6.8650803530800886E-007 F
     orb,it,eci,eold,eci-eold=                    3                   46  -1.0085471342064745       -1.0085468382925140       -2.9591396044637008E-007 F
     orb,it,eci,eold,eci-eold=                    3                   47  -1.0085472066809473       -1.0085471342064745       -7.2474472867511963E-008 F
     orb,it,eci,eold,eci-eold=                    3                   48  -1.0085476822505206       -1.0085472066809473       -4.7556957327721250E-007 F
     orb,it,eci,eold,eci-eold=                    3                   49  -1.0085478984868137       -1.0085476822505206       -2.1623629309353021E-007 F
     orb,it,eci,eold,eci-eold=                    3                   50  -1.0085479964598361       -1.0085478984868137       -9.7973022361586004E-008 F
     orb,it,eci,eold,eci-eold=                    3                   51  -1.0085483713521375       -1.0085479964598361       -3.7489230142462304E-007 F
     orb,it,eci,eold,eci-eold=                    3                   52  -1.0085484630451027       -1.0085483713521375       -9.1692965220602218E-008 F
     orb,it,eci,eold,eci-eold=                    3                   53  -1.0085485059204295       -1.0085484630451027       -4.2875326844438177E-008 F
     orb,it,eci,eold,eci-eold=                    3                   54  -1.0085488046724915       -1.0085485059204295       -2.9875206197793602E-007 F
     orb,it,eci,eold,eci-eold=                    3                   55  -1.0085489091269908       -1.0085488046724915       -1.0445449927232175E-007 F
     orb,it,eci,eold,eci-eold=                    3                   56  -1.0085489364917715       -1.0085489091269908       -2.7364780663674537E-008 F
     orb,it,eci,eold,eci-eold=                    3                   57  -1.0085491590532367       -1.0085489364917715       -2.2256146525734266E-007 F
     orb,it,eci,eold,eci-eold=                    3                   58  -1.0085492593870968       -1.0085491590532367       -1.0033386010910306E-007 F
     orb,it,eci,eold,eci-eold=                    3                   59  -1.0085492917745222       -1.0085492593870968       -3.2387425408231252E-008 F
     orb,it,eci,eold,eci-eold=                    3                   60  -1.0085494515564060       -1.0085492917745222       -1.5978188372400837E-007 F
     orb,it,eci,eold,eci-eold=                    3                   61  -1.0085494975561360       -1.0085494515564060       -4.5999730025059193E-008 F
     orb,it,eci,eold,eci-eold=                    3                   62  -1.0085495169594989       -1.0085494975561360       -1.9403362916392553E-008 F
     orb,it,eci,eold,eci-eold=                    3                   63  -1.0085496526157931       -1.0085495169594989       -1.3565629419787228E-007 F
     orb,it,eci,eold,eci-eold=                    3                   64  -1.0085496989051956       -1.0085496526157931       -4.6289402533261637E-008 F
     orb,it,eci,eold,eci-eold=                    3                   65  -1.0085497076538197       -1.0085496989051956       -8.7486240474277110E-009 F
     orb,it,eci,eold,eci-eold=                    3                   66  -1.0085498053781137       -1.0085497076538197       -9.7724293990353317E-008 F
     orb,it,eci,eold,eci-eold=                    3                   67  -1.0085498578735432       -1.0085498053781137       -5.2495429558874207E-008 F
     orb,it,eci,eold,eci-eold=                    3                   68  -1.0085498766584449       -1.0085498578735432       -1.8784901634205653E-008 F
     orb,it,eci,eold,eci-eold=                    3                   69  -1.0085499503198745       -1.0085498766584449       -7.3661429622617902E-008 F
     orb,it,eci,eold,eci-eold=                    3                   70  -1.0085499680960064       -1.0085499503198745       -1.7776131899793768E-008 F
     orb,it,eci,eold,eci-eold=                    3                   71  -1.0085499768193762       -1.0085499680960064       -8.7233698042865626E-009 F
     orb,it,eci,eold,eci-eold=                    3                   72  -1.0085500430379053       -1.0085499768193762       -6.6218529104489221E-008 F
     orb,it,eci,eold,eci-eold=                    3                   73  -1.0085500622982542       -1.0085500430379053       -1.9260348871341648E-008 F
     orb,it,eci,eold,eci-eold=                    3                   74  -1.0085500622982542       -1.0085500622982542        0.0000000000000000      F
     orbital   3 current e=  0.569128E+00 error=0.275E+00 (eci= -0.100855006E+01 error=0.000E+00) iterations  74(   0 preconditioned, Ep,Sp= 20.0  200.0)
     orb,it,eci,eold,eci-eold=                    3                    1  -1.0085502074647905       -1.0085500621488799       -1.4531591063793314E-007 F
     orb,it,eci,eold,eci-eold=                    3                    2  -1.0085502286296086       -1.0085502074647905       -2.1164818120311679E-008 F
     orb,it,eci,eold,eci-eold=                    3                    3  -1.0085502546572553       -1.0085502286296086       -2.6027646704562812E-008 F
     orb,it,eci,eold,eci-eold=                    3                    4  -1.0085503138838270       -1.0085502546572553       -5.9226571647030823E-008 F
     orb,it,eci,eold,eci-eold=                    3                    5  -1.0085503252134356       -1.0085503138838270       -1.1329608584631501E-008 F
     orb,it,eci,eold,eci-eold=                    3                    6  -1.0085503278121521       -1.0085503252134356       -2.5987165752638930E-009 F
     orb,it,eci,eold,eci-eold=                    3                    7  -1.0085503439954246       -1.0085503278121521       -1.6183272499858958E-008 F
     orb,it,eci,eold,eci-eold=                    3                    8  -1.0085503468173456       -1.0085503439954246       -2.8219209191604477E-009 F
     orb,it,eci,eold,eci-eold=                    3                    9  -1.0085503553383184       -1.0085503468173456       -8.5209728162283227E-009 F
     orb,it,eci,eold,eci-eold=                    3                   10  -1.0085503672128320       -1.0085503553383184       -1.1874513594634095E-008 F
     orb,it,eci,eold,eci-eold=                    3                   11  -1.0085503731617951       -1.0085503672128320       -5.9489630999109977E-009 F
     orb,it,eci,eold,eci-eold=                    3                   12  -1.0085503778986444       -1.0085503731617951       -4.7368493572008674E-009 F
     orb,it,eci,eold,eci-eold=                    3                   13  -1.0085503805611644       -1.0085503778986444       -2.6625199822660761E-009 F
     orb,it,eci,eold,eci-eold=                    3                   14  -1.0085503841837076       -1.0085503805611644       -3.6225431543357445E-009 F
     orb,it,eci,eold,eci-eold=                    3                   15  -1.0085503841837076       -1.0085503841837076        0.0000000000000000      F
     orbital   3 current e=  0.568388E+00 error=0.741E-03 (eci= -0.100855038E+01 error=0.000E+00) iterations  15(   0 preconditioned, Ep,Sp= 20.0  200.0)
     orb,it,eci,eold,eci-eold=                    3                    1  -1.0085503861992362       -1.0085503832305673       -2.9686688662877714E-009 F
     orb,it,eci,eold,eci-eold=                    3                    2  -1.0085503879816913       -1.0085503861992362       -1.7824550724299115E-009 F
     orb,it,eci,eold,eci-eold=                    3                    3  -1.0085503904036812       -1.0085503879816913       -2.4219899419364310E-009 F
     orb,it,eci,eold,eci-eold=                    3                    4  -1.0085503904036812       -1.0085503904036812        0.0000000000000000      F
     orbital   3 current e=  0.568397E+00 error=0.914E-05 (eci= -0.100855039E+01 error=0.000E+00) iterations   4(   0 preconditioned, Ep,Sp= 20.0  200.0)
     orb,it,eci,eold,eci-eold=                    4                    1  -1.0081574667794955       -1.0078616342479758       -2.9583253151965749E-004 F
     orb,it,eci,eold,eci-eold=                    4                    2  -1.0081679676389612       -1.0081574667794955       -1.0500859465745194E-005 F
     orb,it,eci,eold,eci-eold=                    4                    3  -1.0082366911119598       -1.0081679676389612       -6.8723472998577506E-005 F
     orb,it,eci,eold,eci-eold=                    4                    4  -1.0082406632695944       -1.0082366911119598       -3.9721576345908005E-006 F
     orb,it,eci,eold,eci-eold=                    4                    5  -1.0082511607439004       -1.0082406632695944       -1.0497474306037091E-005 F
     orb,it,eci,eold,eci-eold=                    4                    6  -1.0083027469523385       -1.0082511607439004       -5.1586208438036962E-005 F
     orb,it,eci,eold,eci-eold=                    4                    7  -1.0083232891522258       -1.0083027469523385       -2.0542199887341184E-005 F
     orb,it,eci,eold,eci-eold=                    4                    8  -1.0083432406544119       -1.0083232891522258       -1.9951502186144054E-005 F
     orb,it,eci,eold,eci-eold=                    4                    9  -1.0083826617451845       -1.0083432406544119       -3.9421090772595591E-005 F
     orb,it,eci,eold,eci-eold=                    4                   10  -1.0083930718933047       -1.0083826617451845       -1.0410148120199025E-005 F
     orb,it,eci,eold,eci-eold=                    4                   11  -1.0084051456931857       -1.0083930718933047       -1.2073799880996106E-005 F
     orb,it,eci,eold,eci-eold=                    4                   12  -1.0084331833771163       -1.0084051456931857       -2.8037683930559609E-005 F
     orb,it,eci,eold,eci-eold=                    4                   13  -1.0084403395797792       -1.0084331833771163       -7.1562026628946285E-006 F
     orb,it,eci,eold,eci-eold=                    4                   14  -1.0084485031164934       -1.0084403395797792       -8.1635367141785764E-006 F
     orb,it,eci,eold,eci-eold=                    4                   15  -1.0084688580146222       -1.0084485031164934       -2.0354898128793764E-005 F
     orb,it,eci,eold,eci-eold=                    4                   16  -1.0084734649852130       -1.0084688580146222       -4.6069705907925140E-006 F
     orb,it,eci,eold,eci-eold=                    4                   17  -1.0084788155355833       -1.0084734649852130       -5.3505503703199508E-006 F
     orb,it,eci,eold,eci-eold=                    4                   18  -1.0084935739200152       -1.0084788155355833       -1.4758384431878824E-005 F
     orb,it,eci,eold,eci-eold=                    4                   19  -1.0084963954053086       -1.0084935739200152       -2.8214852934027590E-006 F
     orb,it,eci,eold,eci-eold=                    4                   20  -1.0084994499854214       -1.0084963954053086       -3.0545801128489813E-006 F
     orb,it,eci,eold,eci-eold=                    4                   21  -1.0085099866243958       -1.0084994499854214       -1.0536638974434354E-005 F
     orb,it,eci,eold,eci-eold=                    4                   22  -1.0085121810325424       -1.0085099866243958       -2.1944081465274934E-006 F
     orb,it,eci,eold,eci-eold=                    4                   23  -1.0085138989388760       -1.0085121810325424       -1.7179063336314471E-006 F
     orb,it,eci,eold,eci-eold=                    4                   24  -1.0085212777925301       -1.0085138989388760       -7.3788536540941863E-006 F
     orb,it,eci,eold,eci-eold=                    4                   25  -1.0085233129715236       -1.0085212777925301       -2.0351789935535436E-006 F
     orb,it,eci,eold,eci-eold=                    4                   26  -1.0085244644354745       -1.0085233129715236       -1.1514639508547475E-006 F
     orb,it,eci,eold,eci-eold=                    4                   27  -1.0085294639562039       -1.0085244644354745       -4.9995207294095678E-006 F
     orb,it,eci,eold,eci-eold=                    4                   28  -1.0085311556478431       -1.0085294639562039       -1.6916916392162307E-006 F
     orb,it,eci,eold,eci-eold=                    4                   29  -1.0085320927062946       -1.0085311556478431       -9.3705845150005018E-007 F
     orb,it,eci,eold,eci-eold=                    4                   30  -1.0085354778109918       -1.0085320927062946       -3.3851046972177556E-006 F
     orb,it,eci,eold,eci-eold=                    4                   31  -1.0085366755463707       -1.0085354778109918       -1.1977353788772405E-006 F
     orb,it,eci,eold,eci-eold=                    4                   32  -1.0085374273845500       -1.0085366755463707       -7.5183817926927077E-007 F
     orb,it,eci,eold,eci-eold=                    4                   33  -1.0085397213317688       -1.0085374273845500       -2.2939472188454602E-006 F
     orb,it,eci,eold,eci-eold=                    4                   34  -1.0085404908255426       -1.0085397213317688       -7.6949377381119177E-007 F
     orb,it,eci,eold,eci-eold=                    4                   35  -1.0085410657836402       -1.0085404908255426       -5.7495809757668326E-007 F
     orb,it,eci,eold,eci-eold=                    4                   36  -1.0085426385887928       -1.0085410657836402       -1.5728051525609743E-006 F
     orb,it,eci,eold,eci-eold=                    4                   37  -1.0085430750683879       -1.0085426385887928       -4.3647959513393175E-007 F
     orb,it,eci,eold,eci-eold=                    4                   38  -1.0085434818831454       -1.0085430750683879       -4.0681475743653550E-007 F
     orb,it,eci,eold,eci-eold=                    4                   39  -1.0085446335950754       -1.0085434818831454       -1.1517119300474832E-006 F
     orb,it,eci,eold,eci-eold=                    4                   40  -1.0085448385763345       -1.0085446335950754       -2.0498125907764120E-007 F
     orb,it,eci,eold,eci-eold=                    4                   41  -1.0085450537454335       -1.0085448385763345       -2.1516909898267045E-007 F
     orb,it,eci,eold,eci-eold=                    4                   42  -1.0085459768246010       -1.0085450537454335       -9.2307916754741370E-007 F
     orb,it,eci,eold,eci-eold=                    4                   43  -1.0085461365365336       -1.0085459768246010       -1.5971193256802962E-007 F
     orb,it,eci,eold,eci-eold=                    4                   44  -1.0085461907509259       -1.0085461365365336       -5.4214392308793435E-008 F
     orb,it,eci,eold,eci-eold=                    4                   45  -1.0085468751385529       -1.0085461907509259       -6.8438762701461542E-007 F
     orb,it,eci,eold,eci-eold=                    4                   46  -1.0085471574519174       -1.0085468751385529       -2.8231336446360444E-007 F
     orb,it,eci,eold,eci-eold=                    4                   47  -1.0085472230520940       -1.0085471574519174       -6.5600176624158735E-008 F
     orb,it,eci,eold,eci-eold=                    4                   48  -1.0085476975000807       -1.0085472230520940       -4.7444798667584109E-007 F
     orb,it,eci,eold,eci-eold=                    4                   49  -1.0085479201567371       -1.0085476975000807       -2.2265665644560784E-007 F
     orb,it,eci,eold,eci-eold=                    4                   50  -1.0085480168483909       -1.0085479201567371       -9.6691653794778176E-008 F
     orb,it,eci,eold,eci-eold=                    4                   51  -1.0085483861744216       -1.0085480168483909       -3.6932603064698810E-007 F
     orb,it,eci,eold,eci-eold=                    4                   52  -1.0085484797233630       -1.0085483861744216       -9.3548941482168857E-008 F
     orb,it,eci,eold,eci-eold=                    4                   53  -1.0085485250981385       -1.0085484797233630       -4.5374775492490471E-008 F
     orb,it,eci,eold,eci-eold=                    4                   54  -1.0085488217229983       -1.0085485250981385       -2.9662485978576569E-007 F
     orb,it,eci,eold,eci-eold=                    4                   55  -1.0085489217327499       -1.0085488217229983       -1.0000975159130121E-007 F
     orb,it,eci,eold,eci-eold=                    4                   56  -1.0085489483086585       -1.0085489217327499       -2.6575908584902663E-008 F
     orb,it,eci,eold,eci-eold=                    4                   57  -1.0085491698628157       -1.0085489483086585       -2.2155415724256500E-007 F
     orb,it,eci,eold,eci-eold=                    4                   58  -1.0085492691637898       -1.0085491698628157       -9.9300974110150264E-008 F
     orb,it,eci,eold,eci-eold=                    4                   59  -1.0085493001415979       -1.0085492691637898       -3.0977808096466219E-008 F
     orb,it,eci,eold,eci-eold=                    4                   60  -1.0085494578258867       -1.0085493001415979       -1.5768428873741414E-007 F
     orb,it,eci,eold,eci-eold=                    4                   61  -1.0085495055265321       -1.0085494578258867       -4.7700645433579325E-008 F
     orb,it,eci,eold,eci-eold=                    4                   62  -1.0085495259518087       -1.0085495055265321       -2.0425276581192975E-008 F
     orb,it,eci,eold,eci-eold=                    4                   63  -1.0085496600919348       -1.0085495259518087       -1.3414012611789872E-007 F
     orb,it,eci,eold,eci-eold=                    4                   64  -1.0085497042965628       -1.0085496600919348       -4.4204627958066567E-008 F
     orb,it,eci,eold,eci-eold=                    4                   65  -1.0085497129259000       -1.0085497042965628       -8.6293372447698857E-009 F
     orb,it,eci,eold,eci-eold=                    4                   66  -1.0085498103563855       -1.0085497129259000       -9.7430485457294935E-008 F
     orb,it,eci,eold,eci-eold=                    4                   67  -1.0085498619283420       -1.0085498103563855       -5.1571956483087433E-008 F
     orb,it,eci,eold,eci-eold=                    4                   68  -1.0085498797930958       -1.0085498619283420       -1.7864753898422236E-008 F
     orb,it,eci,eold,eci-eold=                    4                   69  -1.0085499529425035       -1.0085498797930958       -7.3149407642247866E-008 F
     orb,it,eci,eold,eci-eold=                    4                   70  -1.0085499717148165       -1.0085499529425035       -1.8772313037374033E-008 F
     orb,it,eci,eold,eci-eold=                    4                   71  -1.0085499805196725       -1.0085499717148165       -8.8048559554465555E-009 F
     orb,it,eci,eold,eci-eold=                    4                   72  -1.0085500457712724       -1.0085499805196725       -6.5251599901117174E-008 F
     orb,it,eci,eold,eci-eold=                    4                   73  -1.0085500649705066       -1.0085500457712724       -1.9199234202460502E-008 F
     orb,it,eci,eold,eci-eold=                    4                   74  -1.0085500652311046       -1.0085500649705066       -2.6059798763355957E-010 F
     orbital   4 current e=  0.569120E+00 error=0.275E+00 (eci= -0.100855007E+01 error=0.261E-09) iterations  74(   0 preconditioned, Ep,Sp= 20.0  200.0)
     orb,it,eci,eold,eci-eold=                    4                    1  -1.0085502082781967       -1.0085500652311046       -1.4304709217149991E-007 F
     orb,it,eci,eold,eci-eold=                    4                    2  -1.0085502289997257       -1.0085502082781967       -2.0721528937173161E-008 F
     orb,it,eci,eold,eci-eold=                    4                    3  -1.0085502557612727       -1.0085502289997257       -2.6761546978448791E-008 F
     orb,it,eci,eold,eci-eold=                    4                    4  -1.0085503147402686       -1.0085502557612727       -5.8978995909342302E-008 F
     orb,it,eci,eold,eci-eold=                    4                    5  -1.0085503254719059       -1.0085503147402686       -1.0731637356542478E-008 F
     orb,it,eci,eold,eci-eold=                    4                    6  -1.0085503277887011       -1.0085503254719059       -2.3167952001301728E-009 F
     orb,it,eci,eold,eci-eold=                    4                    7  -1.0085503445513675       -1.0085503277887011       -1.6762666366076928E-008 F
     orb,it,eci,eold,eci-eold=                    4                    8  -1.0085503474633368       -1.0085503445513675       -2.9119693323309548E-009 F
     orb,it,eci,eold,eci-eold=                    4                    9  -1.0085503555249500       -1.0085503474633368       -8.0616131548083558E-009 F
     orb,it,eci,eold,eci-eold=                    4                   10  -1.0085503676035588       -1.0085503555249500       -1.2078608779830802E-008 F
     orb,it,eci,eold,eci-eold=                    4                   11  -1.0085503736855626       -1.0085503676035588       -6.0820037894870893E-009 F
     orb,it,eci,eold,eci-eold=                    4                   12  -1.0085503782489997       -1.0085503736855626       -4.5634371836911214E-009 F
     orb,it,eci,eold,eci-eold=                    4                   13  -1.0085503807941836       -1.0085503782489997       -2.5451838414625172E-009 F
     orb,it,eci,eold,eci-eold=                    4                   14  -1.0085503843345800       -1.0085503807941836       -3.5403964204760996E-009 F
     orb,it,eci,eold,eci-eold=                    4                   15  -1.0085503843345800       -1.0085503843345800        0.0000000000000000      F
     orbital   4 current e=  0.568389E+00 error=0.731E-03 (eci= -0.100855038E+01 error=0.000E+00) iterations  15(   0 preconditioned, Ep,Sp= 20.0  200.0)
     orb,it,eci,eold,eci-eold=                    4                    1  -1.0085503862078358       -1.0085503833868437       -2.8209921065780463E-009 F
     orb,it,eci,eold,eci-eold=                    4                    2  -1.0085503878319115       -1.0085503862078358       -1.6240757627628000E-009 F
     orb,it,eci,eold,eci-eold=                    4                    3  -1.0085503905030375       -1.0085503878319115       -2.6711259870637605E-009 F
     orb,it,eci,eold,eci-eold=                    4                    4  -1.0085503905030375       -1.0085503905030375        0.0000000000000000      F
     orbital   4 current e=  0.568398E+00 error=0.847E-05 (eci= -0.100855039E+01 error=0.000E+00) iterations   4(   0 preconditioned, Ep,Sp= 20.0  200.0)
     orb,it,eci,eold,eci-eold=                    5                    1  -1.0061530828856793       -1.0058214294734868       -3.3165341219243416E-004 F
     orb,it,eci,eold,eci-eold=                    5                    2  -1.0062062639569966       -1.0061530828856793       -5.3181071317354167E-005 F
     orb,it,eci,eold,eci-eold=                    5                    3  -1.0062418064924417       -1.0062062639569966       -3.5542535445021173E-005 F
     orb,it,eci,eold,eci-eold=                    5                    4  -1.0062680193840954       -1.0062418064924417       -2.6212891653720760E-005 F
     orb,it,eci,eold,eci-eold=                    5                    5  -1.0062709749760157       -1.0062680193840954       -2.9555919203172465E-006 F
     orb,it,eci,eold,eci-eold=                    5                    6  -1.0062712026369789       -1.0062709749760157       -2.2766096319237761E-007 F
     orb,it,eci,eold,eci-eold=                    5                    7  -1.0063057628637142       -1.0062712026369789       -3.4560226735314004E-005 F
     orb,it,eci,eold,eci-eold=                    5                    8  -1.0063092989534694       -1.0063057628637142       -3.5360897552294546E-006 F
     orb,it,eci,eold,eci-eold=                    5                    9  -1.0063097295061134       -1.0063092989534694       -4.3055264398184079E-007 F
     orb,it,eci,eold,eci-eold=                    5                   10  -1.0063283019125440       -1.0063097295061134       -1.8572406430550359E-005 F
     orb,it,eci,eold,eci-eold=                    5                   11  -1.0063369184019690       -1.0063283019125440       -8.6164894250728707E-006 F
     orb,it,eci,eold,eci-eold=                    5                   12  -1.0063435223550181       -1.0063369184019690       -6.6039530490780152E-006 F
     orb,it,eci,eold,eci-eold=                    5                   13  -1.0063473737694890       -1.0063435223550181       -3.8514144709012044E-006 F
     orb,it,eci,eold,eci-eold=                    5                   14  -1.0063534888481938       -1.0063473737694890       -6.1150787047381527E-006 F
     orb,it,eci,eold,eci-eold=                    5                   15  -1.0063567129861897       -1.0063534888481938       -3.2241379959163652E-006 F
     orb,it,eci,eold,eci-eold=                    5                   16  -1.0063604524086416       -1.0063567129861897       -3.7394224519093910E-006 F
     orb,it,eci,eold,eci-eold=                    5                   17  -1.0063626705621120       -1.0063604524086416       -2.2181534704568406E-006 F
     orb,it,eci,eold,eci-eold=                    5                   18  -1.0063656977843012       -1.0063626705621120       -3.0272221891447515E-006 F
     orb,it,eci,eold,eci-eold=                    5                   19  -1.0063671061686315       -1.0063656977843012       -1.4083843302703514E-006 F
     orb,it,eci,eold,eci-eold=                    5                   20  -1.0063685795474022       -1.0063671061686315       -1.4733787707665869E-006 F
     orb,it,eci,eold,eci-eold=                    5                   21  -1.0063694740662041       -1.0063685795474022       -8.9451880191937505E-007 F
     orb,it,eci,eold,eci-eold=                    5                   22  -1.0063706480202186       -1.0063694740662041       -1.1739540144439786E-006 F
     orb,it,eci,eold,eci-eold=                    5                   23  -1.0063712153282005       -1.0063706480202186       -5.6730798192461407E-007 F
     orb,it,eci,eold,eci-eold=                    5                   24  -1.0063718484150828       -1.0063712153282005       -6.3308688225127696E-007 F
[...]
   16   13   16   16        0.0001721992
   16   13   17   16        0.0000001456
   16   13   18   16        0.0022387595
   16   13   19   16       -0.0000050429
   16   13   17   17        0.0001751092
   16   13   18   17       -0.0000005679
   16   13   19   17        0.0000027120
   16   13   18   18        0.0001192578
   16   13   19   18        0.0000000029
   16   13   19   19        0.0001963429
   17   13   17   13        0.0105004993
   17   13   18   13        0.0000177460
   17   13   19   13       -0.0000000063
   17   13   14   14       -0.0003391456
   17   13   15   14        0.0000079937
   17   13   16   14       -0.0001757536
   17   13   17   14       -0.0000848914
   17   13   18   14        0.0026004359
   17   13   19   14       -0.0000001011
   17   13   15   15       -0.0003199076
   17   13   16   15        0.0000221050
   17   13   17   15        0.0002058036
   17   13   18   15        0.0038728805
   17   13   19   15       -0.0000007053
   17   13   16   16       -0.0001509146
   17   13   17   16       -0.0000001917
   17   13   18   16       -0.0000029674
   17   13   19   16        0.0000027109
   17   13   17   17       -0.0001475406
   17   13   18   17        0.0022472187
   17   13   19   17        0.0000050401
   17   13   18   18       -0.0001027832
   17   13   19   18        0.0000000004
   17   13   19   19       -0.0001655728
   18   13   18   13        0.0109546100
   18   13   19   13        0.0000000073
   18   13   14   14        0.0138750718
   18   13   15   14        0.0000067162
   18   13   16   14        0.0032550225
   18   13   17   14       -0.0022028869
   18   13   18   14        0.0002535343
   18   13   19   14       -0.0000000330
   18   13   15   15        0.0138771568
   18   13   16   15       -0.0021876293
   18   13   17   15       -0.0032602456
   18   13   18   15        0.0000300520
   18   13   19   15       -0.0000000100
   18   13   16   16        0.0171144488
   18   13   17   16       -0.0000014843
   18   13   18   16        0.0000469387
   18   13   19   16        0.0000000050
   18   13   17   17        0.0171215105
   18   13   18   17       -0.0000405847
   18   13   19   17        0.0000000034
   18   13   18   18        0.0164698535
   18   13   19   18       -0.0000000002
   18   13   19   19        0.0099185433
   19   13   19   13        0.0086451843
   19   13   14   14        0.0000051227
   19   13   15   14       -0.0000043757
   19   13   16   14       -0.0000000344
   19   13   17   14       -0.0000000273
   19   13   18   14       -0.0000000066
   19   13   19   14        0.0000372583
   19   13   15   15       -0.0000051410
   19   13   16   15        0.0000000301
   19   13   17   15       -0.0000000381
   19   13   18   15        0.0000000040
   19   13   19   15        0.0000039217
   19   13   16   16        0.0000032577
   19   13   17   16       -0.0000017288
   19   13   18   16       -0.0000000047
   19   13   19   16       -0.0000181593
   19   13   17   17       -0.0000032571
   19   13   18   17        0.0000000012
   19   13   19   17        0.0000155619
   19   13   18   18       -0.0000000047
   19   13   19   18       -0.0022821372
   19   13   19   19        0.0000000000
   14   14   14   14        0.4725379448
   14   14   15   14       -0.0000001949
   14   14   16   14        0.0151049088
   14   14   17   14       -0.0102232754
   14   14   18   14       -0.0008950938
   14   14   19   14       -0.0000011950
   14   14   15   15        0.4359067513
   14   14   16   15       -0.0080110063
   14   14   17   15       -0.0119393839
   14   14   18   15       -0.0000483324
   14   14   19   15        0.0000004922
   14   14   16   16        0.4289981684
   14   14   17   16       -0.0107353725
   14   14   18   16       -0.0003225718
   14   14   19   16        0.0000003217
   14   14   17   17        0.4202867876
   14   14   18   17        0.0001964303
   14   14   19   17        0.0000000377
   14   14   18   18        0.4296968288
   14   14   19   18        0.0000004401
   14   14   19   19        0.4214033875
   15   14   15   14        0.0188956871
   15   14   16   14       -0.0010102877
   15   14   17   14       -0.0015601460
   15   14   18   14       -0.0000250171
   15   14   19   14        0.0000006895
   15   14   15   15        0.0000060898
   15   14   16   15        0.0015516773
   15   14   17   15       -0.0010030808
   15   14   18   15       -0.0002937630
   15   14   19   15        0.0000003891
   15   14   16   16       -0.0109126879
   15   14   17   16       -0.0044513212
   15   14   18   16        0.0001374749
   15   14   19   16        0.0000000014
   15   14   17   17        0.0109137238
   15   14   18   17        0.0002567594
   15   14   19   17        0.0000001708
   15   14   18   18        0.0000024584
   15   14   19   18       -0.0000003792
   15   14   19   19        0.0000002034
   16   14   16   14        0.0115501310
   16   14   17   14       -0.0055615328
   16   14   18   14        0.0000585589
   16   14   19   14        0.0000000450
   16   14   15   15        0.0119028673
   16   14   16   15       -0.0056093540
   16   14   17   15       -0.0050336705
   16   14   18   15       -0.0000659925
   16   14   19   15       -0.0000000063
   16   14   16   16        0.0058548786
   16   14   17   16       -0.0000390105
   16   14   18   16       -0.0000671512
   16   14   19   16        0.0000004893
   16   14   17   17        0.0058716111
   16   14   18   17       -0.0000134674
   16   14   19   17       -0.0000002565
   16   14   18   18        0.0038824095
   16   14   19   18        0.0000000544
   16   14   19   19        0.0065066981
   17   14   17   14        0.0070647000
   17   14   18   14       -0.0000563683
   17   14   19   14        0.0000000155
   17   14   15   15       -0.0079736980
   17   14   16   15        0.0004749200
   17   14   17   15        0.0056112941
   17   14   18   15       -0.0000824368
   17   14   19   15        0.0000000543
   17   14   16   16       -0.0039656620
   17   14   17   16        0.0000464429
   17   14   18   16       -0.0000135359
   17   14   19   16       -0.0000002623
   17   14   17   17       -0.0039355084
   17   14   18   17       -0.0000705673
   17   14   19   17       -0.0000004839
   17   14   18   18       -0.0026158883
   17   14   19   18        0.0000000028
   17   14   19   19       -0.0043830851
   18   14   18   14        0.0186702206
   18   14   19   14       -0.0000000012
   18   14   15   15       -0.0005109803
   18   14   16   15        0.0001021039
   18   14   17   15        0.0001379507
   18   14   18   15       -0.0000007049
   18   14   19   15       -0.0000000017
   18   14   16   16       -0.0005598876
   18   14   17   16       -0.0000134812
   18   14   18   16        0.0017199221
   18   14   19   16        0.0000003691
   18   14   17   17       -0.0005616279
   18   14   18   17       -0.0011575134
   18   14   19   17        0.0000000370
   18   14   18   18       -0.0005448371
   18   14   19   18       -0.0000000071
   18   14   19   19       -0.0003322303
   19   14   19   14        0.0097107188
   19   14   15   15        0.0000005557
   19   14   16   15        0.0000000057
   19   14   17   15        0.0000000027
   19   14   18   15       -0.0000000020
   19   14   19   15       -0.0000000343
   19   14   16   16       -0.0000003514
   19   14   17   16        0.0000001904
   19   14   18   16        0.0000001730
   19   14   19   16       -0.0005313024
   19   14   17   17        0.0000003492
   19   14   18   17        0.0000000198
   19   14   19   17        0.0002816614
   19   14   18   18        0.0000000001
   19   14   19   18        0.0000735692
   19   14   19   19       -0.0000000007
   15   15   15   15        0.4726023788
   15   15   16   15       -0.0102610907
   15   15   17   15       -0.0151338658
   15   15   18   15       -0.0000866618
   15   15   19   15        0.0000001151
   15   15   16   16        0.4203729103
   15   15   17   16        0.0107572151
   15   15   18   16       -0.0000188942
   15   15   19   16       -0.0000000076
   15   15   17   17        0.4289494671
   15   15   18   17        0.0000487529
   15   15   19   17        0.0000000341
   15   15   18   18        0.4297108679
   15   15   19   18       -0.0000004399
   15   15   19   19        0.4214281550
   16   15   16   15        0.0070638621
   16   15   17   15        0.0055717896
   16   15   18   15       -0.0000371723
   16   15   19   15       -0.0000000020
   16   15   16   16       -0.0039305080
   16   15   17   16       -0.0000471665
   16   15   18   16       -0.0000018465
   16   15   19   16        0.0000000502
   16   15   17   17       -0.0039868702
   16   15   18   17        0.0000058895
   16   15   19   17       -0.0000000256
   16   15   18   18       -0.0026308932
   16   15   19   18       -0.0000000028
   16   15   19   19       -0.0043964123
   17   15   17   15        0.0115608767
   17   15   18   15       -0.0000000872
   17   15   19   15        0.0000000048
   17   15   16   16       -0.0058919955
   17   15   17   16       -0.0000471861
   17   15   18   16        0.0000087322
   17   15   19   16       -0.0000000219
   17   15   17   17       -0.0058827037
   17   15   18   17       -0.0000143833
   17   15   19   17       -0.0000000507
   17   15   18   18       -0.0039054886
   17   15   19   18        0.0000000543
   17   15   19   19       -0.0065286336
   18   15   18   15        0.0186841992
   18   15   19   15        0.0000000037
   18   15   16   16       -0.0000493417
   18   15   17   16        0.0000109615
   18   15   18   16       -0.0011601481
   18   15   19   16       -0.0000000371
   18   15   17   17       -0.0000743719
   18   15   18   17       -0.0017193829
   18   15   19   17        0.0000003695
   18   15   18   18       -0.0000598359
   18   15   19   18        0.0000000014
   18   15   19   19       -0.0000342431
   19   15   19   15        0.0097095603
   19   15   16   16       -0.0000000273
   19   15   17   16        0.0000000208
   19   15   18   16       -0.0000000199
   19   15   19   16        0.0002833698
   19   15   17   17        0.0000000272
   19   15   18   17        0.0000001728
   19   15   19   17        0.0005302845
   19   15   18   18        0.0000000082
   19   15   19   18        0.0000092757
   19   15   19   19        0.0000000001
   16   16   16   16        0.5039666655
   16   16   17   16        0.0000352964
   16   16   18   16        0.0000035495
   16   16   19   16       -0.0000000013
   16   16   17   17        0.4634550001
   16   16   18   17       -0.0000010250
   16   16   19   17        0.0000000010
   16   16   18   18        0.4585076706
   16   16   19   18        0.0000007438
   16   16   19   19        0.4519473599
   17   16   17   16        0.0205775424
   17   16   18   16       -0.0000005411
   17   16   19   16       -0.0000000007
   17   16   17   17       -0.0000309752
   17   16   18   17        0.0000006204
   17   16   19   17       -0.0000000006
   17   16   18   18        0.0000011919
   17   16   19   18       -0.0000003984
   17   16   19   19        0.0000023674
   18   16   18   16        0.0184050465
   18   16   19   16        0.0000003784
   18   16   17   17        0.0000025400
   18   16   18   17        0.0000006085
   18   16   19   17       -0.0000002048
   18   16   18   18        0.0000020864
   18   16   19   18       -0.0000000006
   18   16   19   19        0.0000027677
   19   16   19   16        0.0201378200
   19   16   17   17       -0.0000000009
   19   16   18   17       -0.0000002048
   19   16   19   17       -0.0000000691
   19   16   18   18        0.0000000001
   19   16   19   18        0.0000008996
   19   16   19   19       -0.0000000032
   17   17   17   17        0.5037282744
   17   17   18   17       -0.0000014184
   17   17   19   17        0.0000000018
   17   17   18   18        0.4584067361
   17   17   19   18       -0.0000007429
   17   17   19   19        0.4518620543
   18   17   18   17        0.0184094039
   18   17   19   17       -0.0000003784
   18   17   18   18       -0.0000006408
   18   17   19   18        0.0000000004
   18   17   19   19        0.0000076623
   19   17   19   17        0.0201320829
   19   17   18   18        0.0000000010
   19   17   19   18        0.0000050291
   19   17   19   19        0.0000000018
   18   18   18   18        0.4902973262
   18   18   19   18        0.0000000004
   18   18   19   19        0.4247711125
   19   18   19   18        0.0038930880
   19   18   19   19        0.0000000001
   19   19   19   19        0.4641733512
 end_two_electron_integrals


 output epsi filename:./pspw_hf_H2.emovecs

 Total PSPW energy     :  -0.1004261037E+01


=== Spin Contamination ===

 <Sexact^2> =    0.0000000000000000     
 <S^2>      =    0.0000000000000000     



== Center of Charge ==

spin up     (    0.0000,    0.0000,    0.0000 )
spin down   (    0.0000,    0.0000,    0.0000 )
     total  (    0.0000,    0.0000,    0.0000 )
ionic       (    0.0000,    0.0000,    0.0000 )


== Molecular Dipole wrt Center of Mass ==

mu   =  (   -0.0000,   -0.0000,   -0.0000 ) au
|mu| =     0.0000 au,       0.0000 Debye

 output psi filename:./pspw_hf_H2.movecs

 Writing Crystallographic Information File:./H2.cif
   - cell not shifted (nwpw:cif_shift_cell .false.)


== Timing ==

cputime in seconds
  prologue    :   0.680608E+01
  main loop   :   0.471241E+03
  epilogue    :   0.159530E-01
  total       :   0.478063E+03
  cputime/step:   0.365303E+01       (     129 evalulations,      53 linesearches)


Time spent doing                        total          step       percent
  total time                 :   0.478074E+03  0.370600E+01       100.0 %
  i/o time                   :   0.400065E+00  0.310128E-02         0.1 %
  FFTs                       :   0.332710E+03  0.257914E+01        69.6 %
  dot products               :   0.257888E+02  0.199913E+00         5.4 %
  geodesic                   :   0.566161E-01  0.438885E-03         0.0 %
  ffm_dgemm                  :   0.890850E-02  0.690581E-04         0.0 %
  fmf_dgemm                  :   0.583043E-02  0.451972E-04         0.0 %
  mmm_dgemm                  :   0.220426E-02  0.170873E-04         0.0 %
  m_diagonalize              :   0.109889E-02  0.851849E-05         0.0 %
  local pseudopotentials     :   0.579044E+01  0.448871E-01         1.2 %
  non-local pseudopotentials :   0.250353E+02  0.194072E+00         5.2 %
  structure factors          :   0.662056E+00  0.513222E-02         0.1 %
  phase factors              :   0.845000E-05  0.655039E-07         0.0 %
  masking and packing        :   0.152915E+02  0.118539E+00         3.2 %
  queue fft                  :   0.100280E+02  0.777367E-01         2.1 %
  queue fft (serial)         :   0.304023E+01  0.235677E-01         0.6 %
  queue fft (message passing):   0.695010E+01  0.538768E-01         1.5 %
  HFX potential              :   0.402677E+01  0.312152E-01         0.8 %
  non-local psp FFM          :   0.245451E+02  0.190272E+00         5.1 %
  non-local psp FMF          :   0.104342E+00  0.808854E-03         0.0 %
  non-local psp FFM A        :   0.477031E-01  0.369791E-03         0.0 %
  non-local psp FFM B        :   0.152936E+00  0.118555E-02         0.0 %

== HFX Counters ==
  HFX Evalulations         =   129
  Lin ACE HFX Evalulations =     0


     >>>  JOB COMPLETED     AT Sun Apr  6 09:55:41 2025  <<<

 Task  times  cpu:      447.8s     wall:      478.1s


                                NWChem Input Module
                                -------------------


 Summary of allocated global arrays
-----------------------------------
  No active global arrays


MA_summarize_allocated_blocks: starting scan ...
MA_summarize_allocated_blocks: scan completed: 0 heap blocks, 0 stack blocks
MA usage statistics:

	allocation statistics:
					      heap	     stack
					      ----	     -----
	current number of blocks	         0	         0
	maximum number of blocks	       313	        36
	current total bytes		         0	         0
	maximum total bytes		  16802656	   5334792
	maximum total K-bytes		     16803	      5335
	maximum total M-bytes		        17	         6


                                     CITATION
                                     --------
                Please cite the following reference when publishing
                           results obtained with NWChem:

          E. Apra, E. J. Bylaska, W. A. de Jong, N. Govind, K. Kowalski,
       T. P. Straatsma, M. Valiev, H. J. J. van Dam, Y. Alexeev, J. Anchell,
       V. Anisimov, F. W. Aquino, R. Atta-Fynn, J. Autschbach, N. P. Bauman,
     J. C. Becca, D. E. Bernholdt, K. Bhaskaran-Nair, S. Bogatko, P. Borowski,
         J. Boschen, J. Brabec, A. Bruner, E. Cauet, Y. Chen, G. N. Chuev,
      C. J. Cramer, J. Daily, M. J. O. Deegan, T. H. Dunning Jr., M. Dupuis,
   K. G. Dyall, G. I. Fann, S. A. Fischer, A. Fonari, H. Fruchtl, L. Gagliardi,
      J. Garza, N. Gawande, S. Ghosh, K. Glaesemann, A. W. Gotz, J. Hammond,
       V. Helms, E. D. Hermes, K. Hirao, S. Hirata, M. Jacquelin, L. Jensen,
   B. G. Johnson, H. Jonsson, R. A. Kendall, M. Klemm, R. Kobayashi, V. Konkov,
      S. Krishnamoorthy, M. Krishnan, Z. Lin, R. D. Lins, R. J. Littlefield,
      A. J. Logsdail, K. Lopata, W. Ma, A. V. Marenich, J. Martin del Campo,
   D. Mejia-Rodriguez, J. E. Moore, J. M. Mullin, T. Nakajima, D. R. Nascimento,
    J. A. Nichols, P. J. Nichols, J. Nieplocha, A. Otero-de-la-Roza, B. Palmer,
    A. Panyala, T. Pirojsirikul, B. Peng, R. Peverati, J. Pittner, L. Pollack,
   R. M. Richard, P. Sadayappan, G. C. Schatz, W. A. Shelton, D. W. Silverstein,
   D. M. A. Smith, T. A. Soares, D. Song, M. Swart, H. L. Taylor, G. S. Thomas,
            V. Tipparaju, D. G. Truhlar, K. Tsemekhman, T. Van Voorhis,
      A. Vazquez-Mayagoitia, P. Verma, O. Villa, A. Vishnu, K. D. Vogiatzis,
        D. Wang, J. H. Weare, M. J. Williamson, T. L. Windus, K. Wolinski,
        A. T. Wong, Q. Wu, C. Yang, Q. Yu, M. Zacharias, Z. Zhang, Y. Zhao,
                                and R. J. Harrison
                        "NWChem: Past, present, and future
                         J. Chem. Phys. 152, 184102 (2020)
                               doi:10.1063/5.0004997

                                      AUTHORS
                                      -------
  E. Apra, E. J. Bylaska, N. Govind, K. Kowalski, M. Valiev, D. Mejia-Rodriguez,
       A. Kunitsa, N. P. Bauman, A. Panyala, W. A. de Jong, T. P. Straatsma,
   H. J. J. van Dam, D. Wang, T. L. Windus, J. Hammond, J. Autschbach, A. Woods,
    K. Bhaskaran-Nair, J. Brabec, K. Lopata, S. A. Fischer, S. Krishnamoorthy,
     M. Jacquelin, W. Ma, M. Klemm, O. Villa, Y. Chen, V. Anisimov, F. Aquino,
     S. Hirata, M. T. Hackler, E. Hermes, L. Jensen, J. E. Moore, J. C. Becca,
      V. Konjkov, T. Risthaus, M. Malagoli, A. Marenich, A. Otero-de-la-Roza,
        J. Mullin, P. Nichols, R. Peverati, J. Pittner, Y. Zhao, P.-D. Fan,
        A. Fonari, M. J. Williamson, R. J. Harrison, J. R. Rehr, M. Dupuis,
     D. Silverstein, D. M. A. Smith, J. Nieplocha, V. Tipparaju, M. Krishnan,
     B. E. Van Kuiken, A. Vazquez-Mayagoitia, M. Swart, Q. Wu, T. Van Voorhis,
     A. A. Auer, M. Nooijen, L. D. Crosby, E. Brown, G. Cisneros, G. I. Fann,
   H. Fruchtl, J. Garza, K. Hirao, R. A. Kendall, J. A. Nichols, K. Tsemekhman,
    K. Wolinski, J. Anchell, D. E. Bernholdt, P. Borowski, T. Clark, D. Clerc,
   H. Dachsel, M. J. O. Deegan, K. Dyall, D. Elwood, E. Glendening, M. Gutowski,
   A. C. Hess, J. Jaffe, B. G. Johnson, J. Ju, R. Kobayashi, R. Kutteh, Z. Lin,
   R. Littlefield, X. Long, B. Meng, T. Nakajima, S. Niu, L. Pollack, M. Rosing,
   K. Glaesemann, G. Sandrone, M. Stave, H. Taylor, G. Thomas, J. H. van Lenthe,
                               A. T. Wong, Z. Zhang.

 Total times  cpu:      447.8s     wall:      478.2s
