 argument  1 = H2-2.0.nw



============================== echo of input deck ==============================
title "swnc: e theory=pspw4 xc=hf formula=H2 charge=0 mult=1"
#machinejob:expert

echo

start pspw_hf_H2

memory heap 1200 mb stack 1200 mb global 10 mb

charge 0

geometry
H    0.00000    0.00000   -1.00000
H    0.00000    0.00000    1.00000
end

nwpw
  ### pseudopotential block begin ###
  ### pseudopotential block end   ###
  simulation_cell
     SC 15.0000
     boundary_conditions aperiodic
  end

  cutoff 50.0
  mult 1
  xc hf
  lmbfgs
  tolerances 1.0e-9 1.0e-9

  virtual 18
end
set nwpw:cif_filename H2

#set nwpw:CI_maxit_orb 15
#set nwpw:CI_maxit_linesearch 15
set pspw:HFX_screening_radius 14.0


set nwpw:2qintegrals .true.
set nwpw:3x3_virtual .true.

task pspw energy
================================================================================


                                         
                                         


             Northwest Computational Chemistry Package (NWChem) 7.2.3
             --------------------------------------------------------


                    Environmental Molecular Sciences Laboratory
                       Pacific Northwest National Laboratory
                                Richland, WA 99352

                              Copyright (c) 1994-2022
                       Pacific Northwest National Laboratory
                            Battelle Memorial Institute

             NWChem is an open-source computational chemistry package
                        distributed under the terms of the
                      Educational Community License (ECL) 2.0
             A copy of the license is included with this distribution
                              in the LICENSE.TXT file

                                  ACKNOWLEDGMENT
                                  --------------

            This software and its documentation were developed at the
            EMSL at Pacific Northwest National Laboratory, a multiprogram
            national laboratory, operated for the U.S. Department of Energy
            by Battelle under Contract Number DE-AC05-76RL01830. Support
            for this work was provided by the Department of Energy Office
            of Biological and Environmental Research, Office of Basic
            Energy Sciences, and the Office of Advanced Scientific Computing.


           Job information
           ---------------

    hostname        = mqs-al
    program         = nwchem
    date            = Sun Apr  6 09:56:19 2025

    compiled        = Thu_Oct_31_08:55:15_2024
    source          = /home/conda/feedstock_root/build_artifacts/nwchem_1730356057992/work
    nwchem branch   = 7.2.3
    nwchem revision = c400b04
    ga revision     = 5.8.0
    use scalapack   = T
    input           = H2-2.0.nw
    prefix          = pspw_hf_H2.
    data base       = ./pspw_hf_H2.db
    status          = startup
    nproc           =       24
    time left       =     -1s



           Memory information
           ------------------

    heap     =  157286398 doubles =   1200.0 Mbytes
    stack    =  157286395 doubles =   1200.0 Mbytes
    global   =    1310720 doubles =     10.0 Mbytes (distinct from heap & stack)
    total    =  315883513 doubles =   2410.0 Mbytes
    verify   = yes
    hardfail = no 


           Directory information
           ---------------------

  0 permanent = .
  0 scratch   = .




                                NWChem Input Module
                                -------------------


               swnc: e theory=pspw4 xc=hf formula=H2 charge=0 mult=1
               -----------------------------------------------------

 Scaling coordinates for geometry "geometry" by  1.889725989
 (inverse scale =  0.529177249)

  zeroes
  zeroes
  zeroes
  zeroes
  zeroes
  zeroes
  zeroes
  zeroes
  zeroes
  zeroes
  zeroes
  zeroes
  zeroes
  zeroes
  zeroes
  zeroes
  zeroes
  zeroes
  zeroes
  zeroes
  zeroes
  zeroes
  zeroes
  zeroes
  zeroes
  zeroes
  zeroes
  zeroes
  zeroes
  zeroes
  zeroes
  zeroes
  zeroes
  zeroes
  zeroes
  zeroes
  zeroes
  zeroes
  zeroes
  zeroes
  zeroes
  zeroes
  zeroes
  zeroes
  zeroes
  zeroes
  zeroes
  zeroes
 ORDER OF PRIMARY AXIS IS BEING SET TO 4
 D4H symmetry detected

          ------
          auto-z
          ------
     1 autoz failed with cvr_scaling = 1.2 changing to 1.3
     2 autoz failed with cvr_scaling = 1.3 changing to 1.4
     3 autoz failed with cvr_scaling = 1.4 changing to 1.5
     4 autoz failed with cvr_scaling = 1.5 changing to 1.6
     5 autoz failed with cvr_scaling = 1.6 changing to 1.7

 AUTOZ failed to generate good internal coordinates.
 Cartesian coordinates will be used in optimizations.



                             Geometry "geometry" -> ""
                             -------------------------

 Output coordinates in angstroms (scale by  1.889725989 to convert to a.u.)

  No.       Tag          Charge          X              Y              Z
 ---- ---------------- ---------- -------------- -------------- --------------
    1 H                    1.0000     0.00000000     0.00000000    -1.00000000
    2 H                    1.0000     0.00000000     0.00000000     1.00000000

      Atomic Mass 
      ----------- 

      H                  1.007825


 Effective nuclear repulsion energy (a.u.)       0.2645886245

            Nuclear Dipole moment (a.u.) 
            ----------------------------
        X                 Y               Z
 ---------------- ---------------- ----------------
     0.0000000000     0.0000000000     0.0000000000

      Symmetry information
      --------------------

 Group name             D4h       
 Group number             28
 Group order              16
 No. of unique centers     1

      Symmetry unique atoms

     1


            XYZ format geometry
            -------------------
     2
 geometry
 H                     0.00000000     0.00000000    -1.00000000
 H                     0.00000000     0.00000000     1.00000000

          ****************************************************
          *                                                  *
          *               NWPW PSPW Calculation              *
          *                                                  *
          * [ (Grassmann/Stiefel manifold implementation)  ] *
          *                                                  *
          *      [ NorthWest Chemistry implementation ]      *
          *                                                  *
          *            version #5.10   06/12/02              *
          *                                                  *
          *    This code was developed by Eric J. Bylaska,   *
          *    and was based upon algorithms and code        *
          *    developed by the group of Prof. John H. Weare *
          *                                                  *
          ****************************************************
     >>>  JOB STARTED       AT Sun Apr  6 09:56:19 2025  <<<
          ================ input data ========================

 input psi filename:./pspw_hf_H2.movecs

 number of processors used:        24
 processor grid           :  24 x   1
 parallel mapping         :2d-hilbert
 parallel mapping         :  balanced
 number of threads        :         1
 parallel io              :       off

 options:
      boundary conditions  = aperiodic   (version4)
      electron spin        = restricted
      exchange-correlation = Hartree-Fock
      - HFX relaxed
      - HFX restricted orbitals :    1
      - HFX free-space coulomb solver


 elements involved in the cluster:
      1: H   valence charge:  1.0000  lmax=  1
             comment    : Parameterized (Chem.Phys.Lett., vol 322, page 447) Hamman psp
             pseudpotential type            :   0
             highest angular component      :   1
             local potential used           :   1
             number of non-local projections:   1
             aperiodic cutoff radius        :  1.000
             cutoff =   0.800   0.800


 total charge:   0.000

 atomic composition:
     H   :    2

 number of electrons: spin up=     1 (   1 per task)  down=     1 (   1 per task) (Fourier space)
 number of orbitals : spin up=     1 (   1 per task)  down=     1 (   1 per task) (Fourier space)

 supercell:
      cell_name:  cell_default                                      
      lattice:    a1=<  15.000   0.000   0.000 >
                  a2=<   0.000  15.000   0.000 >
                  a3=<   0.000   0.000  15.000 >
      reciprocal: b1=<   0.419   0.000   0.000 >
                  b2=<   0.000   0.419   0.000 >
                  b3=<   0.000   0.000   0.419 >
      lattice:    a=      15.000 b=     15.000 c=      15.000
                  alpha=  90.000 beta=  90.000 gamma=  90.000
                  omega=      3375.0

      density cutoff=100.000  fft= 70x 70x 70(    80618 waves     3359 per task)
      wavefnc cutoff= 50.000  fft= 70x 70x 70(    28526 waves     1188 per task)

 technical parameters:
      time step=      5.80     fictitious mass=  400000.0
      tolerance=0.100E-08 (energy)   0.100E-08 (density)
      maximum iterations =      1000 (   10 inner    100 outer )





== Energy Calculation ==


          ============ Grassmann lmbfgs iteration ============
     >>>  ITERATION STARTED AT Sun Apr  6 09:56:27 2025  <<<
    iter.           Energy         DeltaE       DeltaRho 
    ------------------------------------------------------
      10   -0.9222995116E+00   -0.14169E-02    0.12124E-01
     -  10 steepest descent iterations performed
      20   -0.9258003896E+00   -0.60044E-04    0.41744E-04
      30   -0.9259292879E+00   -0.32586E-05    0.22546E-05
      40   -0.9259371830E+00   -0.11391E-06    0.10909E-06
      50   -0.9259375661E+00   -0.59916E-08    0.61514E-09
      60   -0.9259375833E+00   -0.73452E-09    0.51692E-10
  *** tolerance ok. iteration terminated
     >>>  ITERATION ENDED   AT Sun Apr  6 09:56:33 2025  <<<


==  Summary Of Results  ==

 number of electrons: spin up=    1.00000  down=    1.00000 (real space)

 total     energy    :  -0.9259375833E+00 (   -0.46297E+00/ion)
 total orbital energy:  -0.7793360348E+00 (   -0.77934E+00/electron)
 hartree   energy    :   0.8223803459E+00 (    0.82238E+00/electron)
 exc-corr  energy    :   0.0000000000E+00 (    0.00000E+00/electron)
 HF exchange energy  :  -0.4111901730E+00 (   -0.41119E+00/electron)
 ion-ion   energy    :   0.2645886245E+00 (    0.13229E+00/ion)

 kinetic (planewave) :   0.6284987493E+00 (    0.62850E+00/electron)
 V_local (planewave) :  -0.2076685384E+01 (   -0.20767E+01/electron)
 V_nl    (planewave) :  -0.1535297457E+00 (   -0.15353E+00/electron)
 V_Coul  (planewave) :   0.1644760692E+01 (    0.16448E+01/electron)
 V_xc.   (planewave) :   0.0000000000E+00 (    0.00000E+00/electron)
 K.S. HFX energy     :  -0.8223803459E+00 (   -0.82238E+00/electron)
 Virial Coefficient  :  -0.9315124952E+00

 orbital energies:
    -0.3896680E+00 ( -10.603eV)


== Virtual Orbital Calculation ==


 input epsi filename:./pspw_hf_H2.emovecs

 COVOs Mimimization
 ------------------
CI gradient algorithm =         3
maxit_sweeps          =         3
maxit_orb             =       120
maxit_linesearch      =        15
maxerror              = 0.100E-08

     orb,it,eci,eold,eci-eold=                    1                    1 -0.98525621191979629      -0.97479772389012764       -1.0458488029668644E-002 F
     orb,it,eci,eold,eci-eold=                    1                    2 -0.98970571120256268      -0.98525621191979629       -4.4494992827663893E-003 F
     orb,it,eci,eold,eci-eold=                    1                    3 -0.99337829082103868      -0.98970571120256268       -3.6725796184760018E-003 F
     orb,it,eci,eold,eci-eold=                    1                    4 -0.99541302117974551      -0.99337829082103868       -2.0347303587068266E-003 F
     orb,it,eci,eold,eci-eold=                    1                    5 -0.99787320642519517      -0.99541302117974551       -2.4601852454496642E-003 F
     orb,it,eci,eold,eci-eold=                    1                    6 -0.99915653335199206      -0.99787320642519517       -1.2833269267968905E-003 F
     orb,it,eci,eold,eci-eold=                    1                    7 -0.99982613281540711      -0.99915653335199206       -6.6959946341504928E-004 F
     orb,it,eci,eold,eci-eold=                    1                    8 -0.99985903887677008      -0.99982613281540711       -3.2906061362969474E-005 F
     orb,it,eci,eold,eci-eold=                    1                    9  -1.0007840197963103      -0.99985903887677008       -9.2498091954018591E-004 F
     orb,it,eci,eold,eci-eold=                    1                   10  -1.0017345518497927       -1.0007840197963103       -9.5053205348238912E-004 F
     orb,it,eci,eold,eci-eold=                    1                   11  -1.0023042773380613       -1.0017345518497927       -5.6972548826861313E-004 F
     orb,it,eci,eold,eci-eold=                    1                   12  -1.0029614966495202       -1.0023042773380613       -6.5721931145890089E-004 F
     orb,it,eci,eold,eci-eold=                    1                   13  -1.0032505269381584       -1.0029614966495202       -2.8903028863824787E-004 F
     orb,it,eci,eold,eci-eold=                    1                   14  -1.0039162952589955       -1.0032505269381584       -6.6576832083709014E-004 F
     orb,it,eci,eold,eci-eold=                    1                   15  -1.0041865775070216       -1.0039162952589955       -2.7028224802605472E-004 F
     orb,it,eci,eold,eci-eold=                    1                   16  -1.0043503434862540       -1.0041865775070216       -1.6376597923239977E-004 F
     orb,it,eci,eold,eci-eold=                    1                   17  -1.0047385218615248       -1.0043503434862540       -3.8817837527083121E-004 F
     orb,it,eci,eold,eci-eold=                    1                   18  -1.0050182311968361       -1.0047385218615248       -2.7970933531129560E-004 F
     orb,it,eci,eold,eci-eold=                    1                   19  -1.0054832087465251       -1.0050182311968361       -4.6497754968899407E-004 F
     orb,it,eci,eold,eci-eold=                    1                   20  -1.0055835894166150       -1.0054832087465251       -1.0038067008988349E-004 F
     orb,it,eci,eold,eci-eold=                    1                   21  -1.0056544477393365       -1.0055835894166150       -7.0858322721578659E-005 F
     orb,it,eci,eold,eci-eold=                    1                   22  -1.0058880791302198       -1.0056544477393365       -2.3363139088328211E-004 F
     orb,it,eci,eold,eci-eold=                    1                   23  -1.0058882195456731       -1.0058880791302198       -1.4041545326470839E-007 F
     orb,it,eci,eold,eci-eold=                    1                   24  -1.0059147913579838       -1.0058882195456731       -2.6571812310693943E-005 F
     orb,it,eci,eold,eci-eold=                    1                   25  -1.0061882527658568       -1.0059147913579838       -2.7346140787298800E-004 F
     orb,it,eci,eold,eci-eold=                    1                   26  -1.0063786101340009       -1.0061882527658568       -1.9035736814410065E-004 F
     orb,it,eci,eold,eci-eold=                    1                   27  -1.0064298166882932       -1.0063786101340009       -5.1206554292360096E-005 F
     orb,it,eci,eold,eci-eold=                    1                   28  -1.0065585026200086       -1.0064298166882932       -1.2868593171533327E-004 F
     orb,it,eci,eold,eci-eold=                    1                   29  -1.0065913928812040       -1.0065585026200086       -3.2890261195461790E-005 F
     orb,it,eci,eold,eci-eold=                    1                   30  -1.0066451828432452       -1.0065913928812040       -5.3789962041195238E-005 F
     orb,it,eci,eold,eci-eold=                    1                   31  -1.0068287320809619       -1.0066451828432452       -1.8354923771668474E-004 F
     orb,it,eci,eold,eci-eold=                    1                   32  -1.0068824342044131       -1.0068287320809619       -5.3702123451238037E-005 F
     orb,it,eci,eold,eci-eold=                    1                   33  -1.0068963912424571       -1.0068824342044131       -1.3957038043965753E-005 F
     orb,it,eci,eold,eci-eold=                    1                   34  -1.0069927624167967       -1.0068963912424571       -9.6371174339582311E-005 F
     orb,it,eci,eold,eci-eold=                    1                   35  -1.0070398639423637       -1.0069927624167967       -4.7101525566972668E-005 F
     orb,it,eci,eold,eci-eold=                    1                   36  -1.0070766082950537       -1.0070398639423637       -3.6744352690076809E-005 F
     orb,it,eci,eold,eci-eold=                    1                   37  -1.0071977164364962       -1.0070766082950537       -1.2110814144250526E-004 F
     orb,it,eci,eold,eci-eold=                    1                   38  -1.0072124694592188       -1.0071977164364962       -1.4753022722580056E-005 F
     orb,it,eci,eold,eci-eold=                    1                   39  -1.0072215722169202       -1.0072124694592188       -9.1027577013846894E-006 F
     orb,it,eci,eold,eci-eold=                    1                   40  -1.0073361220768973       -1.0072215722169202       -1.1454985997705336E-004 F
     orb,it,eci,eold,eci-eold=                    1                   41  -1.0074012078746171       -1.0073361220768973       -6.5085797719799388E-005 F
     orb,it,eci,eold,eci-eold=                    1                   42  -1.0074643220863382       -1.0074012078746171       -6.3114211721115865E-005 F
     orb,it,eci,eold,eci-eold=                    1                   43  -1.0075011115095975       -1.0074643220863382       -3.6789423259353526E-005 F
     orb,it,eci,eold,eci-eold=                    1                   44  -1.0075685118197635       -1.0075011115095975       -6.7400310165943722E-005 F
     orb,it,eci,eold,eci-eold=                    1                   45  -1.0076044418232613       -1.0075685118197635       -3.5930003497774976E-005 F
     orb,it,eci,eold,eci-eold=                    1                   46  -1.0076507421959353       -1.0076044418232613       -4.6300372674057400E-005 F
     orb,it,eci,eold,eci-eold=                    1                   47  -1.0076759278044121       -1.0076507421959353       -2.5185608476752108E-005 F
     orb,it,eci,eold,eci-eold=                    1                   48  -1.0077096574668627       -1.0076759278044121       -3.3729662450632247E-005 F
     orb,it,eci,eold,eci-eold=                    1                   49  -1.0077107950556004       -1.0077096574668627       -1.1375887376541272E-006 F
     orb,it,eci,eold,eci-eold=                    1                   50  -1.0077198002151333       -1.0077107950556004       -9.0051595329487810E-006 F
     orb,it,eci,eold,eci-eold=                    1                   51  -1.0077563256337663       -1.0077198002151333       -3.6525418632971096E-005 F
     orb,it,eci,eold,eci-eold=                    1                   52  -1.0077583887002954       -1.0077563256337663       -2.0630665291676564E-006 F
     orb,it,eci,eold,eci-eold=                    1                   53  -1.0077595650168965       -1.0077583887002954       -1.1763166010148041E-006 F
     orb,it,eci,eold,eci-eold=                    1                   54  -1.0077909983440638       -1.0077595650168965       -3.1433327167373903E-005 F
     orb,it,eci,eold,eci-eold=                    1                   55  -1.0077982182052381       -1.0077909983440638       -7.2198611742457786E-006 F
     orb,it,eci,eold,eci-eold=                    1                   56  -1.0078001645633754       -1.0077982182052381       -1.9463581373280192E-006 F
     orb,it,eci,eold,eci-eold=                    1                   57  -1.0078299078308273       -1.0078001645633754       -2.9743267451864952E-005 F
     orb,it,eci,eold,eci-eold=                    1                   58  -1.0078327419146995       -1.0078299078308273       -2.8340838722495931E-006 F
     orb,it,eci,eold,eci-eold=                    1                   59  -1.0078329458495439       -1.0078327419146995       -2.0393484434499953E-007 F
     orb,it,eci,eold,eci-eold=                    1                   60  -1.0078519420151539       -1.0078329458495439       -1.8996165610074556E-005 F
     orb,it,eci,eold,eci-eold=                    1                   61  -1.0078597463937911       -1.0078519420151539       -7.8043786371218005E-006 F
     orb,it,eci,eold,eci-eold=                    1                   62  -1.0078614882418702       -1.0078597463937911       -1.7418480791064894E-006 F
     orb,it,eci,eold,eci-eold=                    1                   63  -1.0078754438598796       -1.0078614882418702       -1.3955618009431348E-005 F
     orb,it,eci,eold,eci-eold=                    1                   64  -1.0078829699022369       -1.0078754438598796       -7.5260423573197954E-006 F
     orb,it,eci,eold,eci-eold=                    1                   65  -1.0078850348161068       -1.0078829699022369       -2.0649138698924929E-006 F
     orb,it,eci,eold,eci-eold=                    1                   66  -1.0078955854757210       -1.0078850348161068       -1.0550659614194657E-005 F
     orb,it,eci,eold,eci-eold=                    1                   67  -1.0079014013983052       -1.0078955854757210       -5.8159225841958317E-006 F
     orb,it,eci,eold,eci-eold=                    1                   68  -1.0079044196364952       -1.0079014013983052       -3.0182381900445421E-006 F
     orb,it,eci,eold,eci-eold=                    1                   69  -1.0079160101085345       -1.0079044196364952       -1.1590472039246791E-005 F
     orb,it,eci,eold,eci-eold=                    1                   70  -1.0079220602944581       -1.0079160101085345       -6.0501859235895239E-006 F
     orb,it,eci,eold,eci-eold=                    1                   71  -1.0079242752393103       -1.0079220602944581       -2.2149448521968651E-006 F
     orb,it,eci,eold,eci-eold=                    1                   72  -1.0079320566432346       -1.0079242752393103       -7.7814039243229161E-006 F
     orb,it,eci,eold,eci-eold=                    1                   73  -1.0079345557160648       -1.0079320566432346       -2.4990728302309861E-006 F
     orb,it,eci,eold,eci-eold=                    1                   74  -1.0079360024250008       -1.0079345557160648       -1.4467089359815333E-006 F
     orb,it,eci,eold,eci-eold=                    1                   75  -1.0079429020902877       -1.0079360024250008       -6.8996652868857922E-006 F
     orb,it,eci,eold,eci-eold=                    1                   76  -1.0079453125990092       -1.0079429020902877       -2.4105087215176013E-006 F
     orb,it,eci,eold,eci-eold=                    1                   77  -1.0079461731652744       -1.0079453125990092       -8.6056626513730805E-007 F
     orb,it,eci,eold,eci-eold=                    1                   78  -1.0079516982176351       -1.0079461731652744       -5.5250523607330848E-006 F
     orb,it,eci,eold,eci-eold=                    1                   79  -1.0079534740036677       -1.0079516982176351       -1.7757860326650388E-006 F
     orb,it,eci,eold,eci-eold=                    1                   80  -1.0079538036289588       -1.0079534740036677       -3.2962529106228544E-007 F
     orb,it,eci,eold,eci-eold=                    1                   81  -1.0079584240067916       -1.0079538036289588       -4.6203778327758016E-006 F
     orb,it,eci,eold,eci-eold=                    1                   82  -1.0079616659434210       -1.0079584240067916       -3.2419366293723328E-006 F
     orb,it,eci,eold,eci-eold=                    1                   83  -1.0079627788153758       -1.0079616659434210       -1.1128719548114674E-006 F
     orb,it,eci,eold,eci-eold=                    1                   84  -1.0079667440474975       -1.0079627788153758       -3.9652321217609199E-006 F
     orb,it,eci,eold,eci-eold=                    1                   85  -1.0079683112252005       -1.0079667440474975       -1.5671777029435674E-006 F
     orb,it,eci,eold,eci-eold=                    1                   86  -1.0079689083179415       -1.0079683112252005       -5.9709274102814902E-007 F
     orb,it,eci,eold,eci-eold=                    1                   87  -1.0079721020145178       -1.0079689083179415       -3.1936965763090797E-006 F
     orb,it,eci,eold,eci-eold=                    1                   88  -1.0079740565195778       -1.0079721020145178       -1.9545050600200398E-006 F
     orb,it,eci,eold,eci-eold=                    1                   89  -1.0079750556942471       -1.0079740565195778       -9.9917466922505582E-007 F
     orb,it,eci,eold,eci-eold=                    1                   90  -1.0079781110239316       -1.0079750556942471       -3.0553296845869937E-006 F
     orb,it,eci,eold,eci-eold=                    1                   91  -1.0079788241674428       -1.0079781110239316       -7.1314351113294094E-007 F
     orb,it,eci,eold,eci-eold=                    1                   92  -1.0079790322995423       -1.0079788241674428       -2.0813209955505840E-007 F
     orb,it,eci,eold,eci-eold=                    1                   93  -1.0079811476976210       -1.0079790322995423       -2.1153980787058657E-006 F
     orb,it,eci,eold,eci-eold=                    1                   94  -1.0079822151480453       -1.0079811476976210       -1.0674504242746963E-006 F
     orb,it,eci,eold,eci-eold=                    1                   95  -1.0079826299397987       -1.0079822151480453       -4.1479175338920982E-007 F
     orb,it,eci,eold,eci-eold=                    1                   96  -1.0079845824554921       -1.0079826299397987       -1.9525156933486443E-006 F
     orb,it,eci,eold,eci-eold=                    1                   97  -1.0079852833315650       -1.0079845824554921       -7.0087607295654664E-007 F
     orb,it,eci,eold,eci-eold=                    1                   98  -1.0079854437340730       -1.0079852833315650       -1.6040250794269184E-007 F
     orb,it,eci,eold,eci-eold=                    1                   99  -1.0079868974648749       -1.0079854437340730       -1.4537308019590967E-006 F
     orb,it,eci,eold,eci-eold=                    1                  100  -1.0079878437268408       -1.0079868974648749       -9.4626196589508993E-007 F
     orb,it,eci,eold,eci-eold=                    1                  101  -1.0079882692159654       -1.0079878437268408       -4.2548912460027566E-007 F
     orb,it,eci,eold,eci-eold=                    1                  102  -1.0079897267154281       -1.0079882692159654       -1.4574994626759263E-006 F
     orb,it,eci,eold,eci-eold=                    1                  103  -1.0079903202577321       -1.0079897267154281       -5.9354230397268282E-007 F
     orb,it,eci,eold,eci-eold=                    1                  104  -1.0079905556772153       -1.0079903202577321       -2.3541948324101725E-007 F
     orb,it,eci,eold,eci-eold=                    1                  105  -1.0079916701612548       -1.0079905556772153       -1.1144840394994304E-006 F
     orb,it,eci,eold,eci-eold=                    1                  106  -1.0079920379935867       -1.0079916701612548       -3.6783233192672071E-007 F
     orb,it,eci,eold,eci-eold=                    1                  107  -1.0079921461734411       -1.0079920379935867       -1.0817985440780831E-007 F
     orb,it,eci,eold,eci-eold=                    1                  108  -1.0079930070064136       -1.0079921461734411       -8.6083297246020152E-007 F
     orb,it,eci,eold,eci-eold=                    1                  109  -1.0079934340427368       -1.0079930070064136       -4.2703632319174289E-007 F
     orb,it,eci,eold,eci-eold=                    1                  110  -1.0079935862888605       -1.0079934340427368       -1.5224612370801083E-007 F
     orb,it,eci,eold,eci-eold=                    1                  111  -1.0079943376049911       -1.0079935862888605       -7.5131613064272074E-007 F
     orb,it,eci,eold,eci-eold=                    1                  112  -1.0079946781332783       -1.0079943376049911       -3.4052828712383132E-007 F
     orb,it,eci,eold,eci-eold=                    1                  113  -1.0079948033910713       -1.0079946781332783       -1.2525779302663409E-007 F
     orb,it,eci,eold,eci-eold=                    1                  114  -1.0079954567732572       -1.0079948033910713       -6.5338218591115549E-007 F
     orb,it,eci,eold,eci-eold=                    1                  115  -1.0079958182557367       -1.0079954567732572       -3.6148247950507084E-007 F
     orb,it,eci,eold,eci-eold=                    1                  116  -1.0079959648813401       -1.0079958182557367       -1.4662560343658981E-007 F
     orb,it,eci,eold,eci-eold=                    1                  117  -1.0079965154596422       -1.0079959648813401       -5.5057830206095559E-007 F
     orb,it,eci,eold,eci-eold=                    1                  118  -1.0079967105326628       -1.0079965154596422       -1.9507302062571341E-007 F
     orb,it,eci,eold,eci-eold=                    1                  119  -1.0079967842841742       -1.0079967105326628       -7.3751511342479148E-008 F
     orb,it,eci,eold,eci-eold=                    1                  120  -1.0079972130676473       -1.0079967842841742       -4.2878347317198973E-007 F
     orb,it,eci,eold,eci-eold=                    1                  121  -1.0079973997871672       -1.0079972130676473       -1.8671951984572388E-007 F
     orbital   1 current e= -0.129475E-01 error=0.158E+00 (eci= -0.100799740E+01 error=0.187E-06) iterations 121(   0 preconditioned, Ep,Sp= 20.0  200.0)
     orb,it,eci,eold,eci-eold=                    1                    1  -1.0079976803454416       -1.0079973997871672       -2.8055827439033010E-007 F
     orb,it,eci,eold,eci-eold=                    1                    2  -1.0079977303917662       -1.0079976803454416       -5.0046324640007356E-008 F
     orb,it,eci,eold,eci-eold=                    1                    3  -1.0079992894777705       -1.0079977303917662       -1.5590860042991039E-006 F
     orb,it,eci,eold,eci-eold=                    1                    4  -1.0079999489297666       -1.0079992894777705       -6.5945199612116312E-007 F
     orb,it,eci,eold,eci-eold=                    1                    5  -1.0080000765179731       -1.0079999489297666       -1.2758820644442892E-007 F
     orb,it,eci,eold,eci-eold=                    1                    6  -1.0080001092931941       -1.0080000765179731       -3.2775220981662301E-008 F
     orb,it,eci,eold,eci-eold=                    1                    7  -1.0080004975709587       -1.0080001092931941       -3.8827776460692576E-007 F
     orb,it,eci,eold,eci-eold=                    1                    8  -1.0080007050136794       -1.0080004975709587       -2.0744272077877213E-007 F
     orb,it,eci,eold,eci-eold=                    1                    9  -1.0080007262084516       -1.0080007050136794       -2.1194772159560671E-008 F
     orb,it,eci,eold,eci-eold=                    1                   10  -1.0080007281560261       -1.0080007262084516       -1.9475745460795224E-009 F
     orb,it,eci,eold,eci-eold=                    1                   11  -1.0080008300857397       -1.0080007281560261       -1.0192971355849068E-007 F
     orb,it,eci,eold,eci-eold=                    1                   12  -1.0080008484221257       -1.0080008300857397       -1.8336385965156410E-008 F
     orb,it,eci,eold,eci-eold=                    1                   13  -1.0080008487556407       -1.0080008484221257       -3.3351499340028568E-010 F
     orbital   1 current e= -0.129492E-01 error=0.166E-05 (eci= -0.100800085E+01 error=0.334E-09) iterations  13(   0 preconditioned, Ep,Sp= 20.0  200.0)
     orb,it,eci,eold,eci-eold=                    1                    1  -1.0080009181524874       -1.0080008487556407       -6.9396846713587479E-008 F
     orb,it,eci,eold,eci-eold=                    1                    2  -1.0080009397687801       -1.0080009181524874       -2.1616292755766153E-008 F
     orb,it,eci,eold,eci-eold=                    1                    3  -1.0080009640584080       -1.0080009397687801       -2.4289627864604313E-008 F
     orb,it,eci,eold,eci-eold=                    1                    4  -1.0080009800200989       -1.0080009640584080       -1.5961690857935196E-008 F
     orb,it,eci,eold,eci-eold=                    1                    5  -1.0080009868466293       -1.0080009800200989       -6.8265304520309655E-009 F
     orb,it,eci,eold,eci-eold=                    1                    6  -1.0080009906745460       -1.0080009868466293       -3.8279166503230044E-009 F
     orb,it,eci,eold,eci-eold=                    1                    7  -1.0080010034851212       -1.0080009906745460       -1.2810575267252489E-008 F
     orb,it,eci,eold,eci-eold=                    1                    8  -1.0080010096016871       -1.0080010034851212       -6.1165659204220901E-009 F
     orb,it,eci,eold,eci-eold=                    1                    9  -1.0080010102469235       -1.0080010096016871       -6.4523630882717953E-010 F
     orbital   1 current e= -0.129542E-01 error=0.501E-05 (eci= -0.100800101E+01 error=0.645E-09) iterations   9(   0 preconditioned, Ep,Sp= 20.0  200.0)
     orb,it,eci,eold,eci-eold=                    2                    1 -0.92915728104725270      -0.92886925111993257       -2.8802992732013255E-004 F
     orb,it,eci,eold,eci-eold=                    2                    2 -0.92921204990369277      -0.92915728104725270       -5.4768856440068348E-005 F
     orb,it,eci,eold,eci-eold=                    2                    3 -0.92924944728141534      -0.92921204990369277       -3.7397377722570013E-005 F
     orb,it,eci,eold,eci-eold=                    2                    4 -0.92925389811251735      -0.92924944728141534       -4.4508311020097224E-006 F
     orb,it,eci,eold,eci-eold=                    2                    5 -0.92933571888522470      -0.92925389811251735       -8.1820772707352774E-005 F
     orb,it,eci,eold,eci-eold=                    2                    6 -0.92939024337808762      -0.92933571888522470       -5.4524492862917384E-005 F
     orb,it,eci,eold,eci-eold=                    2                    7 -0.92941414264382283      -0.92939024337808762       -2.3899265735205510E-005 F
     orb,it,eci,eold,eci-eold=                    2                    8 -0.92942251140149423      -0.92941414264382283       -8.3687576714064349E-006 F
     orb,it,eci,eold,eci-eold=                    2                    9 -0.92946754243159613      -0.92942251140149423       -4.5031030101894132E-005 F
     orb,it,eci,eold,eci-eold=                    2                   10 -0.92947782071858032      -0.92946754243159613       -1.0278286984188867E-005 F
     orb,it,eci,eold,eci-eold=                    2                   11 -0.92948156996428155      -0.92947782071858032       -3.7492457012344715E-006 F
     orb,it,eci,eold,eci-eold=                    2                   12 -0.92951625723026210      -0.92948156996428155       -3.4687265980548609E-005 F
     orb,it,eci,eold,eci-eold=                    2                   13 -0.92953414092813791      -0.92951625723026210       -1.7883697875809013E-005 F
     orb,it,eci,eold,eci-eold=                    2                   14 -0.92955341316421158      -0.92953414092813791       -1.9272236073675231E-005 F
     orb,it,eci,eold,eci-eold=                    2                   15 -0.92956468049978092      -0.92955341316421158       -1.1267335569331571E-005 F
     orb,it,eci,eold,eci-eold=                    2                   16 -0.92958348937449997      -0.92956468049978092       -1.8808874719056234E-005 F
     orb,it,eci,eold,eci-eold=                    2                   17 -0.92959443410880560      -0.92958348937449997       -1.0944734305629034E-005 F
     orb,it,eci,eold,eci-eold=                    2                   18 -0.92960743654358124      -0.92959443410880560       -1.3002434775644112E-005 F
     orb,it,eci,eold,eci-eold=                    2                   19 -0.92961462439440423      -0.92960743654358124       -7.1878508229872295E-006 F
     orb,it,eci,eold,eci-eold=                    2                   20 -0.92962616422924604      -0.92961462439440423       -1.1539834841811647E-005 F
     orb,it,eci,eold,eci-eold=                    2                   21 -0.92963284772029697      -0.92962616422924604       -6.6834910509294687E-006 F
     orb,it,eci,eold,eci-eold=                    2                   22 -0.92964075888429321      -0.92963284772029697       -7.9111639962325953E-006 F
     orb,it,eci,eold,eci-eold=                    2                   23 -0.92964477976147419      -0.92964075888429321       -4.0208771809879806E-006 F
     orb,it,eci,eold,eci-eold=                    2                   24 -0.92965112138711081      -0.92964477976147419       -6.3416256366188861E-006 F
     orb,it,eci,eold,eci-eold=                    2                   25 -0.92965482351605955      -0.92965112138711081       -3.7021289487348952E-006 F
     orb,it,eci,eold,eci-eold=                    2                   26 -0.92965917323151903      -0.92965482351605955       -4.3497154594840381E-006 F
     orb,it,eci,eold,eci-eold=                    2                   27 -0.92966151364321647      -0.92965917323151903       -2.3404116974434785E-006 F
     orb,it,eci,eold,eci-eold=                    2                   28 -0.92966506084497758      -0.92966151364321647       -3.5472017611004603E-006 F
     orb,it,eci,eold,eci-eold=                    2                   29 -0.92966704494181962      -0.92966506084497758       -1.9840968420448135E-006 F
     orb,it,eci,eold,eci-eold=                    2                   30 -0.92966940345864302      -0.92966704494181962       -2.3585168233974940E-006 F
     orb,it,eci,eold,eci-eold=                    2                   31 -0.92967064774304631      -0.92966940345864302       -1.2442844032900524E-006 F
     orb,it,eci,eold,eci-eold=                    2                   32 -0.92967258386901641      -0.92967064774304631       -1.9361259701033973E-006 F
     orb,it,eci,eold,eci-eold=                    2                   33 -0.92967369542588529      -0.92967258386901641       -1.1115568688824240E-006 F
     orb,it,eci,eold,eci-eold=                    2                   34 -0.92967504726127925      -0.92967369542588529       -1.3518353939590000E-006 F
     orb,it,eci,eold,eci-eold=                    2                   35 -0.92967576636428340      -0.92967504726127925       -7.1910300414312900E-007 F
     orb,it,eci,eold,eci-eold=                    2                   36 -0.92967687349815176      -0.92967576636428340       -1.1071338683610321E-006 F
     orb,it,eci,eold,eci-eold=                    2                   37 -0.92967750041780950      -0.92967687349815176       -6.2691965774241964E-007 F
     orb,it,eci,eold,eci-eold=                    2                   38 -0.92967826101300166      -0.92967750041780950       -7.6059519216187255E-007 F
     orb,it,eci,eold,eci-eold=                    2                   39 -0.92967867338042831      -0.92967826101300166       -4.1236742664985115E-007 F
     orb,it,eci,eold,eci-eold=                    2                   40 -0.92967931264445069      -0.92967867338042831       -6.3926402238401181E-007 F
     orb,it,eci,eold,eci-eold=                    2                   41 -0.92967967461258461      -0.92967931264445069       -3.6196813391065064E-007 F
     orb,it,eci,eold,eci-eold=                    2                   42 -0.92968013432684371      -0.92967967461258461       -4.5971425910451558E-007 F
     orb,it,eci,eold,eci-eold=                    2                   43 -0.92968038205597936      -0.92968013432684371       -2.4772913564952148E-007 F
     orb,it,eci,eold,eci-eold=                    2                   44 -0.92968075782596082      -0.92968038205597936       -3.7576998146438001E-007 F
     orb,it,eci,eold,eci-eold=                    2                   45 -0.92968096625939001      -0.92968075782596082       -2.0843342918297481E-007 F
     orb,it,eci,eold,eci-eold=                    2                   46 -0.92968121358645273      -0.92968096625939001       -2.4732706271901606E-007 F
     orb,it,eci,eold,eci-eold=                    2                   47 -0.92968134100308020      -0.92968121358645273       -1.2741662747117743E-007 F
     orb,it,eci,eold,eci-eold=                    2                   48 -0.92968153974379564      -0.92968134100308020       -1.9874071544023764E-007 F
     orb,it,eci,eold,eci-eold=                    2                   49 -0.92968165680902515      -0.92968153974379564       -1.1706522951016041E-007 F
     orb,it,eci,eold,eci-eold=                    2                   50 -0.92968181131437755      -0.92968165680902515       -1.5450535240102425E-007 F
     orb,it,eci,eold,eci-eold=                    2                   51 -0.92968181518445192      -0.92968181131437755       -3.8700743720809783E-009 F
     orb,it,eci,eold,eci-eold=                    2                   52 -0.92968185737815168      -0.92968181518445192       -4.2193699756332137E-008 F
     orb,it,eci,eold,eci-eold=                    2                   53 -0.92968199590110745      -0.92968185737815168       -1.3852295577265750E-007 F
     orb,it,eci,eold,eci-eold=                    2                   54 -0.92968200035668158      -0.92968199590110745       -4.4555741318674791E-009 F
     orb,it,eci,eold,eci-eold=                    2                   55 -0.92968200410193169      -0.92968200035668158       -3.7452501100432301E-009 F
     orb,it,eci,eold,eci-eold=                    2                   56 -0.92968211890623975      -0.92968200410193169       -1.1480430806010133E-007 F
     orb,it,eci,eold,eci-eold=                    2                   57 -0.92968218412896153      -0.92968211890623975       -6.5222721779001347E-008 F
     orb,it,eci,eold,eci-eold=                    2                   58 -0.92968219891551507      -0.92968218412896153       -1.4786553537149416E-008 F
     orb,it,eci,eold,eci-eold=                    2                   59 -0.92968227797596359      -0.92968219891551507       -7.9060448521239834E-008 F
     orb,it,eci,eold,eci-eold=                    2                   60 -0.92968230943119723      -0.92968227797596359       -3.1455233640009794E-008 F
     orb,it,eci,eold,eci-eold=                    2                   61 -0.92968232426902819      -0.92968230943119723       -1.4837830963898568E-008 F
     orb,it,eci,eold,eci-eold=                    2                   62 -0.92968238625814870      -0.92968232426902819       -6.1989120503369577E-008 F
     orb,it,eci,eold,eci-eold=                    2                   63 -0.92968240542207381      -0.92968238625814870       -1.9163925113474534E-008 F
     orb,it,eci,eold,eci-eold=                    2                   64 -0.92968241853749534      -0.92968240542207381       -1.3115421526599391E-008 F
     orb,it,eci,eold,eci-eold=                    2                   65 -0.92968248379482887      -0.92968241853749534       -6.5257333536905548E-008 F
     orb,it,eci,eold,eci-eold=                    2                   66 -0.92968251427235815      -0.92968248379482887       -3.0477529278094551E-008 F
     orb,it,eci,eold,eci-eold=                    2                   67 -0.92968252674833862      -0.92968251427235815       -1.2475980470938453E-008 F
     orb,it,eci,eold,eci-eold=                    2                   68 -0.92968257953018640      -0.92968252674833862       -5.2781847781346869E-008 F
     orb,it,eci,eold,eci-eold=                    2                   69 -0.92968259365481842      -0.92968257953018640       -1.4124632019552052E-008 F
     orb,it,eci,eold,eci-eold=                    2                   70 -0.92968259897436345      -0.92968259365481842       -5.3195450266940725E-009 F
     orb,it,eci,eold,eci-eold=                    2                   71 -0.92968264204499440      -0.92968259897436345       -4.3070630950658995E-008 F
     orb,it,eci,eold,eci-eold=                    2                   72 -0.92968265279784301      -0.92968264204499440       -1.0752848611517152E-008 F
     orb,it,eci,eold,eci-eold=                    2                   73 -0.92968265320047616      -0.92968265279784301       -4.0263314904365188E-010 F
     orbital   2 current e=  0.531011E+00 error=0.254E+00 (eci= -0.929682653E+00 error=0.403E-09) iterations  73(   0 preconditioned, Ep,Sp= 20.0  200.0)
     orb,it,eci,eold,eci-eold=                    2                    1 -0.92968272792394557      -0.92968265320047616       -7.4723469412063537E-008 F
     orb,it,eci,eold,eci-eold=                    2                    2 -0.92968275604860318      -0.92968272792394557       -2.8124657602823788E-008 F
     orb,it,eci,eold,eci-eold=                    2                    3 -0.92968277695099721      -0.92968275604860318       -2.0902394037847216E-008 F
     orb,it,eci,eold,eci-eold=                    2                    4 -0.92968280443716533      -0.92968277695099721       -2.7486168119317256E-008 F
     orb,it,eci,eold,eci-eold=                    2                    5 -0.92968282139249570      -0.92968280443716533       -1.6955330361945187E-008 F
     orb,it,eci,eold,eci-eold=                    2                    6 -0.92968283247180961      -0.92968282139249570       -1.1079313910755673E-008 F
     orb,it,eci,eold,eci-eold=                    2                    7 -0.92968286787822163      -0.92968283247180961       -3.5406412024485689E-008 F
     orb,it,eci,eold,eci-eold=                    2                    8 -0.92968286918711485      -0.92968286787822163       -1.3088932160343347E-009 F
     orb,it,eci,eold,eci-eold=                    2                    9 -0.92968287426069063      -0.92968286918711485       -5.0735757817221838E-009 F
     orb,it,eci,eold,eci-eold=                    2                   10 -0.92968289166188922      -0.92968287426069063       -1.7401198593169909E-008 F
     orb,it,eci,eold,eci-eold=                    2                   11 -0.92968289166188922      -0.92968289166188922        0.0000000000000000      F
     orbital   2 current e=  0.530755E+00 error=0.256E-03 (eci= -0.929682892E+00 error=0.000E+00) iterations  11(   0 preconditioned, Ep,Sp= 20.0  200.0)
     orb,it,eci,eold,eci-eold=                    2                    1 -0.92968289372139667      -0.92968289077047728       -2.9509193977261816E-009 F
     orb,it,eci,eold,eci-eold=                    2                    2 -0.92968289460256825      -0.92968289372139667       -8.8117158014711094E-010 F
     orbital   2 current e=  0.530764E+00 error=0.861E-05 (eci= -0.929682895E+00 error=0.881E-09) iterations   2(   0 preconditioned, Ep,Sp= 20.0  200.0)
     orb,it,eci,eold,eci-eold=                    3                    1 -0.92890509100834007      -0.92875233110292710       -1.5275990541296913E-004 F
     orb,it,eci,eold,eci-eold=                    3                    2 -0.92892024045793398      -0.92890509100834007       -1.5149449593909736E-005 F
     orb,it,eci,eold,eci-eold=                    3                    3 -0.92896917264594214      -0.92892024045793398       -4.8932188008166122E-005 F
     orb,it,eci,eold,eci-eold=                    3                    4 -0.92899349430954492      -0.92896917264594214       -2.4321663602777654E-005 F
     orb,it,eci,eold,eci-eold=                    3                    5 -0.92901535566237747      -0.92899349430954492       -2.1861352832552861E-005 F
     orb,it,eci,eold,eci-eold=                    3                    6 -0.92902522394150866      -0.92901535566237747       -9.8682791311865969E-006 F
     orb,it,eci,eold,eci-eold=                    3                    7 -0.92902888635880698      -0.92902522394150866       -3.6624172983223957E-006 F
     orb,it,eci,eold,eci-eold=                    3                    8 -0.92905921451134454      -0.92902888635880698       -3.0328152537562048E-005 F
     orb,it,eci,eold,eci-eold=                    3                    9 -0.92907042166672527      -0.92905921451134454       -1.1207155380721368E-005 F
     orb,it,eci,eold,eci-eold=                    3                   10 -0.92907139969240482      -0.92907042166672527       -9.7802567955440622E-007 F
     orb,it,eci,eold,eci-eold=                    3                   11 -0.92908772207944612      -0.92907139969240482       -1.6322387041300956E-005 F
     orb,it,eci,eold,eci-eold=                    3                   12 -0.92909534814885042      -0.92908772207944612       -7.6260694042984412E-006 F
     orb,it,eci,eold,eci-eold=                    3                   13 -0.92910021315261648      -0.92909534814885042       -4.8650037660635803E-006 F
     orb,it,eci,eold,eci-eold=                    3                   14 -0.92911646636742695      -0.92910021315261648       -1.6253214810468819E-005 F
     orb,it,eci,eold,eci-eold=                    3                   15 -0.92911733247990680      -0.92911646636742695       -8.6611247984702544E-007 F
     orb,it,eci,eold,eci-eold=                    3                   16 -0.92911768371420134      -0.92911733247990680       -3.5123429453776112E-007 F
     orb,it,eci,eold,eci-eold=                    3                   17 -0.92913087702648567      -0.92911768371420134       -1.3193312284331959E-005 F
     orb,it,eci,eold,eci-eold=                    3                   18 -0.92913621106047173      -0.92913087702648567       -5.3340339860596941E-006 F
     orb,it,eci,eold,eci-eold=                    3                   19 -0.92913690549000938      -0.92913621106047173       -6.9442953765097570E-007 F
     orb,it,eci,eold,eci-eold=                    3                   20 -0.92914687615026970      -0.92913690549000938       -9.9706602603166772E-006 F
     orb,it,eci,eold,eci-eold=                    3                   21 -0.92915096616475079      -0.92914687615026970       -4.0900144810951389E-006 F
     orb,it,eci,eold,eci-eold=                    3                   22 -0.92915206291056562      -0.92915096616475079       -1.0967458148325449E-006 F
     orb,it,eci,eold,eci-eold=                    3                   23 -0.92916020814009992      -0.92915206291056562       -8.1452295342954173E-006 F
     orb,it,eci,eold,eci-eold=                    3                   24 -0.92916243975514656      -0.92916020814009992       -2.2316150466439311E-006 F
     orb,it,eci,eold,eci-eold=                    3                   25 -0.92916293117425786      -0.92916243975514656       -4.9141911129257920E-007 F
     orb,it,eci,eold,eci-eold=                    3                   26 -0.92916954464481161      -0.92916293117425786       -6.6134705537512772E-006 F
     orb,it,eci,eold,eci-eold=                    3                   27 -0.92917161693603778      -0.92916954464481161       -2.0722912261739168E-006 F
     orb,it,eci,eold,eci-eold=                    3                   28 -0.92917187004789525      -0.92917161693603778       -2.5311185747334264E-007 F
     orb,it,eci,eold,eci-eold=                    3                   29 -0.92917706192866001      -0.92917187004789525       -5.1918807647544085E-006 F
     orb,it,eci,eold,eci-eold=                    3                   30 -0.92917903395013435      -0.92917706192866001       -1.9720214743390585E-006 F
     orb,it,eci,eold,eci-eold=                    3                   31 -0.92917938685743273      -0.92917903395013435       -3.5290729838433066E-007 F
     orb,it,eci,eold,eci-eold=                    3                   32 -0.92918354906780554      -0.92917938685743273       -4.1622103728045090E-006 F
     orb,it,eci,eold,eci-eold=                    3                   33 -0.92918501733070369      -0.92918354906780554       -1.4682628981521617E-006 F
     orb,it,eci,eold,eci-eold=                    3                   34 -0.92918532306420043      -0.92918501733070369       -3.0573349674156702E-007 F
     orb,it,eci,eold,eci-eold=                    3                   35 -0.92918868428106760      -0.92918532306420043       -3.3612168671703913E-006 F
     orb,it,eci,eold,eci-eold=                    3                   36 -0.92918977358774835      -0.92918868428106760       -1.0893066807460272E-006 F
     orb,it,eci,eold,eci-eold=                    3                   37 -0.92918996292549449      -0.92918977358774835       -1.8933774614815491E-007 F
     orb,it,eci,eold,eci-eold=                    3                   38 -0.92919267024150687      -0.92918996292549449       -2.7073160123736173E-006 F
     orb,it,eci,eold,eci-eold=                    3                   39 -0.92919357721064499      -0.92919267024150687       -9.0696913812582380E-007 F
     orb,it,eci,eold,eci-eold=                    3                   40 -0.92919369248910233      -0.92919357721064499       -1.1527845733549924E-007 F
     orb,it,eci,eold,eci-eold=                    3                   41 -0.92919584118801968      -0.92919369248910233       -2.1486989173480353E-006 F
     orb,it,eci,eold,eci-eold=                    3                   42 -0.92919663475258840      -0.92919584118801968       -7.9356456872403669E-007 F
     orb,it,eci,eold,eci-eold=                    3                   43 -0.92919674789412821      -0.92919663475258840       -1.1314153980368502E-007 F
     orb,it,eci,eold,eci-eold=                    3                   44 -0.92919844034406984      -0.92919674789412821       -1.6924499416370864E-006 F
     orb,it,eci,eold,eci-eold=                    3                   45 -0.92919904440597778      -0.92919844034406984       -6.0406190793838022E-007 F
     orb,it,eci,eold,eci-eold=                    3                   46 -0.92919914326872388      -0.92919904440597778       -9.8862746100714105E-008 F
     orb,it,eci,eold,eci-eold=                    3                   47 -0.92920049196389098      -0.92919914326872388       -1.3486951671026759E-006 F
     orb,it,eci,eold,eci-eold=                    3                   48 -0.92920093875319176      -0.92920049196389098       -4.4678930077868273E-007 F
     orb,it,eci,eold,eci-eold=                    3                   49 -0.92920099877412088      -0.92920093875319176       -6.0020929115722765E-008 F
     orb,it,eci,eold,eci-eold=                    3                   50 -0.92920207824438417      -0.92920099877412088       -1.0794702632876962E-006 F
     orb,it,eci,eold,eci-eold=                    3                   51 -0.92920246532210116      -0.92920207824438417       -3.8707771699009186E-007 F
     orb,it,eci,eold,eci-eold=                    3                   52 -0.92920251270109555      -0.92920246532210116       -4.7378994394442486E-008 F
     orb,it,eci,eold,eci-eold=                    3                   53 -0.92920336360456168      -0.92920251270109555       -8.5090346613192480E-007 F
     orb,it,eci,eold,eci-eold=                    3                   54 -0.92920368471100390      -0.92920336360456168       -3.2110644221372553E-007 F
     orb,it,eci,eold,eci-eold=                    3                   55 -0.92920373478017060      -0.92920368471100390       -5.0069166701582901E-008 F
     orb,it,eci,eold,eci-eold=                    3                   56 -0.92920440661833359      -0.92920373478017060       -6.7183816299110077E-007 F
     orb,it,eci,eold,eci-eold=                    3                   57 -0.92920463763833083      -0.92920440661833359       -2.3101999724328692E-007 F
     orb,it,eci,eold,eci-eold=                    3                   58 -0.92920467430208664      -0.92920463763833083       -3.6663755809129839E-008 F
     orb,it,eci,eold,eci-eold=                    3                   59 -0.92920521648311571      -0.92920467430208664       -5.4218102907288568E-007 F
     orb,it,eci,eold,eci-eold=                    3                   60 -0.92920539996348717      -0.92920521648311571       -1.8348037145177187E-007 F
     orb,it,eci,eold,eci-eold=                    3                   61 -0.92920542130317796      -0.92920539996348717       -2.1339690792210320E-008 F
     orb,it,eci,eold,eci-eold=                    3                   62 -0.92920585627601926      -0.92920542130317796       -4.3497284130111780E-007 F
     orb,it,eci,eold,eci-eold=                    3                   63 -0.92920602087307169      -0.92920585627601926       -1.6459705243221379E-007 F
     orb,it,eci,eold,eci-eold=                    3                   64 -0.92920604188050859      -0.92920602087307169       -2.1007436901143706E-008 F
     orb,it,eci,eold,eci-eold=                    3                   65 -0.92920638694449376      -0.92920604188050859       -3.4506398516320758E-007 F
     orb,it,eci,eold,eci-eold=                    3                   66 -0.92920651695336998      -0.92920638694449376       -1.3000887622016677E-007 F
     orb,it,eci,eold,eci-eold=                    3                   67 -0.92920653714039203      -0.92920651695336998       -2.0187022053974601E-008 F
     orb,it,eci,eold,eci-eold=                    3                   68 -0.92920680777483833      -0.92920653714039203       -2.7063444629771283E-007 F
     orb,it,eci,eold,eci-eold=                    3                   69 -0.92920689964131209      -0.92920680777483833       -9.1866473761470502E-008 F
     orb,it,eci,eold,eci-eold=                    3                   70 -0.92920691416233947      -0.92920689964131209       -1.4521027380531848E-008 F
     orb,it,eci,eold,eci-eold=                    3                   71 -0.92920713292122481      -0.92920691416233947       -2.1875888533973153E-007 F
     orb,it,eci,eold,eci-eold=                    3                   72 -0.92920721348305613      -0.92920713292122481       -8.0561831317105259E-008 F
     orb,it,eci,eold,eci-eold=                    3                   73 -0.92920722604662243      -0.92920721348305613       -1.2563566298418039E-008 F
     orb,it,eci,eold,eci-eold=                    3                   74 -0.92920739537249342      -0.92920722604662243       -1.6932587099116603E-007 F
     orb,it,eci,eold,eci-eold=                    3                   75 -0.92920744600172733      -0.92920739537249342       -5.0629233916410499E-008 F
     orb,it,eci,eold,eci-eold=                    3                   76 -0.92920744903629449      -0.92920744600172733       -3.0345671531151197E-009 F
     orb,it,eci,eold,eci-eold=                    3                   77 -0.92920757491489492      -0.92920744903629449       -1.2587860043211663E-007 F
     orb,it,eci,eold,eci-eold=                    3                   78 -0.92920762445717386      -0.92920757491489492       -4.9542278945935436E-008 F
     orb,it,eci,eold,eci-eold=                    3                   79 -0.92920763394532968      -0.92920762445717386       -9.4881558165837987E-009 F
     orb,it,eci,eold,eci-eold=                    3                   80 -0.92920774034028430      -0.92920763394532968       -1.0639495462427817E-007 F
     orb,it,eci,eold,eci-eold=                    3                   81 -0.92920778068718213      -0.92920774034028430       -4.0346897822729488E-008 F
     orb,it,eci,eold,eci-eold=                    3                   82 -0.92920778877418497      -0.92920778068718213       -8.0870028451585085E-009 F
     orb,it,eci,eold,eci-eold=                    3                   83 -0.92920787602824551      -0.92920778877418497       -8.7254060532337974E-008 F
     orb,it,eci,eold,eci-eold=                    3                   84 -0.92920790685516486      -0.92920787602824551       -3.0826919350523951E-008 F
     orb,it,eci,eold,eci-eold=                    3                   85 -0.92920791167514016      -0.92920790685516486       -4.8199753077682317E-009 F
     orb,it,eci,eold,eci-eold=                    3                   86 -0.92920798043111130      -0.92920791167514016       -6.8755971138756422E-008 F
     orb,it,eci,eold,eci-eold=                    3                   87 -0.92920800420163174      -0.92920798043111130       -2.3770520440891119E-008 F
     orb,it,eci,eold,eci-eold=                    3                   88 -0.92920800704806905      -0.92920800420163174       -2.8464373080794303E-009 F
     orb,it,eci,eold,eci-eold=                    3                   89 -0.92920806033816050      -0.92920800704806905       -5.3290091450719501E-008 F
     orb,it,eci,eold,eci-eold=                    3                   90 -0.92920807993512922      -0.92920806033816050       -1.9596968714452601E-008 F
     orb,it,eci,eold,eci-eold=                    3                   91 -0.92920808297525703      -0.92920807993512922       -3.0401278161562573E-009 F
     orb,it,eci,eold,eci-eold=                    3                   92 -0.92920812602790170      -0.92920808297525703       -4.3052644671526252E-008 F
     orb,it,eci,eold,eci-eold=                    3                   93 -0.92920813973828864      -0.92920812602790170       -1.3710386936871544E-008 F
     orb,it,eci,eold,eci-eold=                    3                   94 -0.92920814023984333      -0.92920813973828864       -5.0155468667156811E-010 F
     orbital   3 current e=  0.468086E+00 error=0.140E+00 (eci= -0.929208140E+00 error=0.502E-09) iterations  94(   0 preconditioned, Ep,Sp= 20.0  200.0)
     orb,it,eci,eold,eci-eold=                    3                    1 -0.92920816928496330      -0.92920814023984333       -2.9045119975812383E-008 F
     orb,it,eci,eold,eci-eold=                    3                    2 -0.92920818211402501      -0.92920816928496330       -1.2829061701857825E-008 F
     orb,it,eci,eold,eci-eold=                    3                    3 -0.92920828500291797      -0.92920818211402501       -1.0288889296106163E-007 F
     orb,it,eci,eold,eci-eold=                    3                    4 -0.92920832065663295      -0.92920828500291797       -3.5653714980377060E-008 F
     orb,it,eci,eold,eci-eold=                    3                    5 -0.92920832484734039      -0.92920832065663295       -4.1907074477265382E-009 F
     orb,it,eci,eold,eci-eold=                    3                    6 -0.92920832707298817      -0.92920832484734039       -2.2256477771875893E-009 F
     orb,it,eci,eold,eci-eold=                    3                    7 -0.92920834307618283      -0.92920832707298817       -1.6003194658331665E-008 F
     orb,it,eci,eold,eci-eold=                    3                    8 -0.92920834438624189      -0.92920834307618283       -1.3100590612324936E-009 F
     orb,it,eci,eold,eci-eold=                    3                    9 -0.92920834597466995      -0.92920834438624189       -1.5884280557543207E-009 F
     orb,it,eci,eold,eci-eold=                    3                   10 -0.92920835392094969      -0.92920834597466995       -7.9462797453189182E-009 F
     orb,it,eci,eold,eci-eold=                    3                   11 -0.92920835862841189      -0.92920835392094969       -4.7074621978282494E-009 F
     orb,it,eci,eold,eci-eold=                    3                   12 -0.92920836148998487      -0.92920835862841189       -2.8615729785741451E-009 F
     orb,it,eci,eold,eci-eold=                    3                   13 -0.92920836242501570      -0.92920836148998487       -9.3503083054002900E-010 F
     orbital   3 current e=  0.467670E+00 error=0.416E-03 (eci= -0.929208362E+00 error=0.935E-09) iterations  13(   0 preconditioned, Ep,Sp= 20.0  200.0)
     orb,it,eci,eold,eci-eold=                    3                    1 -0.92920836384738603      -0.92920836242501570       -1.4223703326265991E-009 F
     orb,it,eci,eold,eci-eold=                    3                    2 -0.92920836384738603      -0.92920836384738603        0.0000000000000000      F
     orbital   3 current e=  0.467661E+00 error=0.933E-05 (eci= -0.929208364E+00 error=0.000E+00) iterations   2(   0 preconditioned, Ep,Sp= 20.0  200.0)
     orb,it,eci,eold,eci-eold=                    4                    1 -0.92890515426494669      -0.92875233236508736       -1.5282189985932337E-004 F
     orb,it,eci,eold,eci-eold=                    4                    2 -0.92892031245007689      -0.92890515426494669       -1.5158185130204060E-005 F
     orb,it,eci,eold,eci-eold=                    4                    3 -0.92896926099106358      -0.92892031245007689       -4.8948540986692990E-005 F
     orb,it,eci,eold,eci-eold=                    4                    4 -0.92899359158599359      -0.92896926099106358       -2.4330594930010996E-005 F
     orb,it,eci,eold,eci-eold=                    4                    5 -0.92901542632349943      -0.92899359158599359       -2.1834737505832535E-005 F
     orb,it,eci,eold,eci-eold=                    4                    6 -0.92902526363714732      -0.92901542632349943       -9.8373136478979717E-006 F
     orb,it,eci,eold,eci-eold=                    4                    7 -0.92902893417731536      -0.92902526363714732       -3.6705401680325878E-006 F
     orb,it,eci,eold,eci-eold=                    4                    8 -0.92905930751307353      -0.92902893417731536       -3.0373335758171471E-005 F
     orb,it,eci,eold,eci-eold=                    4                    9 -0.92907045625022300      -0.92905930751307353       -1.1148737149468957E-005 F
     orb,it,eci,eold,eci-eold=                    4                   10 -0.92907137419803898      -0.92907045625022300       -9.1794781598153463E-007 F
     orb,it,eci,eold,eci-eold=                    4                   11 -0.92908772123609173      -0.92907137419803898       -1.6347038052755281E-005 F
     orb,it,eci,eold,eci-eold=                    4                   12 -0.92909541570793053      -0.92908772123609173       -7.6944718387927935E-006 F
     orb,it,eci,eold,eci-eold=                    4                   13 -0.92910026902814935      -0.92909541570793053       -4.8533202188227875E-006 F
     orb,it,eci,eold,eci-eold=                    4                   14 -0.92911650221767450      -0.92910026902814935       -1.6233189525149960E-005 F
     orb,it,eci,eold,eci-eold=                    4                   15 -0.92911741846355267      -0.92911650221767450       -9.1624587816863112E-007 F
     orb,it,eci,eold,eci-eold=                    4                   16 -0.92911780229410446      -0.92911741846355267       -3.8383055178670134E-007 F
     orb,it,eci,eold,eci-eold=                    4                   17 -0.92913098989002485      -0.92911780229410446       -1.3187595920394202E-005 F
     orb,it,eci,eold,eci-eold=                    4                   18 -0.92913627902615481      -0.92913098989002485       -5.2891361299600703E-006 F
     orb,it,eci,eold,eci-eold=                    4                   19 -0.92913697645720905      -0.92913627902615481       -6.9743105424180385E-007 F
     orb,it,eci,eold,eci-eold=                    4                   20 -0.92914695159103899      -0.92913697645720905       -9.9751338299425285E-006 F
     orb,it,eci,eold,eci-eold=                    4                   21 -0.92915101240783349      -0.92914695159103899       -4.0608167944933271E-006 F
     orb,it,eci,eold,eci-eold=                    4                   22 -0.92915208833498841      -0.92915101240783349       -1.0759271549254379E-006 F
     orb,it,eci,eold,eci-eold=                    4                   23 -0.92916023280872873      -0.92915208833498841       -8.1444737403124634E-006 F
     orb,it,eci,eold,eci-eold=                    4                   24 -0.92916248382927991      -0.92916023280872873       -2.2510205511805381E-006 F
     orb,it,eci,eold,eci-eold=                    4                   25 -0.92916297149303395      -0.92916248382927991       -4.8766375404518669E-007 F
     orb,it,eci,eold,eci-eold=                    4                   26 -0.92916957763683505      -0.92916297149303395       -6.6061438011022489E-006 F
     orb,it,eci,eold,eci-eold=                    4                   27 -0.92917166287885578      -0.92916957763683505       -2.0852420207218003E-006 F
     orb,it,eci,eold,eci-eold=                    4                   28 -0.92917192397993520      -0.92917166287885578       -2.6110107942400873E-007 F
     orb,it,eci,eold,eci-eold=                    4                   29 -0.92917711094369992      -0.92917192397993520       -5.1869637647250499E-006 F
     orb,it,eci,eold,eci-eold=                    4                   30 -0.92917907336252092      -0.92917711094369992       -1.9624188209999005E-006 F
     orb,it,eci,eold,eci-eold=                    4                   31 -0.92917942788707675      -0.92917907336252092       -3.5452455582341003E-007 F
     orb,it,eci,eold,eci-eold=                    4                   32 -0.92918358724899974      -0.92917942788707675       -4.1593619229951528E-006 F
     orb,it,eci,eold,eci-eold=                    4                   33 -0.92918505025447851      -0.92918358724899974       -1.4630054787634350E-006 F
     orb,it,eci,eold,eci-eold=                    4                   34 -0.92918535416435721      -0.92918505025447851       -3.0390987870720920E-007 F
     orb,it,eci,eold,eci-eold=                    4                   35 -0.92918871064532982      -0.92918535416435721       -3.3564809726049916E-006 F
     orb,it,eci,eold,eci-eold=                    4                   36 -0.92918980243341853      -0.92918871064532982       -1.0917880887140186E-006 F
     orb,it,eci,eold,eci-eold=                    4                   37 -0.92918999317789819      -0.92918980243341853       -1.9074447965561347E-007 F
     orb,it,eci,eold,eci-eold=                    4                   38 -0.92919269415198491      -0.92918999317789819       -2.7009740867223186E-006 F
     orb,it,eci,eold,eci-eold=                    4                   39 -0.92919360093236381      -0.92919269415198491       -9.0678037889535545E-007 F
     orb,it,eci,eold,eci-eold=                    4                   40 -0.92919371930070171      -0.92919360093236381       -1.1836833790912493E-007 F
     orb,it,eci,eold,eci-eold=                    4                   41 -0.92919586337384907      -0.92919371930070171       -2.1440731473587604E-006 F
     orb,it,eci,eold,eci-eold=                    4                   42 -0.92919665292150688      -0.92919586337384907       -7.8954765780903102E-007 F
     orb,it,eci,eold,eci-eold=                    4                   43 -0.92919676672625418      -0.92919665292150688       -1.1380474729261181E-007 F
     orb,it,eci,eold,eci-eold=                    4                   44 -0.92919845479524465      -0.92919676672625418       -1.6880689904796853E-006 F
     orb,it,eci,eold,eci-eold=                    4                   45 -0.92919905828786764      -0.92919845479524465       -6.0349262298586837E-007 F
     orb,it,eci,eold,eci-eold=                    4                   46 -0.92919915812716569      -0.92919905828786764       -9.9839298051129788E-008 F
     orb,it,eci,eold,eci-eold=                    4                   47 -0.92920050184092240      -0.92919915812716569       -1.3437137567073876E-006 F
     orb,it,eci,eold,eci-eold=                    4                   48 -0.92920094866004810      -0.92920050184092240       -4.4681912569899396E-007 F
     orb,it,eci,eold,eci-eold=                    4                   49 -0.92920101099305696      -0.92920094866004810       -6.2333008865600448E-008 F
     orb,it,eci,eold,eci-eold=                    4                   50 -0.92920208733897158      -0.92920101099305696       -1.0763459146190257E-006 F
     orb,it,eci,eold,eci-eold=                    4                   51 -0.92920247084856933      -0.92920208733897158       -3.8350959774557936E-007 F
     orb,it,eci,eold,eci-eold=                    4                   52 -0.92920251812515486      -0.92920247084856933       -4.7276585535271920E-008 F
     orb,it,eci,eold,eci-eold=                    4                   53 -0.92920336725447217      -0.92920251812515486       -8.4912931730407593E-007 F
     orb,it,eci,eold,eci-eold=                    4                   54 -0.92920368822308808      -0.92920336725447217       -3.2096861590780179E-007 F
     orb,it,eci,eold,eci-eold=                    4                   55 -0.92920373796991473      -0.92920368822308808       -4.9746826658036980E-008 F
     orb,it,eci,eold,eci-eold=                    4                   56 -0.92920440793356107      -0.92920373796991473       -6.6996364633808980E-007 F
     orb,it,eci,eold,eci-eold=                    4                   57 -0.92920464086372645      -0.92920440793356107       -2.3293016537806466E-007 F
     orb,it,eci,eold,eci-eold=                    4                   58 -0.92920467882750790      -0.92920464086372645       -3.7963781451821887E-008 F
     orb,it,eci,eold,eci-eold=                    4                   59 -0.92920521941456169      -0.92920467882750790       -5.4058705378778882E-007 F
     orb,it,eci,eold,eci-eold=                    4                   60 -0.92920540174407307      -0.92920521941456169       -1.8232951137786557E-007 F
     orb,it,eci,eold,eci-eold=                    4                   61 -0.92920542375507620      -0.92920540174407307       -2.2011003131261475E-008 F
     orb,it,eci,eold,eci-eold=                    4                   62 -0.92920585832760927      -0.92920542375507620       -4.3457253307011001E-007 F
     orb,it,eci,eold,eci-eold=                    4                   63 -0.92920602141986786      -0.92920585832760927       -1.6309225858712750E-007 F
     orb,it,eci,eold,eci-eold=                    4                   64 -0.92920604179105803      -0.92920602141986786       -2.0371190179169218E-008 F
     orb,it,eci,eold,eci-eold=                    4                   65 -0.92920638670409073      -0.92920604179105803       -3.4491303269046369E-007 F
     orb,it,eci,eold,eci-eold=                    4                   66 -0.92920651741000260      -0.92920638670409073       -1.3070591187158698E-007 F
     orb,it,eci,eold,eci-eold=                    4                   67 -0.92920653740443271      -0.92920651741000260       -1.9994430111580641E-008 F
     orb,it,eci,eold,eci-eold=                    4                   68 -0.92920680795598054      -0.92920653740443271       -2.7055154783184321E-007 F
     orb,it,eci,eold,eci-eold=                    4                   69 -0.92920690046043086      -0.92920680795598054       -9.2504450321939657E-008 F
     orb,it,eci,eold,eci-eold=                    4                   70 -0.92920691516519405      -0.92920690046043086       -1.4704763184880676E-008 F
     orb,it,eci,eold,eci-eold=                    4                   71 -0.92920713395134624      -0.92920691516519405       -2.1878615219517172E-007 F
     orb,it,eci,eold,eci-eold=                    4                   72 -0.92920721446500776      -0.92920713395134624       -8.0513661515624335E-008 F
     orb,it,eci,eold,eci-eold=                    4                   73 -0.92920722709940562      -0.92920721446500776       -1.2634397861255309E-008 F
     orb,it,eci,eold,eci-eold=                    4                   74 -0.92920739647307404      -0.92920722709940562       -1.6937366842384449E-007 F
     orb,it,eci,eold,eci-eold=                    4                   75 -0.92920744697915481      -0.92920739647307404       -5.0506080762069416E-008 F
     orb,it,eci,eold,eci-eold=                    4                   76 -0.92920744997380766      -0.92920744697915481       -2.9946528590230059E-009 F
     orb,it,eci,eold,eci-eold=                    4                   77 -0.92920757579363256      -0.92920744997380766       -1.2581982489212606E-007 F
     orb,it,eci,eold,eci-eold=                    4                   78 -0.92920762537007440      -0.92920757579363256       -4.9576441840670782E-008 F
     orb,it,eci,eold,eci-eold=                    4                   79 -0.92920763489823965      -0.92920762537007440       -9.5281652567891229E-009 F
     orb,it,eci,eold,eci-eold=                    4                   80 -0.92920774117971683      -0.92920763489823965       -1.0628147717461900E-007 F
     orb,it,eci,eold,eci-eold=                    4                   81 -0.92920778147502903      -0.92920774117971683       -4.0295312198068700E-008 F
     orb,it,eci,eold,eci-eold=                    4                   82 -0.92920778961056749      -0.92920778147502903       -8.1355384651260465E-009 F
     orb,it,eci,eold,eci-eold=                    4                   83 -0.92920787672479821      -0.92920778961056749       -8.7114230717943997E-008 F
     orb,it,eci,eold,eci-eold=                    4                   84 -0.92920790744478898      -0.92920787672479821       -3.0719990773420136E-008 F
     orb,it,eci,eold,eci-eold=                    4                   85 -0.92920791228623345      -0.92920790744478898       -4.8414444675515256E-009 F
     orb,it,eci,eold,eci-eold=                    4                   86 -0.92920798091673329      -0.92920791228623345       -6.8630499838739922E-008 F
     orb,it,eci,eold,eci-eold=                    4                   87 -0.92920800462943776      -0.92920798091673329       -2.3712704466660739E-008 F
     orb,it,eci,eold,eci-eold=                    4                   88 -0.92920800748613930      -0.92920800462943776       -2.8567015419866948E-009 F
     orb,it,eci,eold,eci-eold=                    4                   89 -0.92920806065196793      -0.92920800748613930       -5.3165828628465306E-008 F
     orb,it,eci,eold,eci-eold=                    4                   90 -0.92920808025075741      -0.92920806065196793       -1.9598789480212986E-008 F
     orb,it,eci,eold,eci-eold=                    4                   91 -0.92920808333099458      -0.92920808025075741       -3.0802371764337977E-009 F
     orb,it,eci,eold,eci-eold=                    4                   92 -0.92920812627557803      -0.92920808333099458       -4.2944583444892714E-008 F
     orb,it,eci,eold,eci-eold=                    4                   93 -0.92920813994568974      -0.92920812627557803       -1.3670111709274124E-008 F
     orb,it,eci,eold,eci-eold=                    4                   94 -0.92920814047513312      -0.92920813994568974       -5.2944337802784958E-010 F
     orbital   4 current e=  0.468086E+00 error=0.140E+00 (eci= -0.929208140E+00 error=0.529E-09) iterations  94(   0 preconditioned, Ep,Sp= 20.0  200.0)
     orb,it,eci,eold,eci-eold=                    4                    1 -0.92920816925359262      -0.92920814047513312       -2.8778459504330556E-008 F
     orb,it,eci,eold,eci-eold=                    4                    2 -0.92920818176343889      -0.92920816925359262       -1.2509846269992408E-008 F
     orb,it,eci,eold,eci-eold=                    4                    3 -0.92920828494578867      -0.92920818176343889       -1.0318234977546581E-007 F
     orb,it,eci,eold,eci-eold=                    4                    4 -0.92920832058729552      -0.92920828494578867       -3.5641506856975980E-008 F
     orb,it,eci,eold,eci-eold=                    4                    5 -0.92920832480277193      -0.92920832058729552       -4.2154764123836230E-009 F
     orb,it,eci,eold,eci-eold=                    4                    6 -0.92920832709827805      -0.92920832480277193       -2.2955061185214731E-009 F
[...]
   16   13   16   16        0.0001045052
   16   13   17   16       -0.0000137153
   16   13   18   16        0.0019780189
   16   13   19   16        0.0000000080
   16   13   17   17        0.0000985162
   16   13   18   17        0.0000039538
   16   13   19   17        0.0000000001
   16   13   18   18        0.0000042805
   16   13   19   18       -0.0000000007
   16   13   19   19       -0.0000133838
   17   13   17   13        0.0192017243
   17   13   18   13        0.0000231145
   17   13   19   13        0.0000000071
   17   13   14   14       -0.0001449790
   17   13   15   14        0.0001403123
   17   13   16   14       -0.0006767590
   17   13   17   14       -0.0021380714
   17   13   18   14        0.0000264403
   17   13   19   14       -0.0000000040
   17   13   15   15        0.0000853513
   17   13   16   15        0.0023229010
   17   13   17   15       -0.0007655237
   17   13   18   15       -0.0000672495
   17   13   19   15        0.0000000019
   17   13   16   16       -0.0000877235
   17   13   17   16        0.0000143484
   17   13   18   16        0.0000034360
   17   13   19   16        0.0000000006
   17   13   17   17       -0.0001071159
   17   13   18   17        0.0020104212
   17   13   19   17       -0.0000000117
   17   13   18   18       -0.0000020427
   17   13   19   18       -0.0000000013
   17   13   19   19        0.0000161699
   18   13   18   13        0.0180454300
   18   13   19   13       -0.0000000005
   18   13   14   14       -0.0032494835
   18   13   15   14       -0.0000001967
   18   13   16   14        0.0000334402
   18   13   17   14        0.0000061024
   18   13   18   14       -0.0000396769
   18   13   19   14       -0.0000015624
   18   13   15   15       -0.0032736044
   18   13   16   15       -0.0000581346
   18   13   17   15        0.0001534306
   18   13   18   15        0.0000125509
   18   13   19   15       -0.0000016439
   18   13   16   16       -0.0008361000
   18   13   17   16        0.0000618579
   18   13   18   16       -0.0000049849
   18   13   19   16       -0.0000000005
   18   13   17   17       -0.0009337080
   18   13   18   17       -0.0000054064
   18   13   19   17       -0.0000000140
   18   13   18   18        0.0111009651
   18   13   19   18       -0.0000000132
   18   13   19   19        0.0058035737
   19   13   19   13        0.0040271657
   19   13   14   14        0.0000000110
   19   13   15   14        0.0000000019
   19   13   16   14        0.0000000001
   19   13   17   14       -0.0000000015
   19   13   18   14        0.0000012231
   19   13   19   14        0.0001486943
   19   13   15   15        0.0000000049
   19   13   16   15       -0.0000000012
   19   13   17   15        0.0000000003
   19   13   18   15        0.0000012896
   19   13   19   15        0.0001515765
   19   13   16   16        0.0000003494
   19   13   17   16        0.0000001913
   19   13   18   16       -0.0000000074
   19   13   19   16       -0.0000211399
   19   13   17   17       -0.0000003392
   19   13   18   17       -0.0000000312
   19   13   19   17        0.0000259926
   19   13   18   18       -0.0000001608
   19   13   19   18       -0.0018458405
   19   13   19   19       -0.0000000023
   14   14   14   14        0.3800286116
   14   14   15   14       -0.0000080094
   14   14   16   14        0.0000109906
   14   14   17   14        0.0000197621
   14   14   18   14        0.0000482327
   14   14   19   14        0.0000019295
   14   14   15   15        0.3656955431
   14   14   16   15        0.0000080267
   14   14   17   15       -0.0000627326
   14   14   18   15       -0.0000034659
   14   14   19   15        0.0000018424
   14   14   16   16        0.3560096262
   14   14   17   16       -0.0000743171
   14   14   18   16        0.0000129665
   14   14   19   16       -0.0000000026
   14   14   17   17        0.3559785931
   14   14   18   17        0.0000061929
   14   14   19   17       -0.0000000001
   14   14   18   18        0.3463671163
   14   14   19   18       -0.0000000185
   14   14   19   19        0.3678494070
   15   14   15   14        0.0073172203
   15   14   16   14        0.0000116058
   15   14   17   14       -0.0000291476
   15   14   18   14       -0.0000044310
   15   14   19   14        0.0000000982
   15   14   15   15       -0.0000080292
   15   14   16   15        0.0000260250
   15   14   17   15        0.0000131810
   15   14   18   15        0.0000184974
   15   14   19   15        0.0000000904
   15   14   16   16       -0.0000157534
   15   14   17   16        0.0000166604
   15   14   18   16        0.0000245780
   15   14   19   16       -0.0000000001
   15   14   17   17       -0.0000183852
   15   14   18   17        0.0000300192
   15   14   19   17       -0.0000000000
   15   14   18   18       -0.0000079725
   15   14   19   18       -0.0000000076
   15   14   19   19        0.0057948907
   16   14   16   14        0.0115246671
   16   14   17   14       -0.0000068007
   16   14   18   14        0.0000043654
   16   14   19   14       -0.0000000004
   16   14   15   15       -0.0000296375
   16   14   16   15       -0.0000290081
   16   14   17   15        0.0050302853
   16   14   18   15        0.0000330187
   16   14   19   15       -0.0000000005
   16   14   16   16        0.0000134738
   16   14   17   16        0.0000033620
   16   14   18   16       -0.0032499086
   16   14   19   16        0.0000001639
   16   14   17   17        0.0000218541
   16   14   18   17        0.0009918026
   16   14   19   17        0.0000000649
   16   14   18   18        0.0000053524
   16   14   19   18        0.0000000010
   16   14   19   19       -0.0000191866
   17   14   17   14        0.0115771488
   17   14   18   14       -0.0000120665
   17   14   19   14        0.0000000000
   17   14   15   15       -0.0000018786
   17   14   16   15       -0.0050573922
   17   14   17   15       -0.0000307053
   17   14   18   15        0.0000325301
   17   14   19   15       -0.0000000002
   17   14   16   16        0.0000143156
   17   14   17   16       -0.0000049493
   17   14   18   16        0.0009949450
   17   14   19   16       -0.0000000658
   17   14   17   17        0.0000208948
   17   14   18   17        0.0032267543
   17   14   19   17        0.0000001631
   17   14   18   18        0.0000156302
   17   14   19   18        0.0000000050
   17   14   19   19       -0.0000057195
   18   14   18   14        0.0094513612
   18   14   19   14       -0.0000000140
   18   14   15   15        0.0000098708
   18   14   16   15        0.0000143032
   18   14   17   15        0.0000213585
   18   14   18   15       -0.0000011857
   18   14   19   15       -0.0000000053
   18   14   16   16        0.0050062956
   18   14   17   16       -0.0015656658
   18   14   18   16       -0.0000001263
   18   14   19   16        0.0000000017
   18   14   17   17       -0.0049939930
   18   14   18   17       -0.0000025410
   18   14   19   17        0.0000000051
   18   14   18   18       -0.0000511347
   18   14   19   18       -0.0000038631
   18   14   19   19       -0.0000328289
   19   14   19   14        0.0465902996
   19   14   15   15        0.0000017104
   19   14   16   15        0.0000000006
   19   14   17   15       -0.0000000018
   19   14   18   15       -0.0000000094
   19   14   19   15        0.0436418456
   19   14   16   16        0.0000014886
   19   14   17   16       -0.0000000080
   19   14   18   16        0.0000000242
   19   14   19   16       -0.0000594204
   19   14   17   17        0.0000014850
   19   14   18   17        0.0000000531
   19   14   19   17        0.0000062229
   19   14   18   18       -0.0000465460
   19   14   19   18        0.0000007330
   19   14   19   19       -0.0000008005
   15   15   15   15        0.3803123131
   15   15   16   15        0.0000372609
   15   15   17   15       -0.0001221722
   15   15   18   15       -0.0000186709
   15   15   19   15        0.0000019957
   15   15   16   16        0.3560762660
   15   15   17   16       -0.0000740662
   15   15   18   16       -0.0000467753
   15   15   19   16       -0.0000000025
   15   15   17   17        0.3561134086
   15   15   18   17        0.0000556899
   15   15   19   17       -0.0000000002
   15   15   18   18        0.3464523475
   15   15   19   18        0.0000000052
   15   15   19   19        0.3685156176
   16   15   16   15        0.0116217552
   16   15   17   15       -0.0000100500
   16   15   18   15       -0.0000531369
   16   15   19   15        0.0000000005
   16   15   16   16        0.0000310775
   16   15   17   16       -0.0000084238
   16   15   18   16       -0.0010113746
   16   15   19   16        0.0000001729
   16   15   17   17        0.0000406343
   16   15   18   17       -0.0031670441
   16   15   19   17       -0.0000000601
   16   15   18   18       -0.0000006325
   16   15   19   18        0.0000000046
   16   15   19   19       -0.0000152285
   17   15   17   15        0.0116278712
   17   15   18   15        0.0000376464
   17   15   19   15       -0.0000000023
   17   15   16   16       -0.0000942234
   17   15   17   16       -0.0000011517
   17   15   18   16       -0.0031688335
   17   15   19   16        0.0000000589
   17   15   17   17       -0.0001100630
   17   15   18   17        0.0009589661
   17   15   19   17        0.0000001719
   17   15   18   18       -0.0000166809
   17   15   19   18       -0.0000000003
   17   15   19   19        0.0000201929
   18   15   18   15        0.0094712487
   18   15   19   15        0.0000000011
   18   15   16   16        0.0015287665
   18   15   17   16        0.0050658581
   18   15   18   16        0.0000005224
   18   15   19   16        0.0000000065
   18   15   17   17       -0.0015577150
   18   15   18   17        0.0000046377
   18   15   19   17       -0.0000000059
   18   15   18   18        0.0000149273
   18   15   19   18       -0.0000040713
   18   15   19   19        0.0000068619
   19   15   19   15        0.0510936793
   19   15   16   16        0.0000015754
   19   15   17   16       -0.0000000065
   19   15   18   16        0.0000000362
   19   15   19   16       -0.0000681032
   19   15   17   17        0.0000015653
   19   15   18   17        0.0000000290
   19   15   19   17        0.0000294423
   19   15   18   18       -0.0000490009
   19   15   19   18       -0.0000119217
   19   15   19   19       -0.0000008426
   16   16   16   16        0.3845300997
   16   16   17   16       -0.0000970808
   16   16   18   16        0.0000087470
   16   16   19   16       -0.0000000012
   16   16   17   17        0.3591429789
   16   16   18   17        0.0000022560
   16   16   19   17        0.0000000014
   16   16   18   18        0.3677936445
   16   16   19   18       -0.0000023697
   16   16   19   19        0.3606821081
   17   16   17   16        0.0129232702
   17   16   18   16        0.0000036808
   17   16   19   16        0.0000000001
   17   16   17   17       -0.0000638686
   17   16   18   17        0.0000031940
   17   16   19   17        0.0000000004
   17   16   18   18        0.0000063402
   17   16   19   18       -0.0000013271
   17   16   19   19        0.0000171464
   18   16   18   16        0.0095260432
   18   16   19   16        0.0000004934
   18   16   17   17       -0.0000011085
   18   16   18   17        0.0000034238
   18   16   19   17        0.0000002936
   18   16   18   18        0.0000054089
   18   16   19   18        0.0000000031
   18   16   19   19        0.0000125900
   19   16   19   16        0.0095748959
   19   16   17   17       -0.0000000044
   19   16   18   17        0.0000002879
   19   16   19   17        0.0000182179
   19   16   18   18        0.0000000701
   19   16   19   18        0.0000023375
   19   16   19   19        0.0000000007
   17   17   17   17        0.3846174699
   17   17   18   17        0.0000081669
   17   17   19   17       -0.0000000009
   17   17   18   18        0.3677976907
   17   17   19   18        0.0000023721
   17   17   19   19        0.3606734860
   18   17   18   17        0.0095244376
   18   17   19   17       -0.0000004747
   18   17   18   18       -0.0000013546
   18   17   19   18        0.0000000003
   18   17   19   19        0.0000096864
   19   17   19   17        0.0095657647
   19   17   18   18       -0.0000000087
   19   17   19   18        0.0000038562
   19   17   19   19       -0.0000000003
   18   18   18   18        0.4003159227
   18   18   19   18        0.0000000125
   18   18   19   19        0.3601423564
   19   18   19   18        0.0051711725
   19   18   19   19       -0.0000000001
   19   19   19   19        0.4002660598
 end_two_electron_integrals


 output epsi filename:./pspw_hf_H2.emovecs

 Total PSPW energy     :  -0.9259375833E+00


=== Spin Contamination ===

 <Sexact^2> =    0.0000000000000000     
 <S^2>      =    0.0000000000000000     



== Center of Charge ==

spin up     (    0.0000,    0.0000,    0.0000 )
spin down   (    0.0000,    0.0000,    0.0000 )
     total  (    0.0000,    0.0000,    0.0000 )
ionic       (    0.0000,    0.0000,    0.0000 )


== Molecular Dipole wrt Center of Mass ==

mu   =  (   -0.0000,   -0.0000,   -0.0000 ) au
|mu| =     0.0000 au,       0.0001 Debye

 output psi filename:./pspw_hf_H2.movecs

 Writing Crystallographic Information File:./H2.cif
   - cell not shifted (nwpw:cif_shift_cell .false.)


== Timing ==

cputime in seconds
  prologue    :   0.724244E+01
  main loop   :   0.483491E+03
  epilogue    :   0.168290E-01
  total       :   0.490750E+03
  cputime/step:   0.352913E+01       (     137 evalulations,      57 linesearches)


Time spent doing                        total          step       percent
  total time                 :   0.490767E+03  0.358224E+01       100.0 %
  i/o time                   :   0.411912E+00  0.300665E-02         0.1 %
  FFTs                       :   0.340970E+03  0.248883E+01        69.5 %
  dot products               :   0.242340E+02  0.176890E+00         4.9 %
  geodesic                   :   0.592261E-01  0.432307E-03         0.0 %
  ffm_dgemm                  :   0.942778E-02  0.688159E-04         0.0 %
  fmf_dgemm                  :   0.582454E-02  0.425149E-04         0.0 %
  mmm_dgemm                  :   0.233052E-02  0.170111E-04         0.0 %
  m_diagonalize              :   0.120230E-02  0.877590E-05         0.0 %
  local pseudopotentials     :   0.616250E+01  0.449817E-01         1.3 %
  non-local pseudopotentials :   0.230368E+02  0.168152E+00         4.7 %
  structure factors          :   0.662665E+00  0.483697E-02         0.1 %
  phase factors              :   0.942100E-05  0.687664E-07         0.0 %
  masking and packing        :   0.127793E+02  0.932796E-01         2.6 %
  queue fft                  :   0.108773E+02  0.793965E-01         2.2 %
  queue fft (serial)         :   0.325712E+01  0.237746E-01         0.7 %
  queue fft (message passing):   0.758030E+01  0.553306E-01         1.5 %
  HFX potential              :   0.407012E+01  0.297089E-01         0.8 %
  non-local psp FFM          :   0.225185E+02  0.164369E+00         4.6 %
  non-local psp FMF          :   0.111775E+00  0.815873E-03         0.0 %
  non-local psp FFM A        :   0.492533E-01  0.359513E-03         0.0 %
  non-local psp FFM B        :   0.159941E+00  0.116745E-02         0.0 %

== HFX Counters ==
  HFX Evalulations         =   137
  Lin ACE HFX Evalulations =     0


     >>>  JOB COMPLETED     AT Sun Apr  6 10:04:30 2025  <<<

 Task  times  cpu:      460.6s     wall:      490.8s


                                NWChem Input Module
                                -------------------


 Summary of allocated global arrays
-----------------------------------
  No active global arrays


MA_summarize_allocated_blocks: starting scan ...
MA_summarize_allocated_blocks: scan completed: 0 heap blocks, 0 stack blocks
MA usage statistics:

	allocation statistics:
					      heap	     stack
					      ----	     -----
	current number of blocks	         0	         0
	maximum number of blocks	       313	        36
	current total bytes		         0	         0
	maximum total bytes		  16802672	   5334776
	maximum total K-bytes		     16803	      5335
	maximum total M-bytes		        17	         6


                                     CITATION
                                     --------
                Please cite the following reference when publishing
                           results obtained with NWChem:

          E. Apra, E. J. Bylaska, W. A. de Jong, N. Govind, K. Kowalski,
       T. P. Straatsma, M. Valiev, H. J. J. van Dam, Y. Alexeev, J. Anchell,
       V. Anisimov, F. W. Aquino, R. Atta-Fynn, J. Autschbach, N. P. Bauman,
     J. C. Becca, D. E. Bernholdt, K. Bhaskaran-Nair, S. Bogatko, P. Borowski,
         J. Boschen, J. Brabec, A. Bruner, E. Cauet, Y. Chen, G. N. Chuev,
      C. J. Cramer, J. Daily, M. J. O. Deegan, T. H. Dunning Jr., M. Dupuis,
   K. G. Dyall, G. I. Fann, S. A. Fischer, A. Fonari, H. Fruchtl, L. Gagliardi,
      J. Garza, N. Gawande, S. Ghosh, K. Glaesemann, A. W. Gotz, J. Hammond,
       V. Helms, E. D. Hermes, K. Hirao, S. Hirata, M. Jacquelin, L. Jensen,
   B. G. Johnson, H. Jonsson, R. A. Kendall, M. Klemm, R. Kobayashi, V. Konkov,
      S. Krishnamoorthy, M. Krishnan, Z. Lin, R. D. Lins, R. J. Littlefield,
      A. J. Logsdail, K. Lopata, W. Ma, A. V. Marenich, J. Martin del Campo,
   D. Mejia-Rodriguez, J. E. Moore, J. M. Mullin, T. Nakajima, D. R. Nascimento,
    J. A. Nichols, P. J. Nichols, J. Nieplocha, A. Otero-de-la-Roza, B. Palmer,
    A. Panyala, T. Pirojsirikul, B. Peng, R. Peverati, J. Pittner, L. Pollack,
   R. M. Richard, P. Sadayappan, G. C. Schatz, W. A. Shelton, D. W. Silverstein,
   D. M. A. Smith, T. A. Soares, D. Song, M. Swart, H. L. Taylor, G. S. Thomas,
            V. Tipparaju, D. G. Truhlar, K. Tsemekhman, T. Van Voorhis,
      A. Vazquez-Mayagoitia, P. Verma, O. Villa, A. Vishnu, K. D. Vogiatzis,
        D. Wang, J. H. Weare, M. J. Williamson, T. L. Windus, K. Wolinski,
        A. T. Wong, Q. Wu, C. Yang, Q. Yu, M. Zacharias, Z. Zhang, Y. Zhao,
                                and R. J. Harrison
                        "NWChem: Past, present, and future
                         J. Chem. Phys. 152, 184102 (2020)
                               doi:10.1063/5.0004997

                                      AUTHORS
                                      -------
  E. Apra, E. J. Bylaska, N. Govind, K. Kowalski, M. Valiev, D. Mejia-Rodriguez,
       A. Kunitsa, N. P. Bauman, A. Panyala, W. A. de Jong, T. P. Straatsma,
   H. J. J. van Dam, D. Wang, T. L. Windus, J. Hammond, J. Autschbach, A. Woods,
    K. Bhaskaran-Nair, J. Brabec, K. Lopata, S. A. Fischer, S. Krishnamoorthy,
     M. Jacquelin, W. Ma, M. Klemm, O. Villa, Y. Chen, V. Anisimov, F. Aquino,
     S. Hirata, M. T. Hackler, E. Hermes, L. Jensen, J. E. Moore, J. C. Becca,
      V. Konjkov, T. Risthaus, M. Malagoli, A. Marenich, A. Otero-de-la-Roza,
        J. Mullin, P. Nichols, R. Peverati, J. Pittner, Y. Zhao, P.-D. Fan,
        A. Fonari, M. J. Williamson, R. J. Harrison, J. R. Rehr, M. Dupuis,
     D. Silverstein, D. M. A. Smith, J. Nieplocha, V. Tipparaju, M. Krishnan,
     B. E. Van Kuiken, A. Vazquez-Mayagoitia, M. Swart, Q. Wu, T. Van Voorhis,
     A. A. Auer, M. Nooijen, L. D. Crosby, E. Brown, G. Cisneros, G. I. Fann,
   H. Fruchtl, J. Garza, K. Hirao, R. A. Kendall, J. A. Nichols, K. Tsemekhman,
    K. Wolinski, J. Anchell, D. E. Bernholdt, P. Borowski, T. Clark, D. Clerc,
   H. Dachsel, M. J. O. Deegan, K. Dyall, D. Elwood, E. Glendening, M. Gutowski,
   A. C. Hess, J. Jaffe, B. G. Johnson, J. Ju, R. Kobayashi, R. Kutteh, Z. Lin,
   R. Littlefield, X. Long, B. Meng, T. Nakajima, S. Niu, L. Pollack, M. Rosing,
   K. Glaesemann, G. Sandrone, M. Stave, H. Taylor, G. Thomas, J. H. van Lenthe,
                               A. T. Wong, Z. Zhang.

 Total times  cpu:      460.6s     wall:      490.9s
