 argument  1 = H2-4.0.nw



============================== echo of input deck ==============================
title "swnc: e theory=pspw4 xc=hf formula=H2 charge=0 mult=1"
#machinejob:expert

echo

start pspw_hf_H2

memory heap 1200 mb stack 1200 mb global 10 mb

charge 0

geometry
H    0.00000    0.00000   -2.00000
H    0.00000    0.00000    2.00000
end

nwpw
  ### pseudopotential block begin ###
  ### pseudopotential block end   ###
  simulation_cell
     SC 15.0000
     boundary_conditions aperiodic
  end

  cutoff 50.0
  mult 1
  xc hf
  lmbfgs
  tolerances 1.0e-9 1.0e-9

  virtual 18
end
set nwpw:cif_filename H2

#set nwpw:CI_maxit_orb 15
#set nwpw:CI_maxit_linesearch 15
set pspw:HFX_screening_radius 14.0


set nwpw:2qintegrals .true.
set nwpw:3x3_virtual .true.

task pspw energy
================================================================================


                                         
                                         


             Northwest Computational Chemistry Package (NWChem) 7.2.3
             --------------------------------------------------------


                    Environmental Molecular Sciences Laboratory
                       Pacific Northwest National Laboratory
                                Richland, WA 99352

                              Copyright (c) 1994-2022
                       Pacific Northwest National Laboratory
                            Battelle Memorial Institute

             NWChem is an open-source computational chemistry package
                        distributed under the terms of the
                      Educational Community License (ECL) 2.0
             A copy of the license is included with this distribution
                              in the LICENSE.TXT file

                                  ACKNOWLEDGMENT
                                  --------------

            This software and its documentation were developed at the
            EMSL at Pacific Northwest National Laboratory, a multiprogram
            national laboratory, operated for the U.S. Department of Energy
            by Battelle under Contract Number DE-AC05-76RL01830. Support
            for this work was provided by the Department of Energy Office
            of Biological and Environmental Research, Office of Basic
            Energy Sciences, and the Office of Advanced Scientific Computing.


           Job information
           ---------------

    hostname        = mqs-al
    program         = nwchem
    date            = Sun Apr  6 15:19:41 2025

    compiled        = Thu_Oct_31_08:55:15_2024
    source          = /home/conda/feedstock_root/build_artifacts/nwchem_1730356057992/work
    nwchem branch   = 7.2.3
    nwchem revision = c400b04
    ga revision     = 5.8.0
    use scalapack   = T
    input           = H2-4.0.nw
    prefix          = pspw_hf_H2.
    data base       = ./pspw_hf_H2.db
    status          = startup
    nproc           =       24
    time left       =     -1s



           Memory information
           ------------------

    heap     =  157286398 doubles =   1200.0 Mbytes
    stack    =  157286395 doubles =   1200.0 Mbytes
    global   =    1310720 doubles =     10.0 Mbytes (distinct from heap & stack)
    total    =  315883513 doubles =   2410.0 Mbytes
    verify   = yes
    hardfail = no 


           Directory information
           ---------------------

  0 permanent = .
  0 scratch   = .




                                NWChem Input Module
                                -------------------


               swnc: e theory=pspw4 xc=hf formula=H2 charge=0 mult=1
               -----------------------------------------------------

 Scaling coordinates for geometry "geometry" by  1.889725989
 (inverse scale =  0.529177249)

  zeroes
  zeroes
  zeroes
  zeroes
  zeroes
  zeroes
  zeroes
  zeroes
  zeroes
  zeroes
  zeroes
  zeroes
  zeroes
  zeroes
  zeroes
  zeroes
  zeroes
  zeroes
  zeroes
  zeroes
  zeroes
  zeroes
  zeroes
  zeroes
  zeroes
  zeroes
  zeroes
  zeroes
  zeroes
  zeroes
  zeroes
  zeroes
  zeroes
  zeroes
  zeroes
  zeroes
  zeroes
  zeroes
  zeroes
  zeroes
  zeroes
  zeroes
  zeroes
  zeroes
  zeroes
  zeroes
  zeroes
  zeroes
 ORDER OF PRIMARY AXIS IS BEING SET TO 4
 D4H symmetry detected

          ------
          auto-z
          ------
     1 autoz failed with cvr_scaling = 1.2 changing to 1.3
     2 autoz failed with cvr_scaling = 1.3 changing to 1.4
     3 autoz failed with cvr_scaling = 1.4 changing to 1.5
     4 autoz failed with cvr_scaling = 1.5 changing to 1.6
     5 autoz failed with cvr_scaling = 1.6 changing to 1.7

 AUTOZ failed to generate good internal coordinates.
 Cartesian coordinates will be used in optimizations.



                             Geometry "geometry" -> ""
                             -------------------------

 Output coordinates in angstroms (scale by  1.889725989 to convert to a.u.)

  No.       Tag          Charge          X              Y              Z
 ---- ---------------- ---------- -------------- -------------- --------------
    1 H                    1.0000     0.00000000     0.00000000    -2.00000000
    2 H                    1.0000     0.00000000     0.00000000     2.00000000

      Atomic Mass 
      ----------- 

      H                  1.007825


 Effective nuclear repulsion energy (a.u.)       0.1322943122

            Nuclear Dipole moment (a.u.) 
            ----------------------------
        X                 Y               Z
 ---------------- ---------------- ----------------
     0.0000000000     0.0000000000     0.0000000000

      Symmetry information
      --------------------

 Group name             D4h       
 Group number             28
 Group order              16
 No. of unique centers     1

      Symmetry unique atoms

     1


            XYZ format geometry
            -------------------
     2
 geometry
 H                     0.00000000     0.00000000    -2.00000000
 H                     0.00000000     0.00000000     2.00000000

          ****************************************************
          *                                                  *
          *               NWPW PSPW Calculation              *
          *                                                  *
          * [ (Grassmann/Stiefel manifold implementation)  ] *
          *                                                  *
          *      [ NorthWest Chemistry implementation ]      *
          *                                                  *
          *            version #5.10   06/12/02              *
          *                                                  *
          *    This code was developed by Eric J. Bylaska,   *
          *    and was based upon algorithms and code        *
          *    developed by the group of Prof. John H. Weare *
          *                                                  *
          ****************************************************
     >>>  JOB STARTED       AT Sun Apr  6 15:19:41 2025  <<<
          ================ input data ========================

 input psi filename:./pspw_hf_H2.movecs

 number of processors used:        24
 processor grid           :  24 x   1
 parallel mapping         :2d-hilbert
 parallel mapping         :  balanced
 number of threads        :         1
 parallel io              :       off

 options:
      boundary conditions  = aperiodic   (version4)
      electron spin        = restricted
      exchange-correlation = Hartree-Fock
      - HFX relaxed
      - HFX restricted orbitals :    1
      - HFX free-space coulomb solver


 elements involved in the cluster:
      1: H   valence charge:  1.0000  lmax=  1
             comment    : Parameterized (Chem.Phys.Lett., vol 322, page 447) Hamman psp
             pseudpotential type            :   0
             highest angular component      :   1
             local potential used           :   1
             number of non-local projections:   1
             aperiodic cutoff radius        :  1.000
             cutoff =   0.800   0.800


 total charge:   0.000

 atomic composition:
     H   :    2

 number of electrons: spin up=     1 (   1 per task)  down=     1 (   1 per task) (Fourier space)
 number of orbitals : spin up=     1 (   1 per task)  down=     1 (   1 per task) (Fourier space)

 supercell:
      cell_name:  cell_default                                      
      lattice:    a1=<  15.000   0.000   0.000 >
                  a2=<   0.000  15.000   0.000 >
                  a3=<   0.000   0.000  15.000 >
      reciprocal: b1=<   0.419   0.000   0.000 >
                  b2=<   0.000   0.419   0.000 >
                  b3=<   0.000   0.000   0.419 >
      lattice:    a=      15.000 b=     15.000 c=      15.000
                  alpha=  90.000 beta=  90.000 gamma=  90.000
                  omega=      3375.0

      density cutoff=100.000  fft= 70x 70x 70(    80618 waves     3359 per task)
      wavefnc cutoff= 50.000  fft= 70x 70x 70(    28526 waves     1188 per task)

 technical parameters:
      time step=      5.80     fictitious mass=  400000.0
      tolerance=0.100E-08 (energy)   0.100E-08 (density)
      maximum iterations =      1000 (   10 inner    100 outer )





== Energy Calculation ==


          ============ Grassmann lmbfgs iteration ============
     >>>  ITERATION STARTED AT Sun Apr  6 15:19:48 2025  <<<
    iter.           Energy         DeltaE       DeltaRho 
    ------------------------------------------------------
      10   -0.7944503355E+00   -0.15229E-02    0.69751E-02
     -  10 steepest descent iterations performed
      20   -0.7996269730E+00   -0.13615E-03    0.67568E-04
      30   -0.7998689136E+00   -0.49437E-05    0.56056E-05
      40   -0.7998850450E+00   -0.27967E-06    0.74498E-07
      50   -0.7998858326E+00   -0.11673E-07    0.88047E-09
      60   -0.7998858663E+00   -0.97781E-09    0.16538E-09
  *** tolerance ok. iteration terminated
     >>>  ITERATION ENDED   AT Sun Apr  6 15:19:55 2025  <<<


==  Summary Of Results  ==

 number of electrons: spin up=    1.00000  down=    1.00000 (real space)

 total     energy    :  -0.7998858663E+00 (   -0.39994E+00/ion)
 total orbital energy:  -0.6195618360E+00 (   -0.61956E+00/electron)
 hartree   energy    :   0.6252366852E+00 (    0.62524E+00/electron)
 exc-corr  energy    :   0.0000000000E+00 (    0.00000E+00/electron)
 HF exchange energy  :  -0.3126183426E+00 (   -0.31262E+00/electron)
 ion-ion   energy    :   0.1322943122E+00 (    0.66147E-01/ion)

 kinetic (planewave) :   0.6191377300E+00 (    0.61914E+00/electron)
 V_local (planewave) :  -0.1716936480E+01 (   -0.17169E+01/electron)
 V_nl    (planewave) :  -0.1469997707E+00 (   -0.14700E+00/electron)
 V_Coul  (planewave) :   0.1250473370E+01 (    0.12505E+01/electron)
 V_xc.   (planewave) :   0.0000000000E+00 (    0.00000E+00/electron)
 K.S. HFX energy     :  -0.6252366852E+00 (   -0.62524E+00/electron)
 Virial Coefficient  :  -0.9908342701E+00

 orbital energies:
    -0.3097809E+00 (  -8.430eV)


== Virtual Orbital Calculation ==


 input epsi filename:./pspw_hf_H2.emovecs

 COVOs Mimimization
 ------------------
CI gradient algorithm =         3
maxit_sweeps          =         3
maxit_orb             =       120
maxit_linesearch      =        15
maxerror              = 0.100E-08

     orb,it,eci,eold,eci-eold=                    1                    1 -0.91647909459244836      -0.91563877059946175       -8.4032399298661353E-004 F
     orb,it,eci,eold,eci-eold=                    1                    2 -0.91669544733466535      -0.91647909459244836       -2.1635274221698531E-004 F
     orb,it,eci,eold,eci-eold=                    1                    3 -0.93314942083996155      -0.91669544733466535       -1.6453973505296204E-002 F
     orb,it,eci,eold,eci-eold=                    1                    4 -0.93472566115888533      -0.93314942083996155       -1.5762403189237828E-003 F
     orb,it,eci,eold,eci-eold=                    1                    5 -0.93551314881903758      -0.93472566115888533       -7.8748766015224181E-004 F
     orb,it,eci,eold,eci-eold=                    1                    6 -0.93994902892970922      -0.93551314881903758       -4.4358801106716417E-003 F
     orb,it,eci,eold,eci-eold=                    1                    7 -0.94528362092151930      -0.93994902892970922       -5.3345919918100781E-003 F
     orb,it,eci,eold,eci-eold=                    1                    8 -0.94712025638218522      -0.94528362092151930       -1.8366354606659252E-003 F
     orb,it,eci,eold,eci-eold=                    1                    9 -0.94721036797298663      -0.94712025638218522       -9.0111590801411623E-005 F
     orb,it,eci,eold,eci-eold=                    1                   10 -0.95264115407020244      -0.94721036797298663       -5.4307860972158117E-003 F
     orb,it,eci,eold,eci-eold=                    1                   11 -0.95537537116383042      -0.95264115407020244       -2.7342170936279775E-003 F
     orb,it,eci,eold,eci-eold=                    1                   12 -0.95556216819989870      -0.95537537116383042       -1.8679703606827580E-004 F
     orb,it,eci,eold,eci-eold=                    1                   13 -0.95769701637440541      -0.95556216819989870       -2.1348481745067094E-003 F
     orb,it,eci,eold,eci-eold=                    1                   14 -0.95846350325170526      -0.95769701637440541       -7.6648687729985454E-004 F
     orb,it,eci,eold,eci-eold=                    1                   15 -0.95953849873380648      -0.95846350325170526       -1.0749954821012153E-003 F
     orb,it,eci,eold,eci-eold=                    1                   16 -0.96258924624557884      -0.95953849873380648       -3.0507475117723670E-003 F
     orb,it,eci,eold,eci-eold=                    1                   17 -0.96437458163837453      -0.96258924624557884       -1.7853353927956839E-003 F
     orb,it,eci,eold,eci-eold=                    1                   18 -0.96588433321636491      -0.96437458163837453       -1.5097515779903814E-003 F
     orb,it,eci,eold,eci-eold=                    1                   19 -0.96658585506563544      -0.96588433321636491       -7.0152184927052552E-004 F
     orb,it,eci,eold,eci-eold=                    1                   20 -0.96830938609357775      -0.96658585506563544       -1.7235310279423155E-003 F
     orb,it,eci,eold,eci-eold=                    1                   21 -0.96866222832508608      -0.96830938609357775       -3.5284223150833238E-004 F
     orb,it,eci,eold,eci-eold=                    1                   22 -0.96875120101809997      -0.96866222832508608       -8.8972693013888993E-005 F
     orb,it,eci,eold,eci-eold=                    1                   23 -0.96965511267233540      -0.96875120101809997       -9.0391165423542308E-004 F
     orb,it,eci,eold,eci-eold=                    1                   24 -0.97009023797069616      -0.96965511267233540       -4.3512529836076119E-004 F
     orb,it,eci,eold,eci-eold=                    1                   25 -0.97040880500359961      -0.97009023797069616       -3.1856703290344957E-004 F
     orb,it,eci,eold,eci-eold=                    1                   26 -0.97148494161890664      -0.97040880500359961       -1.0761366153070329E-003 F
     orb,it,eci,eold,eci-eold=                    1                   27 -0.97171385543210786      -0.97148494161890664       -2.2891381320122584E-004 F
     orb,it,eci,eold,eci-eold=                    1                   28 -0.97176948486803949      -0.97171385543210786       -5.5629435931625615E-005 F
     orb,it,eci,eold,eci-eold=                    1                   29 -0.97247307708116060      -0.97176948486803949       -7.0359221312110698E-004 F
     orb,it,eci,eold,eci-eold=                    1                   30 -0.97278613630669997      -0.97247307708116060       -3.1305922553936938E-004 F
     orb,it,eci,eold,eci-eold=                    1                   31 -0.97291749408603889      -0.97278613630669997       -1.3135777933892534E-004 F
     orb,it,eci,eold,eci-eold=                    1                   32 -0.97360328374140881      -0.97291749408603889       -6.8578965536991721E-004 F
     orb,it,eci,eold,eci-eold=                    1                   33 -0.97370696371345267      -0.97360328374140881       -1.0367997204385748E-004 F
     orb,it,eci,eold,eci-eold=                    1                   34 -0.97374357847061832      -0.97370696371345267       -3.6614757165653877E-005 F
     orb,it,eci,eold,eci-eold=                    1                   35 -0.97432580916964273      -0.97374357847061832       -5.8223069902441082E-004 F
     orb,it,eci,eold,eci-eold=                    1                   36 -0.97467651322595672      -0.97432580916964273       -3.5070405631398849E-004 F
     orb,it,eci,eold,eci-eold=                    1                   37 -0.97493704657837144      -0.97467651322595672       -2.6053335241471576E-004 F
     orb,it,eci,eold,eci-eold=                    1                   38 -0.97504767130231618      -0.97493704657837144       -1.1062472394474110E-004 F
     orb,it,eci,eold,eci-eold=                    1                   39 -0.97533534413579726      -0.97504767130231618       -2.8767283348107853E-004 F
     orb,it,eci,eold,eci-eold=                    1                   40 -0.97535430542288948      -0.97533534413579726       -1.8961287092222889E-005 F
     orb,it,eci,eold,eci-eold=                    1                   41 -0.97537824794107197      -0.97535430542288948       -2.3942518182495931E-005 F
     orb,it,eci,eold,eci-eold=                    1                   42 -0.97564952097676638      -0.97537824794107197       -2.7127303569440819E-004 F
     orb,it,eci,eold,eci-eold=                    1                   43 -0.97580467288987938      -0.97564952097676638       -1.5515191311299414E-004 F
     orb,it,eci,eold,eci-eold=                    1                   44 -0.97593798092631134      -0.97580467288987938       -1.3330803643196720E-004 F
     orb,it,eci,eold,eci-eold=                    1                   45 -0.97599824888564235      -0.97593798092631134       -6.0267959331006260E-005 F
     orb,it,eci,eold,eci-eold=                    1                   46 -0.97613044589599129      -0.97599824888564235       -1.3219701034894449E-004 F
     orb,it,eci,eold,eci-eold=                    1                   47 -0.97614137837841186      -0.97613044589599129       -1.0932482420566991E-005 F
     orb,it,eci,eold,eci-eold=                    1                   48 -0.97614750875315870      -0.97614137837841186       -6.1303747468377523E-006 F
     orb,it,eci,eold,eci-eold=                    1                   49 -0.97624671803404117      -0.97614750875315870       -9.9209280882472939E-005 F
     orb,it,eci,eold,eci-eold=                    1                   50 -0.97630312210774028      -0.97624671803404117       -5.6404073699112267E-005 F
     orb,it,eci,eold,eci-eold=                    1                   51 -0.97632143183098608      -0.97630312210774028       -1.8309723245790721E-005 F
     orb,it,eci,eold,eci-eold=                    1                   52 -0.97640160669389664      -0.97632143183098608       -8.0174862910564748E-005 F
     orb,it,eci,eold,eci-eold=                    1                   53 -0.97642955956094712      -0.97640160669389664       -2.7952867050484720E-005 F
     orb,it,eci,eold,eci-eold=                    1                   54 -0.97643925637951501      -0.97642955956094712       -9.6968185678836250E-006 F
     orb,it,eci,eold,eci-eold=                    1                   55 -0.97650138329913794      -0.97643925637951501       -6.2126919622929044E-005 F
     orb,it,eci,eold,eci-eold=                    1                   56 -0.97652668615426219      -0.97650138329913794       -2.5302855124254009E-005 F
     orb,it,eci,eold,eci-eold=                    1                   57 -0.97653557928339785      -0.97652668615426219       -8.8931291356564302E-006 F
     orb,it,eci,eold,eci-eold=                    1                   58 -0.97658691723918356      -0.97653557928339785       -5.1337955785712985E-005 F
     orb,it,eci,eold,eci-eold=                    1                   59 -0.97660806612324946      -0.97658691723918356       -2.1148884065902429E-005 F
     orb,it,eci,eold,eci-eold=                    1                   60 -0.97661484292371592      -0.97660806612324946       -6.7768004664570114E-006 F
     orb,it,eci,eold,eci-eold=                    1                   61 -0.97665374105252822      -0.97661484292371592       -3.8898128812303590E-005 F
     orb,it,eci,eold,eci-eold=                    1                   62 -0.97666842962618250      -0.97665374105252822       -1.4688573654275672E-005 F
     orb,it,eci,eold,eci-eold=                    1                   63 -0.97667390808280774      -0.97666842962618250       -5.4784566252408240E-006 F
     orb,it,eci,eold,eci-eold=                    1                   64 -0.97670712983511476      -0.97667390808280774       -3.3221752307022179E-005 F
     orb,it,eci,eold,eci-eold=                    1                   65 -0.97672027046881948      -0.97670712983511476       -1.3140633704722404E-005 F
     orb,it,eci,eold,eci-eold=                    1                   66 -0.97672429769563851      -0.97672027046881948       -4.0272268190255645E-006 F
     orb,it,eci,eold,eci-eold=                    1                   67 -0.97675280386284535      -0.97672429769563851       -2.8506167206843180E-005 F
     orb,it,eci,eold,eci-eold=                    1                   68 -0.97676766571346563      -0.97675280386284535       -1.4861850620273565E-005 F
     orb,it,eci,eold,eci-eold=                    1                   69 -0.97677239141897054      -0.97676766571346563       -4.7257055049154673E-006 F
     orb,it,eci,eold,eci-eold=                    1                   70 -0.97679471408218976      -0.97677239141897054       -2.2322663219220829E-005 F
     orb,it,eci,eold,eci-eold=                    1                   71 -0.97680154410148345      -0.97679471408218976       -6.8300192936909809E-006 F
     orb,it,eci,eold,eci-eold=                    1                   72 -0.97680302277753872      -0.97680154410148345       -1.4786760552665257E-006 F
     orb,it,eci,eold,eci-eold=                    1                   73 -0.97681883513589018      -0.97680302277753872       -1.5812358351463551E-005 F
     orb,it,eci,eold,eci-eold=                    1                   74 -0.97682719898405723      -0.97681883513589018       -8.3638481670478271E-006 F
     orb,it,eci,eold,eci-eold=                    1                   75 -0.97683067302810556      -0.97682719898405723       -3.4740440483238544E-006 F
     orb,it,eci,eold,eci-eold=                    1                   76 -0.97684494462365168      -0.97683067302810556       -1.4271595546122562E-005 F
     orb,it,eci,eold,eci-eold=                    1                   77 -0.97684981297789841      -0.97684494462365168       -4.8683542467342633E-006 F
     orb,it,eci,eold,eci-eold=                    1                   78 -0.97685135309455262      -0.97684981297789841       -1.5401166542083899E-006 F
     orb,it,eci,eold,eci-eold=                    1                   79 -0.97686156779997524      -0.97685135309455262       -1.0214705422617598E-005 F
     orb,it,eci,eold,eci-eold=                    1                   80 -0.97686594070059252      -0.97686156779997524       -4.3729006172776863E-006 F
     orb,it,eci,eold,eci-eold=                    1                   81 -0.97686775312559071      -0.97686594070059252       -1.8124249981932294E-006 F
     orb,it,eci,eold,eci-eold=                    1                   82 -0.97687684011362663      -0.97686775312559071       -9.0869880359223387E-006 F
     orb,it,eci,eold,eci-eold=                    1                   83 -0.97688068090653513      -0.97687684011362663       -3.8407929084938175E-006 F
     orb,it,eci,eold,eci-eold=                    1                   84 -0.97688205048144794      -0.97688068090653513       -1.3695749128128654E-006 F
     orb,it,eci,eold,eci-eold=                    1                   85 -0.97688911942864798      -0.97688205048144794       -7.0689472000395881E-006 F
     orb,it,eci,eold,eci-eold=                    1                   86 -0.97689163091594122      -0.97688911942864798       -2.5114872932441301E-006 F
     orb,it,eci,eold,eci-eold=                    1                   87 -0.97689252317939501      -0.97689163091594122       -8.9226345378889960E-007 F
     orb,it,eci,eold,eci-eold=                    1                   88 -0.97689867416696941      -0.97689252317939501       -6.1509875743936959E-006 F
     orb,it,eci,eold,eci-eold=                    1                   89 -0.97690205288709031      -0.97689867416696941       -3.3787201209056761E-006 F
     orb,it,eci,eold,eci-eold=                    1                   90 -0.97690334841420123      -0.97690205288709031       -1.2955271109227340E-006 F
     orb,it,eci,eold,eci-eold=                    1                   91 -0.97690851502341536      -0.97690334841420123       -5.1666092141244846E-006 F
     orb,it,eci,eold,eci-eold=                    1                   92 -0.97690957829520575      -0.97690851502341536       -1.0632717903913402E-006 F
     orb,it,eci,eold,eci-eold=                    1                   93 -0.97690967561552400      -0.97690957829520575       -9.7320318248605986E-008 F
     orb,it,eci,eold,eci-eold=                    1                   94 -0.97691333825191873      -0.97690967561552400       -3.6626363947300788E-006 F
     orb,it,eci,eold,eci-eold=                    1                   95 -0.97691561402792493      -0.97691333825191873       -2.2757760061997701E-006 F
     orb,it,eci,eold,eci-eold=                    1                   96 -0.97691642160294234      -0.97691561402792493       -8.0757501741413051E-007 F
     orb,it,eci,eold,eci-eold=                    1                   97 -0.97691957762083736      -0.97691642160294234       -3.1560178950229556E-006 F
     orb,it,eci,eold,eci-eold=                    1                   98 -0.97692066234421449      -0.97691957762083736       -1.0847233771205111E-006 F
     orb,it,eci,eold,eci-eold=                    1                   99 -0.97692108654825960      -0.97692066234421449       -4.2420404511300802E-007 F
     orb,it,eci,eold,eci-eold=                    1                  100 -0.97692354753325494      -0.97692108654825960       -2.4609849953449725E-006 F
     orb,it,eci,eold,eci-eold=                    1                  101 -0.97692424099774444      -0.97692354753325494       -6.9346448949847428E-007 F
     orb,it,eci,eold,eci-eold=                    1                  102 -0.97692434778490078      -0.97692424099774444       -1.0678715633982705E-007 F
     orb,it,eci,eold,eci-eold=                    1                  103 -0.97692604252844362      -0.97692434778490078       -1.6947435428349422E-006 F
     orb,it,eci,eold,eci-eold=                    1                  104 -0.97692694210091546      -0.97692604252844362       -8.9957247184635492E-007 F
     orb,it,eci,eold,eci-eold=                    1                  105 -0.97692731522237686      -0.97692694210091546       -3.7312146139445446E-007 F
     orb,it,eci,eold,eci-eold=                    1                  106 -0.97692894839705757      -0.97692731522237686       -1.6331746807152214E-006 F
     orb,it,eci,eold,eci-eold=                    1                  107 -0.97692951656109495      -0.97692894839705757       -5.6816403737336429E-007 F
     orb,it,eci,eold,eci-eold=                    1                  108 -0.97692968416093395      -0.97692951656109495       -1.6759983900715980E-007 F
     orb,it,eci,eold,eci-eold=                    1                  109 -0.97693101921147474      -0.97692968416093395       -1.3350505407849766E-006 F
     orb,it,eci,eold,eci-eold=                    1                  110 -0.97693172252403837      -0.97693101921147474       -7.0331256363243000E-007 F
     orb,it,eci,eold,eci-eold=                    1                  111 -0.97693195184287951      -0.97693172252403837       -2.2931884113841505E-007 F
     orb,it,eci,eold,eci-eold=                    1                  112 -0.97693309373434989      -0.97693195184287951       -1.1418914703797967E-006 F
     orb,it,eci,eold,eci-eold=                    1                  113 -0.97693359800818602      -0.97693309373434989       -5.0427383613271815E-007 F
     orb,it,eci,eold,eci-eold=                    1                  114 -0.97693377352134414      -0.97693359800818602       -1.7551315811825674E-007 F
     orb,it,eci,eold,eci-eold=                    1                  115 -0.97693471112685615      -0.97693377352134414       -9.3760551200805509E-007 F
     orb,it,eci,eold,eci-eold=                    1                  116 -0.97693504521754404      -0.97693471112685615       -3.3409068789236329E-007 F
     orb,it,eci,eold,eci-eold=                    1                  117 -0.97693513173732871      -0.97693504521754404       -8.6519784670002764E-008 F
     orb,it,eci,eold,eci-eold=                    1                  118 -0.97693587247753821      -0.97693513173732871       -7.4074020950387620E-007 F
     orb,it,eci,eold,eci-eold=                    1                  119 -0.97693626901946029      -0.97693587247753821       -3.9654192207638772E-007 F
     orb,it,eci,eold,eci-eold=                    1                  120 -0.97693640859811393      -0.97693626901946029       -1.3957865363511957E-007 F
     orb,it,eci,eold,eci-eold=                    1                  121 -0.97693702350913447      -0.97693640859811393       -6.1491102054667124E-007 F
     orbital   1 current e= -0.150596E+00 error=0.758E-01 (eci= -0.976937024E+00 error=0.615E-06) iterations 121(   0 preconditioned, Ep,Sp= 20.0  200.0)
     orb,it,eci,eold,eci-eold=                    1                    1 -0.97693874152780635      -0.97693702350913447       -1.7180186718812607E-006 F
     orb,it,eci,eold,eci-eold=                    1                    2 -0.97693920689612246      -0.97693874152780635       -4.6536831610488605E-007 F
     orb,it,eci,eold,eci-eold=                    1                    3 -0.97693921989659538      -0.97693920689612246       -1.3000472920410289E-008 F
     orb,it,eci,eold,eci-eold=                    1                    4 -0.97693966205869720      -0.97693921989659538       -4.4216210182135285E-007 F
     orb,it,eci,eold,eci-eold=                    1                    5 -0.97694004584932159      -0.97693966205869720       -3.8379062439197753E-007 F
     orb,it,eci,eold,eci-eold=                    1                    6 -0.97694026181878812      -0.97694004584932159       -2.1596946653268390E-007 F
     orb,it,eci,eold,eci-eold=                    1                    7 -0.97694046246837818      -0.97694026181878812       -2.0064959005416938E-007 F
     orb,it,eci,eold,eci-eold=                    1                    8 -0.97694060538381611      -0.97694046246837818       -1.4291543792843697E-007 F
     orb,it,eci,eold,eci-eold=                    1                    9 -0.97694067754947078      -0.97694060538381611       -7.2165654674272162E-008 F
     orb,it,eci,eold,eci-eold=                    1                   10 -0.97694074077901261      -0.97694067754947078       -6.3229541824583180E-008 F
     orb,it,eci,eold,eci-eold=                    1                   11 -0.97694076870942337      -0.97694074077901261       -2.7930410761989322E-008 F
     orb,it,eci,eold,eci-eold=                    1                   12 -0.97694081257861731      -0.97694076870942337       -4.3869193944168217E-008 F
     orb,it,eci,eold,eci-eold=                    1                   13 -0.97694084121368963      -0.97694081257861731       -2.8635072313321075E-008 F
     orb,it,eci,eold,eci-eold=                    1                   14 -0.97694088158470271      -0.97694084121368963       -4.0371013088069674E-008 F
     orb,it,eci,eold,eci-eold=                    1                   15 -0.97694090115934973      -0.97694088158470271       -1.9574647014408697E-008 F
     orb,it,eci,eold,eci-eold=                    1                   16 -0.97694091809298922      -0.97694090115934973       -1.6933639490623875E-008 F
     orb,it,eci,eold,eci-eold=                    1                   17 -0.97694092604153371      -0.97694091809298922       -7.9485444892668511E-009 F
     orb,it,eci,eold,eci-eold=                    1                   18 -0.97694093886511213      -0.97694092604153371       -1.2823578421361503E-008 F
     orb,it,eci,eold,eci-eold=                    1                   19 -0.97694094022973710      -0.97694093886511213       -1.3646249685805856E-009 F
     orb,it,eci,eold,eci-eold=                    1                   20 -0.97694094493407535      -0.97694094022973710       -4.7043382522815591E-009 F
     orb,it,eci,eold,eci-eold=                    1                   21 -0.97694095301997830      -0.97694094493407535       -8.0859029472080124E-009 F
     orb,it,eci,eold,eci-eold=                    1                   22 -0.97694095654967383      -0.97694095301997830       -3.5296955358532500E-009 F
     orb,it,eci,eold,eci-eold=                    1                   23 -0.97694096180986656      -0.97694095654967383       -5.2601927258422165E-009 F
     orb,it,eci,eold,eci-eold=                    1                   24 -0.97694096287514243      -0.97694096180986656       -1.0652758675178120E-009 F
     orb,it,eci,eold,eci-eold=                    1                   25 -0.97694096451315193      -0.97694096287514243       -1.6380095058110555E-009 F
     orb,it,eci,eold,eci-eold=                    1                   26 -0.97694096750163428      -0.97694096451315193       -2.9884823504744418E-009 F
     orb,it,eci,eold,eci-eold=                    1                   27 -0.97694096750163428      -0.97694096750163428        0.0000000000000000      F
     orbital   1 current e= -0.150595E+00 error=0.995E-06 (eci= -0.976940968E+00 error=0.000E+00) iterations  27(   0 preconditioned, Ep,Sp= 20.0  200.0)
     orb,it,eci,eold,eci-eold=                    1                    1 -0.97694097518079626      -0.97694096715140932       -8.0293869331171663E-009 F
     orb,it,eci,eold,eci-eold=                    1                    2 -0.97694097669491153      -0.97694097518079626       -1.5141152776010358E-009 F
     orb,it,eci,eold,eci-eold=                    1                    3 -0.97694097780177702      -0.97694097669491153       -1.1068654881540851E-009 F
     orb,it,eci,eold,eci-eold=                    1                    4 -0.97694097780177702      -0.97694097780177702        0.0000000000000000      F
     orbital   1 current e= -0.150595E+00 error=0.211E-07 (eci= -0.976940978E+00 error=0.000E+00) iterations   4(   0 preconditioned, Ep,Sp= 20.0  200.0)
     orb,it,eci,eold,eci-eold=                    2                    1 -0.80338351762083759      -0.80285607089659683       -5.2744672424076544E-004 F
     orb,it,eci,eold,eci-eold=                    2                    2 -0.80342472573204793      -0.80338351762083759       -4.1208111210333520E-005 F
     orb,it,eci,eold,eci-eold=                    2                    3 -0.80346727281061514      -0.80342472573204793       -4.2547078567212182E-005 F
     orb,it,eci,eold,eci-eold=                    2                    4 -0.80357845186839882      -0.80346727281061514       -1.1117905778368353E-004 F
     orb,it,eci,eold,eci-eold=                    2                    5 -0.80364393919583099      -0.80357845186839882       -6.5487327432167675E-005 F
     orb,it,eci,eold,eci-eold=                    2                    6 -0.80373681321155299      -0.80364393919583099       -9.2874015721999825E-005 F
     orb,it,eci,eold,eci-eold=                    2                    7 -0.80379897268037337      -0.80373681321155299       -6.2159468820377484E-005 F
     orb,it,eci,eold,eci-eold=                    2                    8 -0.80385008390115820      -0.80379897268037337       -5.1111220784827438E-005 F
     orb,it,eci,eold,eci-eold=                    2                    9 -0.80387519689428055      -0.80385008390115820       -2.5112993122355931E-005 F
     orb,it,eci,eold,eci-eold=                    2                   10 -0.80390000025809816      -0.80387519689428055       -2.4803363817604840E-005 F
     orb,it,eci,eold,eci-eold=                    2                   11 -0.80390891935180608      -0.80390000025809816       -8.9190937079264287E-006 F
     orb,it,eci,eold,eci-eold=                    2                   12 -0.80391290996994869      -0.80390891935180608       -3.9906181426019316E-006 F
     orb,it,eci,eold,eci-eold=                    2                   13 -0.80395020681500307      -0.80391290996994869       -3.7296845054379801E-005 F
     orb,it,eci,eold,eci-eold=                    2                   14 -0.80397243264095664      -0.80395020681500307       -2.2225825953570144E-005 F
     orb,it,eci,eold,eci-eold=                    2                   15 -0.80398926716439734      -0.80397243264095664       -1.6834523440700799E-005 F
     orb,it,eci,eold,eci-eold=                    2                   16 -0.80399808436316866      -0.80398926716439734       -8.8171987713270283E-006 F
     orb,it,eci,eold,eci-eold=                    2                   17 -0.80402986635178098      -0.80399808436316866       -3.1781988612311629E-005 F
     orb,it,eci,eold,eci-eold=                    2                   18 -0.80404179348984228      -0.80402986635178098       -1.1927138061307296E-005 F
     orb,it,eci,eold,eci-eold=                    2                   19 -0.80404557653309272      -0.80404179348984228       -3.7830432504382117E-006 F
     orb,it,eci,eold,eci-eold=                    2                   20 -0.80406503532818130      -0.80404557653309272       -1.9458795088578285E-005 F
     orb,it,eci,eold,eci-eold=                    2                   21 -0.80406907548494888      -0.80406503532818130       -4.0401567675818484E-006 F
     orb,it,eci,eold,eci-eold=                    2                   22 -0.80407118209149209      -0.80406907548494888       -2.1066065432062686E-006 F
     orb,it,eci,eold,eci-eold=                    2                   23 -0.80408843987407153      -0.80407118209149209       -1.7257782579438441E-005 F
     orb,it,eci,eold,eci-eold=                    2                   24 -0.80409460854650172      -0.80408843987407153       -6.1686724301956986E-006 F
     orb,it,eci,eold,eci-eold=                    2                   25 -0.80409582004745972      -0.80409460854650172       -1.2115009579982683E-006 F
     orb,it,eci,eold,eci-eold=                    2                   26 -0.80410637452162304      -0.80409582004745972       -1.0554474163315675E-005 F
     orb,it,eci,eold,eci-eold=                    2                   27 -0.80410908695817052      -0.80410637452162304       -2.7124365474806567E-006 F
     orb,it,eci,eold,eci-eold=                    2                   28 -0.80411040102551201      -0.80410908695817052       -1.3140673414957504E-006 F
     orb,it,eci,eold,eci-eold=                    2                   29 -0.80412053931569460      -0.80411040102551201       -1.0138290182593046E-005 F
     orb,it,eci,eold,eci-eold=                    2                   30 -0.80412320010729821      -0.80412053931569460       -2.6607916036036627E-006 F
     orb,it,eci,eold,eci-eold=                    2                   31 -0.80412413207669964      -0.80412320010729821       -9.3196940142981077E-007 F
     orb,it,eci,eold,eci-eold=                    2                   32 -0.80413269998239834      -0.80412413207669964       -8.5679056986975866E-006 F
     orb,it,eci,eold,eci-eold=                    2                   33 -0.80413296785552690      -0.80413269998239834       -2.6787312856768608E-007 F
     orb,it,eci,eold,eci-eold=                    2                   34 -0.80413347938021285      -0.80413296785552690       -5.1152468594217737E-007 F
     orb,it,eci,eold,eci-eold=                    2                   35 -0.80414035432575881      -0.80413347938021285       -6.8749455459649056E-006 F
     orb,it,eci,eold,eci-eold=                    2                   36 -0.80414209707952389      -0.80414035432575881       -1.7427537650771541E-006 F
     orb,it,eci,eold,eci-eold=                    2                   37 -0.80414248223922391      -0.80414209707952389       -3.8515970002261923E-007 F
     orb,it,eci,eold,eci-eold=                    2                   38 -0.80414859441787612      -0.80414248223922391       -6.1121786522067012E-006 F
     orb,it,eci,eold,eci-eold=                    2                   39 -0.80415046068447360      -0.80414859441787612       -1.8662665974833459E-006 F
     orb,it,eci,eold,eci-eold=                    2                   40 -0.80415106188297025      -0.80415046068447360       -6.0119849665252190E-007 F
     orb,it,eci,eold,eci-eold=                    2                   41 -0.80415476553043330      -0.80415106188297025       -3.7036474630491867E-006 F
     orb,it,eci,eold,eci-eold=                    2                   42 -0.80415549036672718      -0.80415476553043330       -7.2483629387498638E-007 F
     orb,it,eci,eold,eci-eold=                    2                   43 -0.80415570533904313      -0.80415549036672718       -2.1497231594835853E-007 F
     orb,it,eci,eold,eci-eold=                    2                   44 -0.80415893773620195      -0.80415570533904313       -3.2323971588255063E-006 F
     orb,it,eci,eold,eci-eold=                    2                   45 -0.80416064653758901      -0.80415893773620195       -1.7088013870569796E-006 F
     orb,it,eci,eold,eci-eold=                    2                   46 -0.80416117051533387      -0.80416064653758901       -5.2397774485957171E-007 F
     orb,it,eci,eold,eci-eold=                    2                   47 -0.80416362720792800      -0.80416117051533387       -2.4566925941327256E-006 F
     orb,it,eci,eold,eci-eold=                    2                   48 -0.80416396156195424      -0.80416362720792800       -3.3435402624348853E-007 F
     orb,it,eci,eold,eci-eold=                    2                   49 -0.80416400728493564      -0.80416396156195424       -4.5722981401041807E-008 F
     orb,it,eci,eold,eci-eold=                    2                   50 -0.80416611993193732      -0.80416400728493564       -2.1126470016730181E-006 F
     orb,it,eci,eold,eci-eold=                    2                   51 -0.80416709697376310      -0.80416611993193732       -9.7704182577817988E-007 F
     orb,it,eci,eold,eci-eold=                    2                   52 -0.80416724945281204      -0.80416709697376310       -1.5247904894266640E-007 F
     orb,it,eci,eold,eci-eold=                    2                   53 -0.80416896318800091      -0.80416724945281204       -1.7137351888685259E-006 F
     orb,it,eci,eold,eci-eold=                    2                   54 -0.80416961918341767      -0.80416896318800091       -6.5599541676508721E-007 F
     orb,it,eci,eold,eci-eold=                    2                   55 -0.80416969277539863      -0.80416961918341767       -7.3591980953580105E-008 F
     orb,it,eci,eold,eci-eold=                    2                   56 -0.80417091313235023      -0.80416969277539863       -1.2203569516033852E-006 F
     orb,it,eci,eold,eci-eold=                    2                   57 -0.80417148693808749      -0.80417091313235023       -5.7380573725840378E-007 F
     orb,it,eci,eold,eci-eold=                    2                   58 -0.80417170960451623      -0.80417148693808749       -2.2266642873969289E-007 F
     orb,it,eci,eold,eci-eold=                    2                   59 -0.80417292305697097      -0.80417170960451623       -1.2134524547402492E-006 F
     orb,it,eci,eold,eci-eold=                    2                   60 -0.80417315474756590      -0.80417292305697097       -2.3169059493177713E-007 F
     orb,it,eci,eold,eci-eold=                    2                   61 -0.80417323434025700      -0.80417315474756590       -7.9592691104579671E-008 F
     orb,it,eci,eold,eci-eold=                    2                   62 -0.80417440453616540      -0.80417323434025700       -1.1701959083953994E-006 F
     orb,it,eci,eold,eci-eold=                    2                   63 -0.80417458648439855      -0.80417440453616540       -1.8194823314665598E-007 F
     orb,it,eci,eold,eci-eold=                    2                   64 -0.80417466635829060      -0.80417458648439855       -7.9873892055992712E-008 F
     orb,it,eci,eold,eci-eold=                    2                   65 -0.80417573936697506      -0.80417466635829060       -1.0730086844601416E-006 F
     orb,it,eci,eold,eci-eold=                    2                   66 -0.80417633207556904      -0.80417573936697506       -5.9270859398274922E-007 F
     orb,it,eci,eold,eci-eold=                    2                   67 -0.80417673350997987      -0.80417633207556904       -4.0143441082385323E-007 F
     orb,it,eci,eold,eci-eold=                    2                   68 -0.80417691732894170      -0.80417673350997987       -1.8381896182972923E-007 F
     orb,it,eci,eold,eci-eold=                    2                   69 -0.80417740059628295      -0.80417691732894170       -4.8326734125581083E-007 F
     orb,it,eci,eold,eci-eold=                    2                   70 -0.80417742749277776      -0.80417740059628295       -2.6896494809136584E-008 F
     orb,it,eci,eold,eci-eold=                    2                   71 -0.80417746655308686      -0.80417742749277776       -3.9060309098282175E-008 F
     orb,it,eci,eold,eci-eold=                    2                   72 -0.80417784077034238      -0.80417746655308686       -3.7421725551656237E-007 F
     orb,it,eci,eold,eci-eold=                    2                   73 -0.80417802892937806      -0.80417784077034238       -1.8815903568558667E-007 F
     orb,it,eci,eold,eci-eold=                    2                   74 -0.80417825422460187      -0.80417802892937806       -2.2529522381020683E-007 F
     orb,it,eci,eold,eci-eold=                    2                   75 -0.80417839529017776      -0.80417825422460187       -1.4106557588711155E-007 F
     orb,it,eci,eold,eci-eold=                    2                   76 -0.80417859400089386      -0.80417839529017776       -1.9871071610388924E-007 F
     orb,it,eci,eold,eci-eold=                    2                   77 -0.80417869938489650      -0.80417859400089386       -1.0538400263548908E-007 F
     orb,it,eci,eold,eci-eold=                    2                   78 -0.80417888248724678      -0.80417869938489650       -1.8310235028184962E-007 F
     orb,it,eci,eold,eci-eold=                    2                   79 -0.80417888915776992      -0.80417888248724678       -6.6705231338559656E-009 F
     orb,it,eci,eold,eci-eold=                    2                   80 -0.80417889827441336      -0.80417888915776992       -9.1166434401657170E-009 F
     orb,it,eci,eold,eci-eold=                    2                   81 -0.80417903927904444      -0.80417889827441336       -1.4100463108235317E-007 F
     orb,it,eci,eold,eci-eold=                    2                   82 -0.80417910408023940      -0.80417903927904444       -6.4801194965546927E-008 F
     orb,it,eci,eold,eci-eold=                    2                   83 -0.80417911051125457      -0.80417910408023940       -6.4310151648427905E-009 F
     orb,it,eci,eold,eci-eold=                    2                   84 -0.80417919818326711      -0.80417911051125457       -8.7672012538675403E-008 F
     orb,it,eci,eold,eci-eold=                    2                   85 -0.80417924736119084      -0.80417919818326711       -4.9177923733267903E-008 F
     orb,it,eci,eold,eci-eold=                    2                   86 -0.80417926810440266      -0.80417924736119084       -2.0743211814888696E-008 F
     orb,it,eci,eold,eci-eold=                    2                   87 -0.80417934995709872      -0.80417926810440266       -8.1852696065531916E-008 F
     orb,it,eci,eold,eci-eold=                    2                   88 -0.80417938712458625      -0.80417934995709872       -3.7167487532130394E-008 F
     orb,it,eci,eold,eci-eold=                    2                   89 -0.80417940591700676      -0.80417938712458625       -1.8792420508617624E-008 F
     orb,it,eci,eold,eci-eold=                    2                   90 -0.80417948134761663      -0.80417940591700676       -7.5430609869364673E-008 F
     orb,it,eci,eold,eci-eold=                    2                   91 -0.80417950439740116      -0.80417948134761663       -2.3049784525497330E-008 F
     orb,it,eci,eold,eci-eold=                    2                   92 -0.80417950898378066      -0.80417950439740116       -4.5863794984057904E-009 F
     orb,it,eci,eold,eci-eold=                    2                   93 -0.80417955690463838      -0.80417950898378066       -4.7920857726424515E-008 F
     orb,it,eci,eold,eci-eold=                    2                   94 -0.80417958297788772      -0.80417955690463838       -2.6073249337343896E-008 F
     orb,it,eci,eold,eci-eold=                    2                   95 -0.80417959530980998      -0.80417958297788772       -1.2331922261132888E-008 F
     orb,it,eci,eold,eci-eold=                    2                   96 -0.80417963957182148      -0.80417959530980998       -4.4262011500428855E-008 F
     orb,it,eci,eold,eci-eold=                    2                   97 -0.80417964904011097      -0.80417963957182148       -9.4682894857811561E-009 F
     orb,it,eci,eold,eci-eold=                    2                   98 -0.80417965234025512      -0.80417964904011097       -3.3001441579472157E-009 F
     orb,it,eci,eold,eci-eold=                    2                   99 -0.80417969179600068      -0.80417965234025512       -3.9455745559635602E-008 F
     orb,it,eci,eold,eci-eold=                    2                  100 -0.80417971400319344      -0.80417969179600068       -2.2207192751366733E-008 F
     orb,it,eci,eold,eci-eold=                    2                  101 -0.80417971810535849      -0.80417971400319344       -4.1021650520889352E-009 F
     orb,it,eci,eold,eci-eold=                    2                  102 -0.80417974152396077      -0.80417971810535849       -2.3418602279612344E-008 F
     orb,it,eci,eold,eci-eold=                    2                  103 -0.80417975183852475      -0.80417974152396077       -1.0314563980706737E-008 F
     orb,it,eci,eold,eci-eold=                    2                  104 -0.80417975793605145      -0.80417975183852475       -6.0975267057727933E-009 F
     orb,it,eci,eold,eci-eold=                    2                  105 -0.80417978334497719      -0.80417975793605145       -2.5408925741210453E-008 F
     orb,it,eci,eold,eci-eold=                    2                  106 -0.80417979374021353      -0.80417978334497719       -1.0395236338389680E-008 F
     orb,it,eci,eold,eci-eold=                    2                  107 -0.80417979791292526      -0.80417979374021353       -4.1727117316980866E-009 F
     orb,it,eci,eold,eci-eold=                    2                  108 -0.80417982007378519      -0.80417979791292526       -2.2160859924902354E-008 F
     orb,it,eci,eold,eci-eold=                    2                  109 -0.80417982948114330      -0.80417982007378519       -9.4073581147213758E-009 F
     orb,it,eci,eold,eci-eold=                    2                  110 -0.80417983217580924      -0.80417982948114330       -2.6946659348325852E-009 F
     orb,it,eci,eold,eci-eold=                    2                  111 -0.80417984951272614      -0.80417983217580924       -1.7336916902088717E-008 F
     orb,it,eci,eold,eci-eold=                    2                  112 -0.80417985652172763      -0.80417984951272614       -7.0090014903101405E-009 F
     orb,it,eci,eold,eci-eold=                    2                  113 -0.80417985817201465      -0.80417985652172763       -1.6502870181511753E-009 F
     orb,it,eci,eold,eci-eold=                    2                  114 -0.80417987075985975      -0.80417985817201465       -1.2587845099609751E-008 F
     orb,it,eci,eold,eci-eold=                    2                  115 -0.80417987594968365      -0.80417987075985975       -5.1898239039616101E-009 F
     orb,it,eci,eold,eci-eold=                    2                  116 -0.80417987745238584      -0.80417987594968365       -1.5027021849078892E-009 F
     orb,it,eci,eold,eci-eold=                    2                  117 -0.80417988701368504      -0.80417987745238584       -9.5612991968252459E-009 F
     orb,it,eci,eold,eci-eold=                    2                  118 -0.80417989139390378      -0.80417988701368504       -4.3802187432717687E-009 F
     orb,it,eci,eold,eci-eold=                    2                  119 -0.80417989335391593      -0.80417989139390378       -1.9600121525797931E-009 F
     orb,it,eci,eold,eci-eold=                    2                  120 -0.80417990222365521      -0.80417989335391593       -8.8697392763847915E-009 F
     orb,it,eci,eold,eci-eold=                    2                  121 -0.80417990536659589      -0.80417990222365521       -3.1429406854854847E-009 F
     orbital   2 current e=  0.335794E+00 error=0.582E-01 (eci= -0.804179905E+00 error=0.314E-08) iterations 121(   0 preconditioned, Ep,Sp= 20.0  200.0)
     orb,it,eci,eold,eci-eold=                    2                    1 -0.80417992971634544      -0.80417990536659589       -2.4349749550012234E-008 F
     orb,it,eci,eold,eci-eold=                    2                    2 -0.80417994030243234      -0.80417992971634544       -1.0586086895969515E-008 F
     orb,it,eci,eold,eci-eold=                    2                    3 -0.80417994372362089      -0.80417994030243234       -3.4211885546753251E-009 F
     orb,it,eci,eold,eci-eold=                    2                    4 -0.80417995019464672      -0.80417994372362089       -6.4710258262934417E-009 F
     orb,it,eci,eold,eci-eold=                    2                    5 -0.80417995395142983      -0.80417995019464672       -3.7567831068230362E-009 F
     orb,it,eci,eold,eci-eold=                    2                    6 -0.80417995481024773      -0.80417995395142983       -8.5881790568009819E-010 F
     orbital   2 current e=  0.335725E+00 error=0.690E-04 (eci= -0.804179955E+00 error=0.859E-09) iterations   6(   0 preconditioned, Ep,Sp= 20.0  200.0)
     orb,it,eci,eold,eci-eold=                    2                    1 -0.80417995701518064      -0.80417995481024773       -2.2049329029272258E-009 F
     orb,it,eci,eold,eci-eold=                    2                    2 -0.80417995701518064      -0.80417995701518064        0.0000000000000000      F
     orbital   2 current e=  0.335721E+00 error=0.357E-05 (eci= -0.804179957E+00 error=0.000E+00) iterations   2(   0 preconditioned, Ep,Sp= 20.0  200.0)
     orb,it,eci,eold,eci-eold=                    3                    1 -0.80173039806790825      -0.80164750262429352       -8.2895443614727782E-005 F
     orb,it,eci,eold,eci-eold=                    3                    2 -0.80174166094418442      -0.80173039806790825       -1.1262876276174616E-005 F
     orb,it,eci,eold,eci-eold=                    3                    3 -0.80178278693370975      -0.80174166094418442       -4.1125989525325757E-005 F
     orb,it,eci,eold,eci-eold=                    3                    4 -0.80179244296318031      -0.80178278693370975       -9.6560294705616556E-006 F
     orb,it,eci,eold,eci-eold=                    3                    5 -0.80182480237542664      -0.80179244296318031       -3.2359412246329988E-005 F
     orb,it,eci,eold,eci-eold=                    3                    6 -0.80184961939777333      -0.80182480237542664       -2.4817022346690365E-005 F
     orb,it,eci,eold,eci-eold=                    3                    7 -0.80185938005961710      -0.80184961939777333       -9.7606618437717785E-006 F
     orb,it,eci,eold,eci-eold=                    3                    8 -0.80189633552028816      -0.80185938005961710       -3.6955460671062035E-005 F
     orb,it,eci,eold,eci-eold=                    3                    9 -0.80190027214095239      -0.80189633552028816       -3.9366206642243995E-006 F
     orb,it,eci,eold,eci-eold=                    3                   10 -0.80190267261075943      -0.80190027214095239       -2.4004698070401176E-006 F
     orb,it,eci,eold,eci-eold=                    3                   11 -0.80192883366397971      -0.80190267261075943       -2.6161053220286057E-005 F
     orb,it,eci,eold,eci-eold=                    3                   12 -0.80193575776679871      -0.80192883366397971       -6.9241028189948040E-006 F
     orb,it,eci,eold,eci-eold=                    3                   13 -0.80193899059187046      -0.80193575776679871       -3.2328250717528206E-006 F
     orb,it,eci,eold,eci-eold=                    3                   14 -0.80196208360474430      -0.80193899059187046       -2.3093012873842689E-005 F
     orb,it,eci,eold,eci-eold=                    3                   15 -0.80196726633007065      -0.80196208360474430       -5.1827253263470041E-006 F
     orb,it,eci,eold,eci-eold=                    3                   16 -0.80196823311075460      -0.80196726633007065       -9.6678068395306127E-007 F
     orb,it,eci,eold,eci-eold=                    3                   17 -0.80198709129661916      -0.80196823311075460       -1.8858185864556454E-005 F
     orb,it,eci,eold,eci-eold=                    3                   18 -0.80199416675079038      -0.80198709129661916       -7.0754541712236829E-006 F
     orb,it,eci,eold,eci-eold=                    3                   19 -0.80199542250876221      -0.80199416675079038       -1.2557579718297518E-006 F
     orb,it,eci,eold,eci-eold=                    3                   20 -0.80201079495153715      -0.80199542250876221       -1.5372442774941319E-005 F
     orb,it,eci,eold,eci-eold=                    3                   21 -0.80201683050805328      -0.80201079495153715       -6.0355565161263058E-006 F
     orb,it,eci,eold,eci-eold=                    3                   22 -0.80201843529121852      -0.80201683050805328       -1.6047831652432620E-006 F
     orb,it,eci,eold,eci-eold=                    3                   23 -0.80203150948013135      -0.80201843529121852       -1.3074188912831630E-005 F
     orb,it,eci,eold,eci-eold=                    3                   24 -0.80203632019512794      -0.80203150948013135       -4.8107149965836982E-006 F
     orb,it,eci,eold,eci-eold=                    3                   25 -0.80203789850618068      -0.80203632019512794       -1.5783110527411992E-006 F
     orb,it,eci,eold,eci-eold=                    3                   26 -0.80204952422169851      -0.80203789850618068       -1.1625715517826762E-005 F
     orb,it,eci,eold,eci-eold=                    3                   27 -0.80205249884832108      -0.80204952422169851       -2.9746266225760820E-006 F
     orb,it,eci,eold,eci-eold=                    3                   28 -0.80205262300550195      -0.80205249884832108       -1.2415718086966621E-007 F
     orb,it,eci,eold,eci-eold=                    3                   29 -0.80206052031281261      -0.80205262300550195       -7.8973073106558545E-006 F
     orb,it,eci,eold,eci-eold=                    3                   30 -0.80206278782042462      -0.80206052031281261       -2.2675076120082238E-006 F
     orb,it,eci,eold,eci-eold=                    3                   31 -0.80206288287046801      -0.80206278782042462       -9.5050043391609051E-008 F
     orb,it,eci,eold,eci-eold=                    3                   32 -0.80206840950637193      -0.80206288287046801       -5.5266359039185531E-006 F
     orb,it,eci,eold,eci-eold=                    3                   33 -0.80207001628631769      -0.80206840950637193       -1.6067799457619714E-006 F
     orb,it,eci,eold,eci-eold=                    3                   34 -0.80207020043708466      -0.80207001628631769       -1.8415076696864929E-007 F
     orb,it,eci,eold,eci-eold=                    3                   35 -0.80207431365748316      -0.80207020043708466       -4.1132203985050353E-006 F
     orb,it,eci,eold,eci-eold=                    3                   36 -0.80207628113077956      -0.80207431365748316       -1.9674732963936847E-006 F
     orb,it,eci,eold,eci-eold=                    3                   37 -0.80207711363656320      -0.80207628113077956       -8.3250578364335581E-007 F
     orb,it,eci,eold,eci-eold=                    3                   38 -0.80208098048035625      -0.80207711363656320       -3.8668437930544641E-006 F
     orb,it,eci,eold,eci-eold=                    3                   39 -0.80208239070664666      -0.80208098048035625       -1.4102262904103213E-006 F
     orb,it,eci,eold,eci-eold=                    3                   40 -0.80208296973557069      -0.80208239070664666       -5.7902892403038919E-007 F
     orb,it,eci,eold,eci-eold=                    3                   41 -0.80208609913909434      -0.80208296973557069       -3.1294035236495432E-006 F
     orb,it,eci,eold,eci-eold=                    3                   42 -0.80208720332968775      -0.80208609913909434       -1.1041905934039420E-006 F
     orb,it,eci,eold,eci-eold=                    3                   43 -0.80208764357227946      -0.80208720332968775       -4.4024259171493441E-007 F
     orb,it,eci,eold,eci-eold=                    3                   44 -0.80209018118502939      -0.80208764357227946       -2.5376127499310286E-006 F
     orb,it,eci,eold,eci-eold=                    3                   45 -0.80209088373544746      -0.80209018118502939       -7.0255041806355223E-007 F
     orb,it,eci,eold,eci-eold=                    3                   46 -0.80209107538144320      -0.80209088373544746       -1.9164599573961993E-007 F
     orb,it,eci,eold,eci-eold=                    3                   47 -0.80209298343573954      -0.80209107538144320       -1.9080542963401115E-006 F
     orb,it,eci,eold,eci-eold=                    3                   48 -0.80209356155841771      -0.80209298343573954       -5.7812267817425322E-007 F
     orb,it,eci,eold,eci-eold=                    3                   49 -0.80209368141625381      -0.80209356155841771       -1.1985783610057865E-007 F
     orb,it,eci,eold,eci-eold=                    3                   50 -0.80209514440840446      -0.80209368141625381       -1.4629921506470467E-006 F
     orb,it,eci,eold,eci-eold=                    3                   51 -0.80209554774861802      -0.80209514440840446       -4.0334021356169814E-007 F
     orb,it,eci,eold,eci-eold=                    3                   52 -0.80209558692110750      -0.80209554774861802       -3.9172489474381678E-008 F
     orb,it,eci,eold,eci-eold=                    3                   53 -0.80209671228460988      -0.80209558692110750       -1.1253635023855679E-006 F
     orb,it,eci,eold,eci-eold=                    3                   54 -0.80209711095441649      -0.80209671228460988       -3.9866980661162899E-007 F
     orb,it,eci,eold,eci-eold=                    3                   55 -0.80209715946240423      -0.80209711095441649       -4.8507987737700375E-008 F
     orb,it,eci,eold,eci-eold=                    3                   56 -0.80209805734359307      -0.80209715946240423       -8.9788118884381873E-007 F
     orb,it,eci,eold,eci-eold=                    3                   57 -0.80209839047587272      -0.80209805734359307       -3.3313227965070524E-007 F
     orb,it,eci,eold,eci-eold=                    3                   58 -0.80209844060070279      -0.80209839047587272       -5.0124830064390835E-008 F
     orb,it,eci,eold,eci-eold=                    3                   59 -0.80209918223873133      -0.80209844060070279       -7.4163802854521066E-007 F
     orb,it,eci,eold,eci-eold=                    3                   60 -0.80209946426232348      -0.80209918223873133       -2.8202359214635209E-007 F
     orb,it,eci,eold,eci-eold=                    3                   61 -0.80209950836714128      -0.80209946426232348       -4.4104817797929741E-008 F
     orb,it,eci,eold,eci-eold=                    3                   62 -0.80210012566354361      -0.80209950836714128       -6.1729640232766059E-007 F
     orb,it,eci,eold,eci-eold=                    3                   63 -0.80210038958385343      -0.80210012566354361       -2.6392030982869130E-007 F
     orb,it,eci,eold,eci-eold=                    3                   64 -0.80210044597655461      -0.80210038958385343       -5.6392701175411730E-008 F
     orb,it,eci,eold,eci-eold=                    3                   65 -0.80210095463843323      -0.80210044597655461       -5.0866187861764445E-007 F
     orb,it,eci,eold,eci-eold=                    3                   66 -0.80210112314824689      -0.80210095463843323       -1.6850981365834627E-007 F
     orb,it,eci,eold,eci-eold=                    3                   67 -0.80210114233061292      -0.80210112314824689       -1.9182366028935860E-008 F
     orb,it,eci,eold,eci-eold=                    3                   68 -0.80210148444570184      -0.80210114233061292       -3.4211508892489917E-007 F
     orb,it,eci,eold,eci-eold=                    3                   69 -0.80210157891606437      -0.80210148444570184       -9.4470362532739216E-008 F
     orb,it,eci,eold,eci-eold=                    3                   70 -0.80210159357979638      -0.80210157891606437       -1.4663732006425789E-008 F
     orb,it,eci,eold,eci-eold=                    3                   71 -0.80210187629799823      -0.80210159357979638       -2.8271820184944119E-007 F
     orb,it,eci,eold,eci-eold=                    3                   72 -0.80210202342479731      -0.80210187629799823       -1.4712679907713522E-007 F
     orb,it,eci,eold,eci-eold=                    3                   73 -0.80210207638553865      -0.80210202342479731       -5.2960741347973794E-008 F
     orb,it,eci,eold,eci-eold=                    3                   74 -0.80210233229955186      -0.80210207638553865       -2.5591401320301799E-007 F
     orb,it,eci,eold,eci-eold=                    3                   75 -0.80210240044371439      -0.80210233229955186       -6.8144162534977681E-008 F
     orb,it,eci,eold,eci-eold=                    3                   76 -0.80210241566955154      -0.80210240044371439       -1.5225837146637389E-008 F
     orb,it,eci,eold,eci-eold=                    3                   77 -0.80210260751835571      -0.80210241566955154       -1.9184880417633110E-007 F
     orb,it,eci,eold,eci-eold=                    3                   78 -0.80210265095416222      -0.80210260751835571       -4.3435806507119423E-008 F
     orb,it,eci,eold,eci-eold=                    3                   79 -0.80210266518618512      -0.80210265095416222       -1.4232022893523322E-008 F
     orb,it,eci,eold,eci-eold=                    3                   80 -0.80210284770669482      -0.80210266518618512       -1.8252050970612999E-007 F
     orb,it,eci,eold,eci-eold=                    3                   81 -0.80210294186850883      -0.80210284770669482       -9.4161814012672096E-008 F
     orb,it,eci,eold,eci-eold=                    3                   82 -0.80210300251794131      -0.80210294186850883       -6.0649432476189702E-008 F
     orb,it,eci,eold,eci-eold=                    3                   83 -0.80210303300306851      -0.80210300251794131       -3.0485127200385875E-008 F
     orb,it,eci,eold,eci-eold=                    3                   84 -0.80210311135682955      -0.80210303300306851       -7.8353761034932745E-008 F
     orb,it,eci,eold,eci-eold=                    3                   85 -0.80210311702921278      -0.80210311135682955       -5.6723832297933541E-009 F
     orb,it,eci,eold,eci-eold=                    3                   86 -0.80210312084608870      -0.80210311702921278       -3.8168759264323171E-009 F
     orb,it,eci,eold,eci-eold=                    3                   87 -0.80210318336931374      -0.80210312084608870       -6.2523225041744013E-008 F
     orb,it,eci,eold,eci-eold=                    3                   88 -0.80210320437113658      -0.80210318336931374       -2.1001822836375084E-008 F
     orb,it,eci,eold,eci-eold=                    3                   89 -0.80210320527784051      -0.80210320437113658       -9.0670393415592798E-010 F
     orbital   3 current e=  0.373415E+00 error=0.754E-01 (eci= -0.802103205E+00 error=0.907E-09) iterations  89(   0 preconditioned, Ep,Sp= 20.0  200.0)
     orb,it,eci,eold,eci-eold=                    3                    1 -0.80210333122374466      -0.80210320527784051       -1.2594590415027085E-007 F
     orb,it,eci,eold,eci-eold=                    3                    2 -0.80210340408992309      -0.80210333122374466       -7.2866178424391137E-008 F
     orb,it,eci,eold,eci-eold=                    3                    3 -0.80210341199180557      -0.80210340408992309       -7.9018824816756705E-009 F
     orb,it,eci,eold,eci-eold=                    3                    4 -0.80210345329850841      -0.80210341199180557       -4.1306702835974818E-008 F
     orb,it,eci,eold,eci-eold=                    3                    5 -0.80210346604395366      -0.80210345329850841       -1.2745445254758181E-008 F
     orb,it,eci,eold,eci-eold=                    3                    6 -0.80210346903856111      -0.80210346604395366       -2.9946074509012988E-009 F
     orb,it,eci,eold,eci-eold=                    3                    7 -0.80210352296555354      -0.80210346903856111       -5.3926992427122400E-008 F
     orb,it,eci,eold,eci-eold=                    3                    8 -0.80210354728828115      -0.80210352296555354       -2.4322727609771277E-008 F
     orb,it,eci,eold,eci-eold=                    3                    9 -0.80210354777107318      -0.80210354728828115       -4.8279202857770542E-010 F
     orbital   3 current e=  0.373311E+00 error=0.105E-03 (eci= -0.802103548E+00 error=0.483E-09) iterations   9(   0 preconditioned, Ep,Sp= 20.0  200.0)
     orb,it,eci,eold,eci-eold=                    3                    1 -0.80210355538271561      -0.80210354777107318       -7.6116424274630390E-009 F
     orb,it,eci,eold,eci-eold=                    3                    2 -0.80210355820031931      -0.80210355538271561       -2.8176037059068904E-009 F
     orb,it,eci,eold,eci-eold=                    3                    3 -0.80210357238649688      -0.80210355820031931       -1.4186177565989055E-008 F
     orb,it,eci,eold,eci-eold=                    3                    4 -0.80210357238649688      -0.80210357238649688        0.0000000000000000      F
     orbital   3 current e=  0.373317E+00 error=0.637E-05 (eci= -0.802103572E+00 error=0.000E+00) iterations   4(   0 preconditioned, Ep,Sp= 20.0  200.0)
     orb,it,eci,eold,eci-eold=                    4                    1 -0.80143958007729421      -0.80135439029214806       -8.5189785146155828E-005 F
     orb,it,eci,eold,eci-eold=                    4                    2 -0.80144920515318807      -0.80143958007729421       -9.6250758938598580E-006 F
     orb,it,eci,eold,eci-eold=                    4                    3 -0.80149015751497776      -0.80144920515318807       -4.0952361789692304E-005 F
     orb,it,eci,eold,eci-eold=                    4                    4 -0.80152175799619929      -0.80149015751497776       -3.1600481221527588E-005 F
     orb,it,eci,eold,eci-eold=                    4                    5 -0.80152532648196162      -0.80152175799619929       -3.5684857623285993E-006 F
     orb,it,eci,eold,eci-eold=                    4                    6 -0.80152638808555376      -0.80152532648196162       -1.0616035921451328E-006 F
     orb,it,eci,eold,eci-eold=                    4                    7 -0.80155344869621281      -0.80152638808555376       -2.7060610659046525E-005 F
     orb,it,eci,eold,eci-eold=                    4                    8 -0.80156438264770880      -0.80155344869621281       -1.0933951495983862E-005 F
     orb,it,eci,eold,eci-eold=                    4                    9 -0.80157264416788376      -0.80156438264770880       -8.2615201749680622E-006 F
     orb,it,eci,eold,eci-eold=                    4                   10 -0.80157605293430922      -0.80157264416788376       -3.4087664254611738E-006 F
     orb,it,eci,eold,eci-eold=                    4                   11 -0.80158093106143724      -0.80157605293430922       -4.8781271280162741E-006 F
     orb,it,eci,eold,eci-eold=                    4                   12 -0.80158595454037018      -0.80158093106143724       -5.0234789329417495E-006 F
     orb,it,eci,eold,eci-eold=                    4                   13 -0.80158940401376821      -0.80158595454037018       -3.4494733980316994E-006 F
     orb,it,eci,eold,eci-eold=                    4                   14 -0.80160013377014527      -0.80158940401376821       -1.0729756377059196E-005 F
     orb,it,eci,eold,eci-eold=                    4                   15 -0.80160151013604020      -0.80160013377014527       -1.3763658949228486E-006 F
     orb,it,eci,eold,eci-eold=                    4                   16 -0.80160203761489490      -0.80160151013604020       -5.2747885470605382E-007 F
     orb,it,eci,eold,eci-eold=                    4                   17 -0.80160888441542644      -0.80160203761489490       -6.8468005315347469E-006 F
     orb,it,eci,eold,eci-eold=                    4                   18 -0.80160923128204564      -0.80160888441542644       -3.4686661920524386E-007 F
     orb,it,eci,eold,eci-eold=                    4                   19 -0.80160956755432733      -0.80160923128204564       -3.3627228168686685E-007 F
     orb,it,eci,eold,eci-eold=                    4                   20 -0.80161442810929895      -0.80160956755432733       -4.8605549716196350E-006 F
     orb,it,eci,eold,eci-eold=                    4                   21 -0.80161608067109524      -0.80161442810929895       -1.6525617962948047E-006 F
     orb,it,eci,eold,eci-eold=                    4                   22 -0.80161638779544220      -0.80161608067109524       -3.0712434695434609E-007 F
     orb,it,eci,eold,eci-eold=                    4                   23 -0.80161993147719268      -0.80161638779544220       -3.5436817504841400E-006 F
     orb,it,eci,eold,eci-eold=                    4                   24 -0.80162123308561528      -0.80161993147719268       -1.3016084225991875E-006 F
     orb,it,eci,eold,eci-eold=                    4                   25 -0.80162164444031836      -0.80162123308561528       -4.1135470307818167E-007 F
     orb,it,eci,eold,eci-eold=                    4                   26 -0.80162479617837923      -0.80162164444031836       -3.1517380608692136E-006 F
     orb,it,eci,eold,eci-eold=                    4                   27 -0.80162585098228578      -0.80162479617837923       -1.0548039065527703E-006 F
     orb,it,eci,eold,eci-eold=                    4                   28 -0.80162600417352037      -0.80162585098228578       -1.5319123458645834E-007 F
     orb,it,eci,eold,eci-eold=                    4                   29 -0.80162811107359300      -0.80162600417352037       -2.1069000726292586E-006 F
     orb,it,eci,eold,eci-eold=                    4                   30 -0.80162871335096719      -0.80162811107359300       -6.0227737419538130E-007 F
     orb,it,eci,eold,eci-eold=                    4                   31 -0.80162887437066577      -0.80162871335096719       -1.6101969857462706E-007 F
     orb,it,eci,eold,eci-eold=                    4                   32 -0.80163090895066202      -0.80162887437066577       -2.0345799962573352E-006 F
     orb,it,eci,eold,eci-eold=                    4                   33 -0.80163160596040850      -0.80163090895066202       -6.9700974647535219E-007 F
     orb,it,eci,eold,eci-eold=                    4                   34 -0.80163179239435567      -0.80163160596040850       -1.8643394716910677E-007 F
     orb,it,eci,eold,eci-eold=                    4                   35 -0.80163360895805391      -0.80163179239435567       -1.8165636982425681E-006 F
     orb,it,eci,eold,eci-eold=                    4                   36 -0.80163462933675400      -0.80163360895805391       -1.0203787000895304E-006 F
     orb,it,eci,eold,eci-eold=                    4                   37 -0.80163566611652182      -0.80163462933675400       -1.0367797678156876E-006 F
     orb,it,eci,eold,eci-eold=                    4                   38 -0.80163623265877904      -0.80163566611652182       -5.6654225721874951E-007 F
     orb,it,eci,eold,eci-eold=                    4                   39 -0.80163720693166296      -0.80163623265877904       -9.7427288392459843E-007 F
     orb,it,eci,eold,eci-eold=                    4                   40 -0.80163773885095368      -0.80163720693166296       -5.3191929072493593E-007 F
     orb,it,eci,eold,eci-eold=                    4                   41 -0.80163841927244683      -0.80163773885095368       -6.8042149314884171E-007 F
     orb,it,eci,eold,eci-eold=                    4                   42 -0.80163842785737061      -0.80163841927244683       -8.5849237718704785E-009 F
     orb,it,eci,eold,eci-eold=                    4                   43 -0.80163856993633253      -0.80163842785737061       -1.4207896192885983E-007 F
     orb,it,eci,eold,eci-eold=                    4                   44 -0.80163920734720029      -0.80163856993633253       -6.3741086775426226E-007 F
     orb,it,eci,eold,eci-eold=                    4                   45 -0.80163931363088714      -0.80163920734720029       -1.0628368685150491E-007 F
     orb,it,eci,eold,eci-eold=                    4                   46 -0.80163931598016913      -0.80163931363088714       -2.3492819911652418E-009 F
     orb,it,eci,eold,eci-eold=                    4                   47 -0.80163975901719953      -0.80163931598016913       -4.4303703039538789E-007 F
     orb,it,eci,eold,eci-eold=                    4                   48 -0.80164002772319776      -0.80163975901719953       -2.6870599822981234E-007 F
     orb,it,eci,eold,eci-eold=                    4                   49 -0.80164011198092533      -0.80164002772319776       -8.4257727572811802E-008 F
     orb,it,eci,eold,eci-eold=                    4                   50 -0.80164048008224642      -0.80164011198092533       -3.6810132109099669E-007 F
     orb,it,eci,eold,eci-eold=                    4                   51 -0.80164058615492395      -0.80164048008224642       -1.0607267753037775E-007 F
     orb,it,eci,eold,eci-eold=                    4                   52 -0.80164062103209310      -0.80164058615492395       -3.4877169152736087E-008 F
     orb,it,eci,eold,eci-eold=                    4                   53 -0.80164090826956236      -0.80164062103209310       -2.8723746925418681E-007 F
     orb,it,eci,eold,eci-eold=                    4                   54 -0.80164099397720678      -0.80164090826956236       -8.5707644426058494E-008 F
     orb,it,eci,eold,eci-eold=                    4                   55 -0.80164100867642063      -0.80164099397720678       -1.4699213846114390E-008 F
     orb,it,eci,eold,eci-eold=                    4                   56 -0.80164124329504638      -0.80164100867642063       -2.3461862574958303E-007 F
[...]
   16   13   16   16       -0.0012937533
   16   13   17   16       -0.0000570414
   16   13   18   16        0.0000081670
   16   13   19   16       -0.0000069869
   16   13   17   17       -0.0013711939
   16   13   18   17       -0.0000044102
   16   13   19   17        0.0016030417
   16   13   18   18       -0.0013939360
   16   13   19   18        0.0016771540
   16   13   19   19       -0.0017359454
   17   13   17   13        0.0113936660
   17   13   18   13        0.0000350204
   17   13   19   13        0.0000037089
   17   13   14   14        0.0000091917
   17   13   15   14        0.0004864239
   17   13   16   14       -0.0000815373
   17   13   17   14        0.0000942085
   17   13   18   14       -0.0052348357
   17   13   19   14       -0.0000045230
   17   13   15   15        0.0000781471
   17   13   16   15        0.0000647687
   17   13   17   15       -0.0000879948
   17   13   18   15        0.0000305210
   17   13   19   15       -0.0041035836
   17   13   16   16       -0.0000873037
   17   13   17   16       -0.0000657302
   17   13   18   16       -0.0000115654
   17   13   19   16        0.0002497734
   17   13   17   17       -0.0000004910
   17   13   18   17       -0.0000003108
   17   13   19   17       -0.0001022210
   17   13   18   18       -0.0000015626
   17   13   19   18       -0.0001029047
   17   13   19   19        0.0000454230
   18   13   18   13        0.0113426982
   18   13   19   13        0.0000076156
   18   13   14   14       -0.0000387631
   18   13   15   14       -0.0000235527
   18   13   16   14        0.0000065779
   18   13   17   14        0.0052067163
   18   13   18   14        0.0000014161
   18   13   19   14        0.0000002389
   18   13   15   15        0.0000659649
   18   13   16   15       -0.0000626574
   18   13   17   15       -0.0000264648
   18   13   18   15       -0.0000832298
   18   13   19   15       -0.0080922251
   18   13   16   16        0.0000159893
   18   13   17   16       -0.0000064262
   18   13   18   16       -0.0000866164
   18   13   19   16       -0.0000077971
   18   13   17   17        0.0000004989
   18   13   18   17        0.0000006055
   18   13   19   17       -0.0000249307
   18   13   18   18       -0.0000000680
   18   13   19   18       -0.0000174278
   18   13   19   19        0.0000088562
   19   13   19   13        0.0113760941
   19   13   14   14        0.0000023720
   19   13   15   14       -0.0001737870
   19   13   16   14       -0.0000038811
   19   13   17   14        0.0000008641
   19   13   18   14        0.0000009019
   19   13   19   14       -0.0000012908
   19   13   15   15       -0.0006958765
   19   13   16   15        0.0001052515
   19   13   17   15       -0.0075729431
   19   13   18   15       -0.0042405652
   19   13   19   15        0.0001107122
   19   13   16   16       -0.0000023174
   19   13   17   16       -0.0000146263
   19   13   18   16        0.0002367031
   19   13   19   16       -0.0002804853
   19   13   17   17       -0.0000130724
   19   13   18   17       -0.0000062222
   19   13   19   17        0.0001887945
   19   13   18   18        0.0000021157
   19   13   19   18        0.0002142968
   19   13   19   19       -0.0000017936
   14   14   14   14        0.3154561144
   14   14   15   14       -0.0000127869
   14   14   16   14        0.0028469132
   14   14   17   14        0.0000043212
   14   14   18   14        0.0000038561
   14   14   19   14       -0.0000010257
   14   14   15   15        0.3129098696
   14   14   16   15        0.0010594749
   14   14   17   15       -0.0000230480
   14   14   18   15       -0.0005256664
   14   14   19   15        0.0000619273
   14   14   16   16        0.2741437010
   14   14   17   16       -0.0000133552
   14   14   18   16        0.0001198452
   14   14   19   16        0.0000029153
   14   14   17   17        0.2836416947
   14   14   18   17       -0.0000754479
   14   14   19   17        0.0001269451
   14   14   18   18        0.2839517801
   14   14   19   18        0.0001290933
   14   14   19   19        0.2866480820
   15   14   15   14        0.0658153637
   15   14   16   14        0.0039303240
   15   14   17   14        0.0000271658
   15   14   18   14       -0.0003882158
   15   14   19   14        0.0002924475
   15   14   15   15        0.0025514884
   15   14   16   15        0.0018702347
   15   14   17   15        0.0000557466
   15   14   18   15       -0.0000229301
   15   14   19   15        0.0000492683
   15   14   16   16        0.0010977957
   15   14   17   16       -0.0000358332
   15   14   18   16       -0.0000430588
   15   14   19   16        0.0001076193
   15   14   17   17       -0.0009516892
   15   14   18   17       -0.0000014864
   15   14   19   17       -0.0593792409
   15   14   18   18       -0.0008760096
   15   14   19   18       -0.0620838611
   15   14   19   19        0.0009752998
   16   14   16   14        0.0095632294
   16   14   17   14       -0.0000063673
   16   14   18   14        0.0000904555
   16   14   19   14        0.0000141154
   16   14   15   15        0.0065498248
   16   14   16   15        0.0001656014
   16   14   17   15       -0.0000261506
   16   14   18   15       -0.0000288476
   16   14   19   15        0.0000260435
   16   14   16   16        0.0018475260
   16   14   17   16        0.0000300609
   16   14   18   16        0.0000251453
   16   14   19   16        0.0000136978
   16   14   17   17        0.0019784616
   16   14   18   17       -0.0000035917
   16   14   19   17       -0.0040339505
   16   14   18   18        0.0020110556
   16   14   19   18       -0.0042192463
   16   14   19   19        0.0025463183
   17   14   17   14        0.0113601645
   17   14   18   14       -0.0000577628
   17   14   19   14        0.0000093666
   17   14   15   15        0.0000471806
   17   14   16   15       -0.0000579765
   17   14   17   15       -0.0000650734
   17   14   18   15       -0.0000448819
   17   14   19   15       -0.0069839802
   17   14   16   16        0.0000529304
   17   14   17   16        0.0001039703
   17   14   18   16        0.0000102223
   17   14   19   16       -0.0002378206
   17   14   17   17        0.0000020784
   17   14   18   17        0.0000001611
   17   14   19   17       -0.0000741209
   17   14   18   18        0.0000022204
   17   14   19   18       -0.0000699020
   17   14   19   19       -0.0000250461
   18   14   18   14        0.0113655134
   18   14   19   14        0.0000063813
   18   14   15   15       -0.0000415802
   18   14   16   15       -0.0000623305
   18   14   17   15        0.0000405468
   18   14   18   15       -0.0000627762
   18   14   19   15       -0.0017395655
   18   14   16   16        0.0000436888
   18   14   17   16       -0.0000244767
   18   14   18   16        0.0001322483
   18   14   19   16       -0.0003522032
   18   14   17   17        0.0000010755
   18   14   18   17       -0.0000000209
   18   14   19   17       -0.0000082822
   18   14   18   18        0.0000014395
   18   14   19   18       -0.0000068951
   18   14   19   19       -0.0000522022
   19   14   19   14        0.0113523283
   19   14   15   15       -0.0000457329
   19   14   16   15       -0.0000159402
   19   14   17   15       -0.0014606432
   19   14   18   15       -0.0066571897
   19   14   19   15        0.0000736218
   19   14   16   16        0.0000138340
   19   14   17   16       -0.0003302115
   19   14   18   16       -0.0002414297
   19   14   19   16        0.0003904944
   19   14   17   17       -0.0000080797
   19   14   18   17       -0.0000074790
   19   14   19   17       -0.0003146501
   19   14   18   18       -0.0000064029
   19   14   19   18       -0.0003179596
   19   14   19   19        0.0000050475
   15   15   15   15        0.3510518329
   15   15   16   15        0.0005937284
   15   15   17   15        0.0013019769
   15   15   18   15        0.0003839589
   15   15   19   15       -0.0000828304
   15   15   16   16        0.2755700912
   15   15   17   16       -0.0001855328
   15   15   18   16        0.0000685732
   15   15   19   16        0.0000500775
   15   15   17   17        0.2957435866
   15   15   18   17       -0.0000077345
   15   15   19   17       -0.0024422338
   15   15   18   18        0.2959830394
   15   15   19   18       -0.0025535180
   15   15   19   19        0.2994490451
   16   15   16   15        0.0026056726
   16   15   17   15       -0.0001033618
   16   15   18   15       -0.0000041133
   16   15   19   15        0.0000885985
   16   15   16   16       -0.0001338758
   16   15   17   16        0.0001969143
   16   15   18   16        0.0000566541
   16   15   19   16       -0.0000493542
   16   15   17   17        0.0001647237
   16   15   18   17       -0.0000038513
   16   15   19   17       -0.0002286694
   16   15   18   18        0.0001638102
   16   15   19   18       -0.0002450691
   16   15   19   19        0.0001793639
   17   15   17   15        0.0109405420
   17   15   18   15       -0.0000109466
   17   15   19   15       -0.0001280080
   17   15   16   16       -0.0003231655
   17   15   17   16        0.0000014527
   17   15   18   16       -0.0003886973
   17   15   19   16        0.0005190516
   17   15   17   17        0.0000028895
   17   15   18   17        0.0000000990
   17   15   19   17       -0.0000048106
   17   15   18   18       -0.0000132496
   17   15   19   18       -0.0000202147
   17   15   19   19       -0.0000236832
   18   15   18   15        0.0109373379
   18   15   19   15       -0.0001348112
   18   15   16   16       -0.0001091932
   18   15   17   16        0.0003965537
   18   15   18   16        0.0000026321
   18   15   19   16       -0.0005338239
   18   15   17   17        0.0000016746
   18   15   18   17        0.0000081838
   18   15   19   17        0.0000103274
   18   15   18   18        0.0000018532
   18   15   19   18       -0.0000043676
   18   15   19   19       -0.0000092707
   19   15   19   15        0.0114721067
   19   15   16   16       -0.0000050801
   19   15   17   16       -0.0004721695
   19   15   18   16        0.0004144491
   19   15   19   16        0.0000105310
   19   15   17   17       -0.0000019680
   19   15   18   17       -0.0000007402
   19   15   19   17       -0.0001417582
   19   15   18   18       -0.0000010859
   19   15   19   18       -0.0001569085
   19   15   19   19        0.0000036974
   16   16   16   16        0.2880865388
   16   16   17   16       -0.0000266630
   16   16   18   16       -0.0000078261
   16   16   19   16        0.0000110332
   16   16   17   17        0.2732460941
   16   16   18   17       -0.0000214157
   16   16   19   17       -0.0011368375
   16   16   18   18        0.2736120371
   16   16   19   18       -0.0011908458
   16   16   19   19        0.2759499387
   17   16   17   16        0.0102937097
   17   16   18   16       -0.0000222495
   17   16   19   16       -0.0000469808
   17   16   17   17        0.0000012384
   17   16   18   17       -0.0000011379
   17   16   19   17       -0.0000032430
   17   16   18   18        0.0000028073
   17   16   19   18       -0.0000004565
   17   16   19   19       -0.0000084196
   18   16   18   16        0.0103280662
   18   16   19   16       -0.0000474591
   18   16   17   17        0.0000015461
   18   16   18   17       -0.0000008086
   18   16   19   17        0.0000005347
   18   16   18   18       -0.0000007216
   18   16   19   18       -0.0000001015
   18   16   19   19       -0.0000331511
   19   16   19   16        0.0102720767
   19   16   17   17        0.0000022302
   19   16   18   17       -0.0000017291
   19   16   19   17       -0.0001830968
   19   16   18   18       -0.0000016010
   19   16   19   18       -0.0001806146
   19   16   19   19        0.0000046147
   17   17   17   17        0.3002866957
   17   17   18   17       -0.0000119842
   17   17   19   17        0.0014448325
   17   17   18   18        0.2886117083
   17   17   19   18        0.0014036164
   17   17   19   19        0.2971346985
   18   17   18   17        0.0060326457
   18   17   19   17        0.0000530737
   18   17   18   18       -0.0000120339
   18   17   19   18        0.0000468517
   18   17   19   19        0.0061251285
   19   17   19   17        0.0864950455
   19   17   18   18        0.0012409949
   19   17   19   18        0.0840126999
   19   17   19   19       -0.0012471585
   18   18   18   18        0.3008854748
   18   18   19   18        0.0013951390
   18   18   19   19        0.2979712048
   19   18   19   18        0.0939784974
   19   18   19   19       -0.0013044992
   19   19   19   19        0.3070067928
 end_two_electron_integrals


 output epsi filename:./pspw_hf_H2.emovecs

 Total PSPW energy     :  -0.7998858663E+00


=== Spin Contamination ===

 <Sexact^2> =    0.0000000000000000     
 <S^2>      =    0.0000000000000000     



== Center of Charge ==

spin up     (    0.0000,    0.0000,    0.0034 )
spin down   (    0.0000,    0.0000,    0.0034 )
     total  (    0.0000,    0.0000,    0.0034 )
ionic       (    0.0000,    0.0000,    0.0000 )


== Molecular Dipole wrt Center of Mass ==

mu   =  (   -0.0000,   -0.0000,   -0.0068 ) au
|mu| =     0.0068 au,       0.0173 Debye

 output psi filename:./pspw_hf_H2.movecs

 Writing Crystallographic Information File:./H2.cif
   - cell not shifted (nwpw:cif_shift_cell .false.)


== Timing ==

cputime in seconds
  prologue    :   0.720353E+01
  main loop   :   0.552647E+03
  epilogue    :   0.156949E-01
  total       :   0.559866E+03
  cputime/step:   0.397588E+01       (     139 evalulations,      58 linesearches)


Time spent doing                        total          step       percent
  total time                 :   0.559883E+03  0.402793E+01       100.0 %
  i/o time                   :   0.413963E+00  0.297815E-02         0.1 %
  FFTs                       :   0.386004E+03  0.277700E+01        68.9 %
  dot products               :   0.277615E+02  0.199723E+00         5.0 %
  geodesic                   :   0.607866E-01  0.437314E-03         0.0 %
  ffm_dgemm                  :   0.113548E-01  0.816893E-04         0.0 %
  fmf_dgemm                  :   0.608848E-02  0.438020E-04         0.0 %
  mmm_dgemm                  :   0.225210E-02  0.162022E-04         0.0 %
  m_diagonalize              :   0.115655E-02  0.832053E-05         0.0 %
  local pseudopotentials     :   0.734197E+01  0.528200E-01         1.3 %
  non-local pseudopotentials :   0.258133E+02  0.185707E+00         4.6 %
  structure factors          :   0.652288E+00  0.469272E-02         0.1 %
  phase factors              :   0.643900E-05  0.463237E-07         0.0 %
  masking and packing        :   0.155020E+02  0.111525E+00         2.8 %
  queue fft                  :   0.123235E+02  0.886583E-01         2.2 %
  queue fft (serial)         :   0.375577E+01  0.270199E-01         0.7 %
  queue fft (message passing):   0.851957E+01  0.612919E-01         1.5 %
  HFX potential              :   0.443143E+01  0.318808E-01         0.8 %
  non-local psp FFM          :   0.252249E+02  0.181474E+00         4.5 %
  non-local psp FMF          :   0.126917E+00  0.913070E-03         0.0 %
  non-local psp FFM A        :   0.539131E-01  0.387864E-03         0.0 %
  non-local psp FFM B        :   0.173138E+00  0.124560E-02         0.0 %

== HFX Counters ==
  HFX Evalulations         =   139
  Lin ACE HFX Evalulations =     0


     >>>  JOB COMPLETED     AT Sun Apr  6 15:29:01 2025  <<<

 Task  times  cpu:      524.1s     wall:      559.9s


                                NWChem Input Module
                                -------------------


 Summary of allocated global arrays
-----------------------------------
  No active global arrays


MA_summarize_allocated_blocks: starting scan ...
MA_summarize_allocated_blocks: scan completed: 0 heap blocks, 0 stack blocks
MA usage statistics:

	allocation statistics:
					      heap	     stack
					      ----	     -----
	current number of blocks	         0	         0
	maximum number of blocks	       313	        36
	current total bytes		         0	         0
	maximum total bytes		  16802672	   5334776
	maximum total K-bytes		     16803	      5335
	maximum total M-bytes		        17	         6


                                     CITATION
                                     --------
                Please cite the following reference when publishing
                           results obtained with NWChem:

          E. Apra, E. J. Bylaska, W. A. de Jong, N. Govind, K. Kowalski,
       T. P. Straatsma, M. Valiev, H. J. J. van Dam, Y. Alexeev, J. Anchell,
       V. Anisimov, F. W. Aquino, R. Atta-Fynn, J. Autschbach, N. P. Bauman,
     J. C. Becca, D. E. Bernholdt, K. Bhaskaran-Nair, S. Bogatko, P. Borowski,
         J. Boschen, J. Brabec, A. Bruner, E. Cauet, Y. Chen, G. N. Chuev,
      C. J. Cramer, J. Daily, M. J. O. Deegan, T. H. Dunning Jr., M. Dupuis,
   K. G. Dyall, G. I. Fann, S. A. Fischer, A. Fonari, H. Fruchtl, L. Gagliardi,
      J. Garza, N. Gawande, S. Ghosh, K. Glaesemann, A. W. Gotz, J. Hammond,
       V. Helms, E. D. Hermes, K. Hirao, S. Hirata, M. Jacquelin, L. Jensen,
   B. G. Johnson, H. Jonsson, R. A. Kendall, M. Klemm, R. Kobayashi, V. Konkov,
      S. Krishnamoorthy, M. Krishnan, Z. Lin, R. D. Lins, R. J. Littlefield,
      A. J. Logsdail, K. Lopata, W. Ma, A. V. Marenich, J. Martin del Campo,
   D. Mejia-Rodriguez, J. E. Moore, J. M. Mullin, T. Nakajima, D. R. Nascimento,
    J. A. Nichols, P. J. Nichols, J. Nieplocha, A. Otero-de-la-Roza, B. Palmer,
    A. Panyala, T. Pirojsirikul, B. Peng, R. Peverati, J. Pittner, L. Pollack,
   R. M. Richard, P. Sadayappan, G. C. Schatz, W. A. Shelton, D. W. Silverstein,
   D. M. A. Smith, T. A. Soares, D. Song, M. Swart, H. L. Taylor, G. S. Thomas,
            V. Tipparaju, D. G. Truhlar, K. Tsemekhman, T. Van Voorhis,
      A. Vazquez-Mayagoitia, P. Verma, O. Villa, A. Vishnu, K. D. Vogiatzis,
        D. Wang, J. H. Weare, M. J. Williamson, T. L. Windus, K. Wolinski,
        A. T. Wong, Q. Wu, C. Yang, Q. Yu, M. Zacharias, Z. Zhang, Y. Zhao,
                                and R. J. Harrison
                        "NWChem: Past, present, and future
                         J. Chem. Phys. 152, 184102 (2020)
                               doi:10.1063/5.0004997

                                      AUTHORS
                                      -------
  E. Apra, E. J. Bylaska, N. Govind, K. Kowalski, M. Valiev, D. Mejia-Rodriguez,
       A. Kunitsa, N. P. Bauman, A. Panyala, W. A. de Jong, T. P. Straatsma,
   H. J. J. van Dam, D. Wang, T. L. Windus, J. Hammond, J. Autschbach, A. Woods,
    K. Bhaskaran-Nair, J. Brabec, K. Lopata, S. A. Fischer, S. Krishnamoorthy,
     M. Jacquelin, W. Ma, M. Klemm, O. Villa, Y. Chen, V. Anisimov, F. Aquino,
     S. Hirata, M. T. Hackler, E. Hermes, L. Jensen, J. E. Moore, J. C. Becca,
      V. Konjkov, T. Risthaus, M. Malagoli, A. Marenich, A. Otero-de-la-Roza,
        J. Mullin, P. Nichols, R. Peverati, J. Pittner, Y. Zhao, P.-D. Fan,
        A. Fonari, M. J. Williamson, R. J. Harrison, J. R. Rehr, M. Dupuis,
     D. Silverstein, D. M. A. Smith, J. Nieplocha, V. Tipparaju, M. Krishnan,
     B. E. Van Kuiken, A. Vazquez-Mayagoitia, M. Swart, Q. Wu, T. Van Voorhis,
     A. A. Auer, M. Nooijen, L. D. Crosby, E. Brown, G. Cisneros, G. I. Fann,
   H. Fruchtl, J. Garza, K. Hirao, R. A. Kendall, J. A. Nichols, K. Tsemekhman,
    K. Wolinski, J. Anchell, D. E. Bernholdt, P. Borowski, T. Clark, D. Clerc,
   H. Dachsel, M. J. O. Deegan, K. Dyall, D. Elwood, E. Glendening, M. Gutowski,
   A. C. Hess, J. Jaffe, B. G. Johnson, J. Ju, R. Kobayashi, R. Kutteh, Z. Lin,
   R. Littlefield, X. Long, B. Meng, T. Nakajima, S. Niu, L. Pollack, M. Rosing,
   K. Glaesemann, G. Sandrone, M. Stave, H. Taylor, G. Thomas, J. H. van Lenthe,
                               A. T. Wong, Z. Zhang.

 Total times  cpu:      524.2s     wall:      560.0s
