 argument  1 = H2-6.0.nw



============================== echo of input deck ==============================
title "swnc: e theory=pspw4 xc=hf formula=H2 charge=0 mult=1"
#machinejob:expert

echo

start pspw_hf_H2

memory heap 1200 mb stack 1200 mb global 10 mb

charge 0

geometry
H    0.00000    0.00000   -3.00000
H    0.00000    0.00000    3.00000
end

nwpw
  ### pseudopotential block begin ###
  ### pseudopotential block end   ###
  simulation_cell
     SC 15.0000
     boundary_conditions aperiodic
  end

  cutoff 50.0
  mult 1
  xc hf
  lmbfgs
  tolerances 1.0e-9 1.0e-9

  virtual 18
end
set nwpw:cif_filename H2

#set nwpw:CI_maxit_orb 15
#set nwpw:CI_maxit_linesearch 15
set pspw:HFX_screening_radius 14.0


set nwpw:2qintegrals .true.
set nwpw:3x3_virtual .true.

task pspw energy
================================================================================


                                         
                                         


             Northwest Computational Chemistry Package (NWChem) 7.2.3
             --------------------------------------------------------


                    Environmental Molecular Sciences Laboratory
                       Pacific Northwest National Laboratory
                                Richland, WA 99352

                              Copyright (c) 1994-2022
                       Pacific Northwest National Laboratory
                            Battelle Memorial Institute

             NWChem is an open-source computational chemistry package
                        distributed under the terms of the
                      Educational Community License (ECL) 2.0
             A copy of the license is included with this distribution
                              in the LICENSE.TXT file

                                  ACKNOWLEDGMENT
                                  --------------

            This software and its documentation were developed at the
            EMSL at Pacific Northwest National Laboratory, a multiprogram
            national laboratory, operated for the U.S. Department of Energy
            by Battelle under Contract Number DE-AC05-76RL01830. Support
            for this work was provided by the Department of Energy Office
            of Biological and Environmental Research, Office of Basic
            Energy Sciences, and the Office of Advanced Scientific Computing.


           Job information
           ---------------

    hostname        = mqs-al
    program         = nwchem
    date            = Sun Apr  6 16:38:30 2025

    compiled        = Thu_Oct_31_08:55:15_2024
    source          = /home/conda/feedstock_root/build_artifacts/nwchem_1730356057992/work
    nwchem branch   = 7.2.3
    nwchem revision = c400b04
    ga revision     = 5.8.0
    use scalapack   = T
    input           = H2-6.0.nw
    prefix          = pspw_hf_H2.
    data base       = ./pspw_hf_H2.db
    status          = startup
    nproc           =       24
    time left       =     -1s



           Memory information
           ------------------

    heap     =  157286394 doubles =   1200.0 Mbytes
    stack    =  157286399 doubles =   1200.0 Mbytes
    global   =    1310720 doubles =     10.0 Mbytes (distinct from heap & stack)
    total    =  315883513 doubles =   2410.0 Mbytes
    verify   = yes
    hardfail = no 


           Directory information
           ---------------------

  0 permanent = .
  0 scratch   = .




                                NWChem Input Module
                                -------------------


               swnc: e theory=pspw4 xc=hf formula=H2 charge=0 mult=1
               -----------------------------------------------------

 Scaling coordinates for geometry "geometry" by  1.889725989
 (inverse scale =  0.529177249)

  zeroes
  zeroes
  zeroes
  zeroes
  zeroes
  zeroes
  zeroes
  zeroes
  zeroes
  zeroes
  zeroes
  zeroes
  zeroes
  zeroes
  zeroes
  zeroes
  zeroes
  zeroes
  zeroes
  zeroes
  zeroes
  zeroes
  zeroes
  zeroes
  zeroes
  zeroes
  zeroes
  zeroes
  zeroes
  zeroes
  zeroes
  zeroes
  zeroes
  zeroes
  zeroes
  zeroes
  zeroes
  zeroes
  zeroes
  zeroes
  zeroes
  zeroes
  zeroes
  zeroes
  zeroes
  zeroes
  zeroes
  zeroes
 ORDER OF PRIMARY AXIS IS BEING SET TO 4
 D4H symmetry detected

          ------
          auto-z
          ------
     1 autoz failed with cvr_scaling = 1.2 changing to 1.3
     2 autoz failed with cvr_scaling = 1.3 changing to 1.4
     3 autoz failed with cvr_scaling = 1.4 changing to 1.5
     4 autoz failed with cvr_scaling = 1.5 changing to 1.6
     5 autoz failed with cvr_scaling = 1.6 changing to 1.7

 AUTOZ failed to generate good internal coordinates.
 Cartesian coordinates will be used in optimizations.



                             Geometry "geometry" -> ""
                             -------------------------

 Output coordinates in angstroms (scale by  1.889725989 to convert to a.u.)

  No.       Tag          Charge          X              Y              Z
 ---- ---------------- ---------- -------------- -------------- --------------
    1 H                    1.0000     0.00000000     0.00000000    -3.00000000
    2 H                    1.0000     0.00000000     0.00000000     3.00000000

      Atomic Mass 
      ----------- 

      H                  1.007825


 Effective nuclear repulsion energy (a.u.)       0.0881962082

            Nuclear Dipole moment (a.u.) 
            ----------------------------
        X                 Y               Z
 ---------------- ---------------- ----------------
     0.0000000000     0.0000000000     0.0000000000

      Symmetry information
      --------------------

 Group name             D4h       
 Group number             28
 Group order              16
 No. of unique centers     1

      Symmetry unique atoms

     1


            XYZ format geometry
            -------------------
     2
 geometry
 H                     0.00000000     0.00000000    -3.00000000
 H                     0.00000000     0.00000000     3.00000000

          ****************************************************
          *                                                  *
          *               NWPW PSPW Calculation              *
          *                                                  *
          * [ (Grassmann/Stiefel manifold implementation)  ] *
          *                                                  *
          *      [ NorthWest Chemistry implementation ]      *
          *                                                  *
          *            version #5.10   06/12/02              *
          *                                                  *
          *    This code was developed by Eric J. Bylaska,   *
          *    and was based upon algorithms and code        *
          *    developed by the group of Prof. John H. Weare *
          *                                                  *
          ****************************************************
     >>>  JOB STARTED       AT Sun Apr  6 16:38:30 2025  <<<
          ================ input data ========================

 input psi filename:./pspw_hf_H2.movecs

 number of processors used:        24
 processor grid           :  24 x   1
 parallel mapping         :2d-hilbert
 parallel mapping         :  balanced
 number of threads        :         1
 parallel io              :       off

 options:
      boundary conditions  = aperiodic   (version4)
      electron spin        = restricted
      exchange-correlation = Hartree-Fock
      - HFX relaxed
      - HFX restricted orbitals :    1
      - HFX free-space coulomb solver


 elements involved in the cluster:
      1: H   valence charge:  1.0000  lmax=  1
             comment    : Parameterized (Chem.Phys.Lett., vol 322, page 447) Hamman psp
             pseudpotential type            :   0
             highest angular component      :   1
             local potential used           :   1
             number of non-local projections:   1
             aperiodic cutoff radius        :  1.000
             cutoff =   0.800   0.800


 total charge:   0.000

 atomic composition:
     H   :    2

 number of electrons: spin up=     1 (   1 per task)  down=     1 (   1 per task) (Fourier space)
 number of orbitals : spin up=     1 (   1 per task)  down=     1 (   1 per task) (Fourier space)

 supercell:
      cell_name:  cell_default                                      
      lattice:    a1=<  15.000   0.000   0.000 >
                  a2=<   0.000  15.000   0.000 >
                  a3=<   0.000   0.000  15.000 >
      reciprocal: b1=<   0.419   0.000   0.000 >
                  b2=<   0.000   0.419   0.000 >
                  b3=<   0.000   0.000   0.419 >
      lattice:    a=      15.000 b=     15.000 c=      15.000
                  alpha=  90.000 beta=  90.000 gamma=  90.000
                  omega=      3375.0

      density cutoff=100.000  fft= 70x 70x 70(    80618 waves     3359 per task)
      wavefnc cutoff= 50.000  fft= 70x 70x 70(    28526 waves     1188 per task)

 technical parameters:
      time step=      5.80     fictitious mass=  400000.0
      tolerance=0.100E-08 (energy)   0.100E-08 (density)
      maximum iterations =      1000 (   10 inner    100 outer )





== Energy Calculation ==


          ============ Grassmann lmbfgs iteration ============
     >>>  ITERATION STARTED AT Sun Apr  6 16:38:36 2025  <<<
    iter.           Energy         DeltaE       DeltaRho 
    ------------------------------------------------------
      10   -0.8263271560E+00   -0.52458E-02    0.25528E-01
     -  10 steepest descent iterations performed
      20   -0.8402775964E+00   -0.40904E-03    0.14475E-03
      30   -0.8411440362E+00   -0.19438E-04    0.23423E-04
      40   -0.8412054809E+00   -0.13054E-05    0.53552E-06
      50   -0.8412102333E+00   -0.16386E-06    0.10470E-07
      60   -0.8412105918E+00   -0.70608E-08    0.20971E-08
      70   -0.8412106179E+00   -0.72011E-09    0.14551E-09
  *** tolerance ok. iteration terminated
     >>>  ITERATION ENDED   AT Sun Apr  6 16:38:43 2025  <<<


==  Summary Of Results  ==

 number of electrons: spin up=    1.00000  down=    1.00000 (real space)

 total     energy    :  -0.8412106179E+00 (   -0.42061E+00/ion)
 total orbital energy:  -0.6214872580E+00 (   -0.62149E+00/electron)
 hartree   energy    :   0.6158391362E+00 (    0.61584E+00/electron)
 exc-corr  energy    :   0.0000000000E+00 (    0.00000E+00/electron)
 HF exchange energy  :  -0.3079195681E+00 (   -0.30792E+00/electron)
 ion-ion   energy    :   0.8819620817E-01 (    0.44098E-01/ion)

 kinetic (planewave) :   0.6010193521E+00 (    0.60102E+00/electron)
 V_local (planewave) :  -0.1687738451E+01 (   -0.16877E+01/electron)
 V_nl    (planewave) :  -0.1506072957E+00 (   -0.15061E+00/electron)
 V_Coul  (planewave) :   0.1231678272E+01 (    0.12317E+01/electron)
 V_xc.   (planewave) :   0.0000000000E+00 (    0.00000E+00/electron)
 K.S. HFX energy     :  -0.6158391362E+00 (   -0.61584E+00/electron)
 Virial Coefficient  :  -0.1009397571E+01

 orbital energies:
    -0.3107436E+00 (  -8.456eV)


== Virtual Orbital Calculation ==


 input epsi filename:./pspw_hf_H2.emovecs

 COVOs Mimimization
 ------------------
CI gradient algorithm =         3
maxit_sweeps          =         3
maxit_orb             =       120
maxit_linesearch      =        15
maxerror              = 0.100E-08

     orb,it,eci,eold,eci-eold=                    1                    1 -0.88250832534706503      -0.88096148838305410       -1.5468369640109225E-003 F
     orb,it,eci,eold,eci-eold=                    1                    2 -0.88859970204939598      -0.88250832534706503       -6.0913767023309529E-003 F
     orb,it,eci,eold,eci-eold=                    1                    3 -0.89311657405634981      -0.88859970204939598       -4.5168720069538315E-003 F
     orb,it,eci,eold,eci-eold=                    1                    4 -0.90114025384006879      -0.89311657405634981       -8.0236797837189844E-003 F
     orb,it,eci,eold,eci-eold=                    1                    5 -0.90961859870216166      -0.90114025384006879       -8.4783448620928681E-003 F
     orb,it,eci,eold,eci-eold=                    1                    6 -0.91182410143654313      -0.90961859870216166       -2.2055027343814704E-003 F
     orb,it,eci,eold,eci-eold=                    1                    7 -0.91317687139452475      -0.91182410143654313       -1.3527699579816144E-003 F
     orb,it,eci,eold,eci-eold=                    1                    8 -0.92160754536672784      -0.91317687139452475       -8.4306739722030954E-003 F
     orb,it,eci,eold,eci-eold=                    1                    9 -0.92904968316290137      -0.92160754536672784       -7.4421377961735313E-003 F
     orb,it,eci,eold,eci-eold=                    1                   10 -0.92971122692753361      -0.92904968316290137       -6.6154376463223308E-004 F
     orb,it,eci,eold,eci-eold=                    1                   11 -0.93105829034749221      -0.92971122692753361       -1.3470634199586051E-003 F
     orb,it,eci,eold,eci-eold=                    1                   12 -0.93222317815370526      -0.93105829034749221       -1.1648878062130441E-003 F
     orb,it,eci,eold,eci-eold=                    1                   13 -0.94188304546698021      -0.93222317815370526       -9.6598673132749502E-003 F
     orb,it,eci,eold,eci-eold=                    1                   14 -0.95826235159242779      -0.94188304546698021       -1.6379306125447579E-002 F
     orb,it,eci,eold,eci-eold=                    1                   15 -0.95968552959138975      -0.95826235159242779       -1.4231779989619664E-003 F
     orb,it,eci,eold,eci-eold=                    1                   16 -0.96020952278982330      -0.95968552959138975       -5.2399319843354775E-004 F
     orb,it,eci,eold,eci-eold=                    1                   17 -0.97155247669170608      -0.96020952278982330       -1.1342953901882780E-002 F
     orb,it,eci,eold,eci-eold=                    1                   18 -0.97622280377461812      -0.97155247669170608       -4.6703270829120402E-003 F
     orb,it,eci,eold,eci-eold=                    1                   19 -0.97773289850265654      -0.97622280377461812       -1.5100947280384247E-003 F
     orb,it,eci,eold,eci-eold=                    1                   20 -0.97815620868482656      -0.97773289850265654       -4.2331018217001137E-004 F
     orb,it,eci,eold,eci-eold=                    1                   21 -0.97823090080789532      -0.97815620868482656       -7.4692123068764715E-005 F
     orb,it,eci,eold,eci-eold=                    1                   22 -0.97852978574311389      -0.97823090080789532       -2.9888493521856851E-004 F
     orb,it,eci,eold,eci-eold=                    1                   23 -0.97899575176571929      -0.97852978574311389       -4.6596602260540188E-004 F
     orb,it,eci,eold,eci-eold=                    1                   24 -0.97952877025917040      -0.97899575176571929       -5.3301849345110952E-004 F
     orb,it,eci,eold,eci-eold=                    1                   25 -0.97965856944139562      -0.97952877025917040       -1.2979918222522091E-004 F
     orb,it,eci,eold,eci-eold=                    1                   26 -0.97987325643344247      -0.97965856944139562       -2.1468699204685304E-004 F
     orb,it,eci,eold,eci-eold=                    1                   27 -0.97995088998074609      -0.97987325643344247       -7.7633547303612715E-005 F
     orb,it,eci,eold,eci-eold=                    1                   28 -0.97999814897206106      -0.97995088998074609       -4.7258991314969023E-005 F
     orb,it,eci,eold,eci-eold=                    1                   29 -0.98022427515648869      -0.97999814897206106       -2.2612618442763299E-004 F
     orb,it,eci,eold,eci-eold=                    1                   30 -0.98025766782499302      -0.98022427515648869       -3.3392668504328427E-005 F
     orb,it,eci,eold,eci-eold=                    1                   31 -0.98029128275251276      -0.98025766782499302       -3.3614927519742821E-005 F
     orb,it,eci,eold,eci-eold=                    1                   32 -0.98046276693907919      -0.98029128275251276       -1.7148418656642850E-004 F
     orb,it,eci,eold,eci-eold=                    1                   33 -0.98055739172733591      -0.98046276693907919       -9.4624788256725267E-005 F
     orb,it,eci,eold,eci-eold=                    1                   34 -0.98057802668493765      -0.98055739172733591       -2.0634957601739501E-005 F
     orb,it,eci,eold,eci-eold=                    1                   35 -0.98058368025600506      -0.98057802668493765       -5.6535710674099349E-006 F
     orb,it,eci,eold,eci-eold=                    1                   36 -0.98063790589698230      -0.98058368025600506       -5.4225640977234590E-005 F
     orb,it,eci,eold,eci-eold=                    1                   37 -0.98066440653795928      -0.98063790589698230       -2.6500640976978573E-005 F
     orb,it,eci,eold,eci-eold=                    1                   38 -0.98067414275234444      -0.98066440653795928       -9.7362143851587035E-006 F
     orb,it,eci,eold,eci-eold=                    1                   39 -0.98067797351671326      -0.98067414275234444       -3.8307643688284543E-006 F
     orb,it,eci,eold,eci-eold=                    1                   40 -0.98070770536400576      -0.98067797351671326       -2.9731847292491231E-005 F
     orb,it,eci,eold,eci-eold=                    1                   41 -0.98071430699467288      -0.98070770536400576       -6.6016306671246028E-006 F
     orb,it,eci,eold,eci-eold=                    1                   42 -0.98071531469433615      -0.98071430699467288       -1.0076996632690793E-006 F
     orb,it,eci,eold,eci-eold=                    1                   43 -0.98072690851796140      -0.98071531469433615       -1.1593823625255517E-005 F
     orb,it,eci,eold,eci-eold=                    1                   44 -0.98073337688027307      -0.98072690851796140       -6.4683623116623679E-006 F
     orb,it,eci,eold,eci-eold=                    1                   45 -0.98073672987923499      -0.98073337688027307       -3.3529989619252021E-006 F
     orb,it,eci,eold,eci-eold=                    1                   46 -0.98074826970256768      -0.98073672987923499       -1.1539823332684662E-005 F
     orb,it,eci,eold,eci-eold=                    1                   47 -0.98075449561098615      -0.98074826970256768       -6.2259084184779212E-006 F
     orb,it,eci,eold,eci-eold=                    1                   48 -0.98075917914934796      -0.98075449561098615       -4.6835383618049065E-006 F
     orb,it,eci,eold,eci-eold=                    1                   49 -0.98076164131357157      -0.98075917914934796       -2.4621642236155594E-006 F
     orb,it,eci,eold,eci-eold=                    1                   50 -0.98076536394272928      -0.98076164131357157       -3.7226291577097115E-006 F
     orb,it,eci,eold,eci-eold=                    1                   51 -0.98076732412641743      -0.98076536394272928       -1.9601836881433243E-006 F
     orb,it,eci,eold,eci-eold=                    1                   52 -0.98077077641187582      -0.98076732412641743       -3.4522854583940443E-006 F
     orb,it,eci,eold,eci-eold=                    1                   53 -0.98077282373277308      -0.98077077641187582       -2.0473208972582313E-006 F
     orb,it,eci,eold,eci-eold=                    1                   54 -0.98077481428595881      -0.98077282373277308       -1.9905531857267178E-006 F
     orb,it,eci,eold,eci-eold=                    1                   55 -0.98077503164228341      -0.98077481428595881       -2.1735632460551102E-007 F
     orb,it,eci,eold,eci-eold=                    1                   56 -0.98077514945782718      -0.98077503164228341       -1.1781554376533165E-007 F
     orb,it,eci,eold,eci-eold=                    1                   57 -0.98077613206158332      -0.98077514945782718       -9.8260375613890005E-007 F
     orb,it,eci,eold,eci-eold=                    1                   58 -0.98077771018385751      -0.98077613206158332       -1.5781222741928502E-006 F
     orb,it,eci,eold,eci-eold=                    1                   59 -0.98077864949691129      -0.98077771018385751       -9.3931305378269769E-007 F
     orb,it,eci,eold,eci-eold=                    1                   60 -0.98078031226676310      -0.98077864949691129       -1.6627698518068001E-006 F
     orb,it,eci,eold,eci-eold=                    1                   61 -0.98078102635799747      -0.98078031226676310       -7.1409123436616539E-007 F
     orb,it,eci,eold,eci-eold=                    1                   62 -0.98078147949371353      -0.98078102635799747       -4.5313571606087066E-007 F
     orb,it,eci,eold,eci-eold=                    1                   63 -0.98078183711673295      -0.98078147949371353       -3.5762301942021679E-007 F
     orb,it,eci,eold,eci-eold=                    1                   64 -0.98078294885998540      -0.98078183711673295       -1.1117432524576643E-006 F
     orb,it,eci,eold,eci-eold=                    1                   65 -0.98078324253700278      -0.98078294885998540       -2.9367701737115226E-007 F
     orb,it,eci,eold,eci-eold=                    1                   66 -0.98078349363031503      -0.98078324253700278       -2.5109331225348086E-007 F
     orb,it,eci,eold,eci-eold=                    1                   67 -0.98078368607752564      -0.98078349363031503       -1.9244721061184578E-007 F
     orb,it,eci,eold,eci-eold=                    1                   68 -0.98078418859608685      -0.98078368607752564       -5.0251856120731020E-007 F
     orb,it,eci,eold,eci-eold=                    1                   69 -0.98078427053899941      -0.98078418859608685       -8.1942912566468351E-008 F
     orb,it,eci,eold,eci-eold=                    1                   70 -0.98078431724920034      -0.98078427053899941       -4.6710200929389600E-008 F
     orb,it,eci,eold,eci-eold=                    1                   71 -0.98078472916425230      -0.98078431724920034       -4.1191505195659062E-007 F
     orb,it,eci,eold,eci-eold=                    1                   72 -0.98078497372011686      -0.98078472916425230       -2.4455586455918166E-007 F
     orb,it,eci,eold,eci-eold=                    1                   73 -0.98078506260309806      -0.98078497372011686       -8.8882981197357935E-008 F
     orb,it,eci,eold,eci-eold=                    1                   74 -0.98078538077171462      -0.98078506260309806       -3.1816861656430717E-007 F
     orb,it,eci,eold,eci-eold=                    1                   75 -0.98078550123141606      -0.98078538077171462       -1.2045970143592655E-007 F
     orb,it,eci,eold,eci-eold=                    1                   76 -0.98078555786020627      -0.98078550123141606       -5.6628790212620572E-008 F
     orb,it,eci,eold,eci-eold=                    1                   77 -0.98078582378458434      -0.98078555786020627       -2.6592437807337888E-007 F
     orb,it,eci,eold,eci-eold=                    1                   78 -0.98078589641024538      -0.98078582378458434       -7.2625661040603973E-008 F
     orb,it,eci,eold,eci-eold=                    1                   79 -0.98078590740872895      -0.98078589641024538       -1.0998483568336326E-008 F
     orb,it,eci,eold,eci-eold=                    1                   80 -0.98078610983796999      -0.98078590740872895       -2.0242924103630600E-007 F
     orb,it,eci,eold,eci-eold=                    1                   81 -0.98078626450447082      -0.98078610983796999       -1.5466650082895939E-007 F
     orb,it,eci,eold,eci-eold=                    1                   82 -0.98078632300682855      -0.98078626450447082       -5.8502357735967792E-008 F
     orb,it,eci,eold,eci-eold=                    1                   83 -0.98078649320492728      -0.98078632300682855       -1.7019809872564906E-007 F
     orb,it,eci,eold,eci-eold=                    1                   84 -0.98078656587719726      -0.98078649320492728       -7.2672269979534576E-008 F
     orb,it,eci,eold,eci-eold=                    1                   85 -0.98078659918505140      -0.98078656587719726       -3.3307854141462201E-008 F
     orb,it,eci,eold,eci-eold=                    1                   86 -0.98078671434229314      -0.98078659918505140       -1.1515724174238073E-007 F
     orb,it,eci,eold,eci-eold=                    1                   87 -0.98078676515477681      -0.98078671434229314       -5.0812483665119146E-008 F
     orb,it,eci,eold,eci-eold=                    1                   88 -0.98078680503650850      -0.98078676515477681       -3.9881731694890732E-008 F
     orb,it,eci,eold,eci-eold=                    1                   89 -0.98078692779318699      -0.98078680503650850       -1.2275667848893335E-007 F
     orb,it,eci,eold,eci-eold=                    1                   90 -0.98078700569562449      -0.98078692779318699       -7.7902437500831923E-008 F
     orb,it,eci,eold,eci-eold=                    1                   91 -0.98078707135249932      -0.98078700569562449       -6.5656874825847922E-008 F
     orb,it,eci,eold,eci-eold=                    1                   92 -0.98078709969029620      -0.98078707135249932       -2.8337796886823696E-008 F
     orb,it,eci,eold,eci-eold=                    1                   93 -0.98078716414521383      -0.98078709969029620       -6.4454917625411667E-008 F
     orb,it,eci,eold,eci-eold=                    1                   94 -0.98078716438849634      -0.98078716414521383       -2.4328250525229578E-010 F
     orbital   1 current e= -0.928368E-01 error=0.176E+00 (eci= -0.980787164E+00 error=0.243E-09) iterations  94(   0 preconditioned, Ep,Sp= 20.0  200.0)
     orb,it,eci,eold,eci-eold=                    1                    1 -0.98078731114335760      -0.98078716438849634       -1.4675486126325410E-007 F
     orb,it,eci,eold,eci-eold=                    1                    2 -0.98078738842917668      -0.98078731114335760       -7.7285819077843598E-008 F
     orb,it,eci,eold,eci-eold=                    1                    3 -0.98078743755939923      -0.98078738842917668       -4.9130222556925673E-008 F
     orb,it,eci,eold,eci-eold=                    1                    4 -0.98078745621848951      -0.98078743755939923       -1.8659090272876711E-008 F
     orb,it,eci,eold,eci-eold=                    1                    5 -0.98078746431243391      -0.98078745621848951       -8.0939444035976749E-009 F
     orb,it,eci,eold,eci-eold=                    1                    6 -0.98078748081221190      -0.98078746431243391       -1.6499777988343567E-008 F
     orb,it,eci,eold,eci-eold=                    1                    7 -0.98078748251207415      -0.98078748081221190       -1.6998622509589723E-009 F
     orb,it,eci,eold,eci-eold=                    1                    8 -0.98078748251207415      -0.98078748251207415        0.0000000000000000      F
     orbital   1 current e= -0.928389E-01 error=0.212E-05 (eci= -0.980787483E+00 error=0.000E+00) iterations   8(   0 preconditioned, Ep,Sp= 20.0  200.0)
     orb,it,eci,eold,eci-eold=                    1                    1 -0.98078748741013944      -0.98078748191219511       -5.4979443220304347E-009 F
     orb,it,eci,eold,eci-eold=                    1                    2 -0.98078748823396433      -0.98078748741013944       -8.2382489718924035E-010 F
     orbital   1 current e= -0.928388E-01 error=0.611E-07 (eci= -0.980787488E+00 error=0.824E-09) iterations   2(   0 preconditioned, Ep,Sp= 20.0  200.0)
     orb,it,eci,eold,eci-eold=                    2                    1 -0.84299974673420786      -0.84228587313103298       -7.1387360317487492E-004 F
     orb,it,eci,eold,eci-eold=                    2                    2 -0.84311438347591794      -0.84299974673420786       -1.1463674171008353E-004 F
     orb,it,eci,eold,eci-eold=                    2                    3 -0.84326944385438707      -0.84311438347591794       -1.5506037846912957E-004 F
     orb,it,eci,eold,eci-eold=                    2                    4 -0.84337416684537447      -0.84326944385438707       -1.0472299098740478E-004 F
     orb,it,eci,eold,eci-eold=                    2                    5 -0.84349035064080780      -0.84337416684537447       -1.1618379543332225E-004 F
     orb,it,eci,eold,eci-eold=                    2                    6 -0.84361459720248033      -0.84349035064080780       -1.2424656167253634E-004 F
     orb,it,eci,eold,eci-eold=                    2                    7 -0.84369095296794694      -0.84361459720248033       -7.6355765466606940E-005 F
     orb,it,eci,eold,eci-eold=                    2                    8 -0.84377640319779368      -0.84369095296794694       -8.5450229846739667E-005 F
     orb,it,eci,eold,eci-eold=                    2                    9 -0.84380209576792731      -0.84377640319779368       -2.5692570133628578E-005 F
     orb,it,eci,eold,eci-eold=                    2                   10 -0.84385477087375427      -0.84380209576792731       -5.2675105826960333E-005 F
     orb,it,eci,eold,eci-eold=                    2                   11 -0.84391048994496365      -0.84385477087375427       -5.5719071209381354E-005 F
     orb,it,eci,eold,eci-eold=                    2                   12 -0.84394461530878950      -0.84391048994496365       -3.4125363825854294E-005 F
     orb,it,eci,eold,eci-eold=                    2                   13 -0.84399968702497785      -0.84394461530878950       -5.5071716188348496E-005 F
     orb,it,eci,eold,eci-eold=                    2                   14 -0.84400987905696212      -0.84399968702497785       -1.0192031984268546E-005 F
     orb,it,eci,eold,eci-eold=                    2                   15 -0.84402519193975900      -0.84400987905696212       -1.5312882796880700E-005 F
     orb,it,eci,eold,eci-eold=                    2                   16 -0.84403145162830706      -0.84402519193975900       -6.2596885480603603E-006 F
     orb,it,eci,eold,eci-eold=                    2                   17 -0.84408204522398167      -0.84403145162830706       -5.0593595674608416E-005 F
     orb,it,eci,eold,eci-eold=                    2                   18 -0.84412923982911392      -0.84408204522398167       -4.7194605132250267E-005 F
     orb,it,eci,eold,eci-eold=                    2                   19 -0.84416139645237864      -0.84412923982911392       -3.2156623264723017E-005 F
     orb,it,eci,eold,eci-eold=                    2                   20 -0.84420838203050153      -0.84416139645237864       -4.6985578122882288E-005 F
     orb,it,eci,eold,eci-eold=                    2                   21 -0.84423544243981641      -0.84420838203050153       -2.7060409314882961E-005 F
     orb,it,eci,eold,eci-eold=                    2                   22 -0.84425048669553848      -0.84423544243981641       -1.5044255722074240E-005 F
     orb,it,eci,eold,eci-eold=                    2                   23 -0.84425999158960585      -0.84425048669553848       -9.5048940673692073E-006 F
     orb,it,eci,eold,eci-eold=                    2                   24 -0.84427536919356938      -0.84425999158960585       -1.5377603963528941E-005 F
     orb,it,eci,eold,eci-eold=                    2                   25 -0.84427592115232186      -0.84427536919356938       -5.5195875248159609E-007 F
     orb,it,eci,eold,eci-eold=                    2                   26 -0.84428613487657489      -0.84427592115232186       -1.0213724253027578E-005 F
     orb,it,eci,eold,eci-eold=                    2                   27 -0.84429579534632404      -0.84428613487657489       -9.6604697491509128E-006 F
     orb,it,eci,eold,eci-eold=                    2                   28 -0.84430071516013416      -0.84429579534632404       -4.9198138101225197E-006 F
     orb,it,eci,eold,eci-eold=                    2                   29 -0.84430821496025121      -0.84430071516013416       -7.4998001170500928E-006 F
     orb,it,eci,eold,eci-eold=                    2                   30 -0.84431279730068332      -0.84430821496025121       -4.5823404321021499E-006 F
     orb,it,eci,eold,eci-eold=                    2                   31 -0.84431655681232287      -0.84431279730068332       -3.7595116395561234E-006 F
     orb,it,eci,eold,eci-eold=                    2                   32 -0.84431844131935041      -0.84431655681232287       -1.8845070275386178E-006 F
     orb,it,eci,eold,eci-eold=                    2                   33 -0.84432167880882536      -0.84431844131935041       -3.2374894749498395E-006 F
     orb,it,eci,eold,eci-eold=                    2                   34 -0.84432168003691666      -0.84432167880882536       -1.2280912953244183E-009 F
     orb,it,eci,eold,eci-eold=                    2                   35 -0.84432272624642957      -0.84432168003691666       -1.0462095129115667E-006 F
     orb,it,eci,eold,eci-eold=                    2                   36 -0.84432505316862727      -0.84432272624642957       -2.3269221977040289E-006 F
     orb,it,eci,eold,eci-eold=                    2                   37 -0.84432631572140782      -0.84432505316862727       -1.2625527805454340E-006 F
     orb,it,eci,eold,eci-eold=                    2                   38 -0.84432711776922031      -0.84432631572140782       -8.0204781249815227E-007 F
     orb,it,eci,eold,eci-eold=                    2                   39 -0.84432753597029342      -0.84432711776922031       -4.1820107310464039E-007 F
     orb,it,eci,eold,eci-eold=                    2                   40 -0.84432888365110337      -0.84432753597029342       -1.3476808099488480E-006 F
     orb,it,eci,eold,eci-eold=                    2                   41 -0.84432912876437571      -0.84432888365110337       -2.4511327234577607E-007 F
     orb,it,eci,eold,eci-eold=                    2                   42 -0.84432928499326665      -0.84432912876437571       -1.5622889093513948E-007 F
     orb,it,eci,eold,eci-eold=                    2                   43 -0.84433018068039711      -0.84432928499326665       -8.9568713046439541E-007 F
     orb,it,eci,eold,eci-eold=                    2                   44 -0.84433023796719153      -0.84433018068039711       -5.7286794419297848E-008 F
     orb,it,eci,eold,eci-eold=                    2                   45 -0.84433029469068266      -0.84433023796719153       -5.6723491126398073E-008 F
     orb,it,eci,eold,eci-eold=                    2                   46 -0.84433090836362101      -0.84433029469068266       -6.1367293835434822E-007 F
     orb,it,eci,eold,eci-eold=                    2                   47 -0.84433123763033779      -0.84433090836362101       -3.2926671678090713E-007 F
     orb,it,eci,eold,eci-eold=                    2                   48 -0.84433160365278381      -0.84433123763033779       -3.6602244601890987E-007 F
     orb,it,eci,eold,eci-eold=                    2                   49 -0.84433177847538732      -0.84433160365278381       -1.7482260350476508E-007 F
     orb,it,eci,eold,eci-eold=                    2                   50 -0.84433201163226435      -0.84433177847538732       -2.3315687702751831E-007 F
     orb,it,eci,eold,eci-eold=                    2                   51 -0.84433209374178342      -0.84433201163226435       -8.2109519072837145E-008 F
     orb,it,eci,eold,eci-eold=                    2                   52 -0.84433210502699418      -0.84433209374178342       -1.1285210765876741E-008 F
     orb,it,eci,eold,eci-eold=                    2                   53 -0.84433222198840874      -0.84433210502699418       -1.1696141455352915E-007 F
     orb,it,eci,eold,eci-eold=                    2                   54 -0.84433247879846451      -0.84433222198840874       -2.5681005577649074E-007 F
     orb,it,eci,eold,eci-eold=                    2                   55 -0.84433262170382473      -0.84433247879846451       -1.4290536021199784E-007 F
     orb,it,eci,eold,eci-eold=                    2                   56 -0.84433271761259987      -0.84433262170382473       -9.5908775143982439E-008 F
     orb,it,eci,eold,eci-eold=                    2                   57 -0.84433275389418139      -0.84433271761259987       -3.6281581516917072E-008 F
     orb,it,eci,eold,eci-eold=                    2                   58 -0.84433290898997615      -0.84433275389418139       -1.5509579476269408E-007 F
     orb,it,eci,eold,eci-eold=                    2                   59 -0.84433296588421070      -0.84433290898997615       -5.6894234545801226E-008 F
     orb,it,eci,eold,eci-eold=                    2                   60 -0.84433298313003635      -0.84433296588421070       -1.7245825656431180E-008 F
     orb,it,eci,eold,eci-eold=                    2                   61 -0.84433309918684729      -0.84433298313003635       -1.1605681093929121E-007 F
     orb,it,eci,eold,eci-eold=                    2                   62 -0.84433312476563294      -0.84433309918684729       -2.5578785645130608E-008 F
     orb,it,eci,eold,eci-eold=                    2                   63 -0.84433312588039477      -0.84433312476563294       -1.1147618383944291E-009 F
     orb,it,eci,eold,eci-eold=                    2                   64 -0.84433320485998686      -0.84433312588039477       -7.8979592088579409E-008 F
     orb,it,eci,eold,eci-eold=                    2                   65 -0.84433322599139271      -0.84433320485998686       -2.1131405847363283E-008 F
     orb,it,eci,eold,eci-eold=                    2                   66 -0.84433322667462285      -0.84433322599139271       -6.8323013913129671E-010 F
     orbital   2 current e=  0.457961E+00 error=0.227E+00 (eci= -0.844333227E+00 error=0.683E-09) iterations  66(   0 preconditioned, Ep,Sp= 20.0  200.0)
     orb,it,eci,eold,eci-eold=                    2                    1 -0.84433339976805089      -0.84433322667462285       -1.7309342803528693E-007 F
     orb,it,eci,eold,eci-eold=                    2                    2 -0.84433340488242214      -0.84433339976805089       -5.1143712598289426E-009 F
     orb,it,eci,eold,eci-eold=                    2                    3 -0.84433341036792731      -0.84433340488242214       -5.4855051612179295E-009 F
     orb,it,eci,eold,eci-eold=                    2                    4 -0.84433346354331407      -0.84433341036792731       -5.3175386760528909E-008 F
     orb,it,eci,eold,eci-eold=                    2                    5 -0.84433347218036447      -0.84433346354331407       -8.6370504082111665E-009 F
     orb,it,eci,eold,eci-eold=                    2                    6 -0.84433347365237388      -0.84433347218036447       -1.4720094032583120E-009 F
     orb,it,eci,eold,eci-eold=                    2                    7 -0.84433349713705064      -0.84433347365237388       -2.3484676758833700E-008 F
     orb,it,eci,eold,eci-eold=                    2                    8 -0.84433350351427050      -0.84433349713705064       -6.3772198632960908E-009 F
     orb,it,eci,eold,eci-eold=                    2                    9 -0.84433351007865332      -0.84433350351427050       -6.5643828150996342E-009 F
     orb,it,eci,eold,eci-eold=                    2                   10 -0.84433353057153071      -0.84433351007865332       -2.0492877395028586E-008 F
     orb,it,eci,eold,eci-eold=                    2                   11 -0.84433353097330421      -0.84433353057153071       -4.0177350335568462E-010 F
     orbital   2 current e=  0.457761E+00 error=0.200E-03 (eci= -0.844333531E+00 error=0.402E-09) iterations  11(   0 preconditioned, Ep,Sp= 20.0  200.0)
     orb,it,eci,eold,eci-eold=                    2                    1 -0.84433354860119214      -0.84433353097330421       -1.7627887927140762E-008 F
     orb,it,eci,eold,eci-eold=                    2                    2 -0.84433355910675101      -0.84433354860119214       -1.0505558867279774E-008 F
     orb,it,eci,eold,eci-eold=                    2                    3 -0.84433356592883868      -0.84433355910675101       -6.8220876725533230E-009 F
     orb,it,eci,eold,eci-eold=                    2                    4 -0.84433356625779821      -0.84433356592883868       -3.2895952628564373E-010 F
     orbital   2 current e=  0.457729E+00 error=0.320E-04 (eci= -0.844333566E+00 error=0.329E-09) iterations   4(   0 preconditioned, Ep,Sp= 20.0  200.0)
     orb,it,eci,eold,eci-eold=                    3                    1 -0.84210879487948465      -0.84165623501599018       -4.5255986349446164E-004 F
     orb,it,eci,eold,eci-eold=                    3                    2 -0.84221257600562904      -0.84210879487948465       -1.0378112614439772E-004 F
     orb,it,eci,eold,eci-eold=                    3                    3 -0.84225652442460741      -0.84221257600562904       -4.3948418978367876E-005 F
     orb,it,eci,eold,eci-eold=                    3                    4 -0.84258840030273618      -0.84225652442460741       -3.3187587812877339E-004 F
     orb,it,eci,eold,eci-eold=                    3                    5 -0.84258937304214021      -0.84258840030273618       -9.7273940402597958E-007 F
     orb,it,eci,eold,eci-eold=                    3                    6 -0.84263424903707718      -0.84258937304214021       -4.4875994936965924E-005 F
     orb,it,eci,eold,eci-eold=                    3                    7 -0.84270667310363745      -0.84263424903707718       -7.2424066560272671E-005 F
     orb,it,eci,eold,eci-eold=                    3                    8 -0.84277197490028966      -0.84270667310363745       -6.5301796652206257E-005 F
     orb,it,eci,eold,eci-eold=                    3                    9 -0.84279311834970405      -0.84277197490028966       -2.1143449414395832E-005 F
     orb,it,eci,eold,eci-eold=                    3                   10 -0.84281043098845976      -0.84279311834970405       -1.7312638755706544E-005 F
     orb,it,eci,eold,eci-eold=                    3                   11 -0.84281592182232445      -0.84281043098845976       -5.4908338646963983E-006 F
     orb,it,eci,eold,eci-eold=                    3                   12 -0.84283596130520233      -0.84281592182232445       -2.0039482877876047E-005 F
     orb,it,eci,eold,eci-eold=                    3                   13 -0.84284632612859933      -0.84283596130520233       -1.0364823397002176E-005 F
     orb,it,eci,eold,eci-eold=                    3                   14 -0.84284841825223911      -0.84284632612859933       -2.0921236397741794E-006 F
     orb,it,eci,eold,eci-eold=                    3                   15 -0.84284854938242360      -0.84284841825223911       -1.3113018448862590E-007 F
     orb,it,eci,eold,eci-eold=                    3                   16 -0.84285395190538281      -0.84284854938242360       -5.4025229592191693E-006 F
     orb,it,eci,eold,eci-eold=                    3                   17 -0.84285672366755648      -0.84285395190538281       -2.7717621736700337E-006 F
     orb,it,eci,eold,eci-eold=                    3                   18 -0.84285868670316688      -0.84285672366755648       -1.9630356103972346E-006 F
     orb,it,eci,eold,eci-eold=                    3                   19 -0.84286714432087328      -0.84285868670316688       -8.4576177064032976E-006 F
     orb,it,eci,eold,eci-eold=                    3                   20 -0.84287781657075511      -0.84286714432087328       -1.0672249881826801E-005 F
     orb,it,eci,eold,eci-eold=                    3                   21 -0.84287904462807606      -0.84287781657075511       -1.2280573209455525E-006 F
     orb,it,eci,eold,eci-eold=                    3                   22 -0.84288059079360667      -0.84287904462807606       -1.5461655306081568E-006 F
     orb,it,eci,eold,eci-eold=                    3                   23 -0.84289171095317594      -0.84288059079360667       -1.1120159569277810E-005 F
     orb,it,eci,eold,eci-eold=                    3                   24 -0.84290550798603969      -0.84289171095317594       -1.3797032863749337E-005 F
     orb,it,eci,eold,eci-eold=                    3                   25 -0.84291196986431527      -0.84290550798603969       -6.4618782755765380E-006 F
     orb,it,eci,eold,eci-eold=                    3                   26 -0.84292139150659295      -0.84291196986431527       -9.4216422776849384E-006 F
     orb,it,eci,eold,eci-eold=                    3                   27 -0.84292684591476352      -0.84292139150659295       -5.4544081705687475E-006 F
     orb,it,eci,eold,eci-eold=                    3                   28 -0.84293457199558464      -0.84292684591476352       -7.7260808211132570E-006 F
     orb,it,eci,eold,eci-eold=                    3                   29 -0.84293863452641449      -0.84293457199558464       -4.0625308298514184E-006 F
     orb,it,eci,eold,eci-eold=                    3                   30 -0.84294465467014512      -0.84293863452641449       -6.0201437306339756E-006 F
     orb,it,eci,eold,eci-eold=                    3                   31 -0.84294852218158545      -0.84294465467014512       -3.8675114403252664E-006 F
     orb,it,eci,eold,eci-eold=                    3                   32 -0.84295583867127499      -0.84294852218158545       -7.3164896895461240E-006 F
     orb,it,eci,eold,eci-eold=                    3                   33 -0.84295766448592346      -0.84295583867127499       -1.8258146484706472E-006 F
     orb,it,eci,eold,eci-eold=                    3                   34 -0.84295870066923784      -0.84295766448592346       -1.0361833143734955E-006 F
     orb,it,eci,eold,eci-eold=                    3                   35 -0.84296580217580319      -0.84295870066923784       -7.1015065653545761E-006 F
     orb,it,eci,eold,eci-eold=                    3                   36 -0.84297614396457266      -0.84296580217580319       -1.0341788769463456E-005 F
     orb,it,eci,eold,eci-eold=                    3                   37 -0.84297786360592886      -0.84297614396457266       -1.7196413562015067E-006 F
     orb,it,eci,eold,eci-eold=                    3                   38 -0.84297940303881791      -0.84297786360592886       -1.5394328890527831E-006 F
     orb,it,eci,eold,eci-eold=                    3                   39 -0.84298914240802203      -0.84297940303881791       -9.7393692041203295E-006 F
     orb,it,eci,eold,eci-eold=                    3                   40 -0.84299934450588365      -0.84298914240802203       -1.0202097861622406E-005 F
     orb,it,eci,eold,eci-eold=                    3                   41 -0.84300414742246088      -0.84299934450588365       -4.8029165772289772E-006 F
     orb,it,eci,eold,eci-eold=                    3                   42 -0.84301226852954814      -0.84300414742246088       -8.1211070872555524E-006 F
     orb,it,eci,eold,eci-eold=                    3                   43 -0.84301792424095834      -0.84301226852954814       -5.6557114102018247E-006 F
     orb,it,eci,eold,eci-eold=                    3                   44 -0.84302667439180390      -0.84301792424095834       -8.7501508455600785E-006 F
     orb,it,eci,eold,eci-eold=                    3                   45 -0.84303147868046135      -0.84302667439180390       -4.8042886574561905E-006 F
     orb,it,eci,eold,eci-eold=                    3                   46 -0.84303890804997161      -0.84303147868046135       -7.4293695102589652E-006 F
     orb,it,eci,eold,eci-eold=                    3                   47 -0.84303919039176056      -0.84303890804997161       -2.8234178894859241E-007 F
     orb,it,eci,eold,eci-eold=                    3                   48 -0.84303992154173346      -0.84303919039176056       -7.3114997289902561E-007 F
     orb,it,eci,eold,eci-eold=                    3                   49 -0.84304783436684816      -0.84303992154173346       -7.9128251146975970E-006 F
     orb,it,eci,eold,eci-eold=                    3                   50 -0.84306042382551882      -0.84304783436684816       -1.2589458670664300E-005 F
     orb,it,eci,eold,eci-eold=                    3                   51 -0.84306304916210872      -0.84306042382551882       -2.6253365899009395E-006 F
     orb,it,eci,eold,eci-eold=                    3                   52 -0.84306502509973891      -0.84306304916210872       -1.9759376301831111E-006 F
     orb,it,eci,eold,eci-eold=                    3                   53 -0.84307682269899975      -0.84306502509973891       -1.1797599260843228E-005 F
     orb,it,eci,eold,eci-eold=                    3                   54 -0.84308879712052187      -0.84307682269899975       -1.1974421522120693E-005 F
     orb,it,eci,eold,eci-eold=                    3                   55 -0.84309457653580200      -0.84308879712052187       -5.7794152801271537E-006 F
     orb,it,eci,eold,eci-eold=                    3                   56 -0.84310501311921271      -0.84309457653580200       -1.0436583410711187E-005 F
     orb,it,eci,eold,eci-eold=                    3                   57 -0.84311275683292508      -0.84310501311921271       -7.7437137123714805E-006 F
     orb,it,eci,eold,eci-eold=                    3                   58 -0.84312527385409819      -0.84311275683292508       -1.2517021173108489E-005 F
     orb,it,eci,eold,eci-eold=                    3                   59 -0.84313245844285301      -0.84312527385409819       -7.1845887548160903E-006 F
     orb,it,eci,eold,eci-eold=                    3                   60 -0.84314405598599251      -0.84313245844285301       -1.1597543139507671E-005 F
     orb,it,eci,eold,eci-eold=                    3                   61 -0.84314531288162009      -0.84314405598599251       -1.2568956275771370E-006 F
     orb,it,eci,eold,eci-eold=                    3                   62 -0.84314665434179958      -0.84314531288162009       -1.3414601794936587E-006 F
     orb,it,eci,eold,eci-eold=                    3                   63 -0.84315750268940670      -0.84314665434179958       -1.0848347607117503E-005 F
     orb,it,eci,eold,eci-eold=                    3                   64 -0.84316936012688559      -0.84315750268940670       -1.1857437478890454E-005 F
     orb,it,eci,eold,eci-eold=                    3                   65 -0.84317545124707094      -0.84316936012688559       -6.0911201853475205E-006 F
     orb,it,eci,eold,eci-eold=                    3                   66 -0.84318653960850476      -0.84317545124707094       -1.1088361433819749E-005 F
     orb,it,eci,eold,eci-eold=                    3                   67 -0.84318774149188602      -0.84318653960850476       -1.2018833812632579E-006 F
     orb,it,eci,eold,eci-eold=                    3                   68 -0.84318915558186869      -0.84318774149188602       -1.4140899826653452E-006 F
     orb,it,eci,eold,eci-eold=                    3                   69 -0.84319995371481637      -0.84318915558186869       -1.0798132947686945E-005 F
     orb,it,eci,eold,eci-eold=                    3                   70 -0.84321087630219038      -0.84319995371481637       -1.0922587374007087E-005 F
     orb,it,eci,eold,eci-eold=                    3                   71 -0.84321747927116220      -0.84321087630219038       -6.6029689718138940E-006 F
     orb,it,eci,eold,eci-eold=                    3                   72 -0.84323220677228483      -0.84321747927116220       -1.4727501122635545E-005 F
     orb,it,eci,eold,eci-eold=                    3                   73 -0.84323748103590845      -0.84323220677228483       -5.2742636236224882E-006 F
     orb,it,eci,eold,eci-eold=                    3                   74 -0.84324077936928177      -0.84323748103590845       -3.2983333733138664E-006 F
     orb,it,eci,eold,eci-eold=                    3                   75 -0.84325409144943830      -0.84324077936928177       -1.3312080156535622E-005 F
     orb,it,eci,eold,eci-eold=                    3                   76 -0.84326150395498500      -0.84325409144943830       -7.4125055467000323E-006 F
     orb,it,eci,eold,eci-eold=                    3                   77 -0.84326587982452272      -0.84326150395498500       -4.3758695377205115E-006 F
     orb,it,eci,eold,eci-eold=                    3                   78 -0.84328056697311715      -0.84326587982452272       -1.4687148594427768E-005 F
     orb,it,eci,eold,eci-eold=                    3                   79 -0.84328895382249680      -0.84328056697311715       -8.3868493796490640E-006 F
     orb,it,eci,eold,eci-eold=                    3                   80 -0.84329452132154059      -0.84328895382249680       -5.5674990437903915E-006 F
     orb,it,eci,eold,eci-eold=                    3                   81 -0.84331025420053340      -0.84329452132154059       -1.5732878992813504E-005 F
     orb,it,eci,eold,eci-eold=                    3                   82 -0.84331320754156880      -0.84331025420053340       -2.9533410353943523E-006 F
     orb,it,eci,eold,eci-eold=                    3                   83 -0.84331464390115196      -0.84331320754156880       -1.4363595831623499E-006 F
     orb,it,eci,eold,eci-eold=                    3                   84 -0.84332526658999907      -0.84331464390115196       -1.0622688847106154E-005 F
     orb,it,eci,eold,eci-eold=                    3                   85 -0.84333096862810764      -0.84332526658999907       -5.7020381085681748E-006 F
     orb,it,eci,eold,eci-eold=                    3                   86 -0.84333501300372560      -0.84333096862810764       -4.0443756179620038E-006 F
     orb,it,eci,eold,eci-eold=                    3                   87 -0.84334453514042673      -0.84333501300372560       -9.5221367011344427E-006 F
     orb,it,eci,eold,eci-eold=                    3                   88 -0.84334630251692766      -0.84334453514042673       -1.7673765009273978E-006 F
     orb,it,eci,eold,eci-eold=                    3                   89 -0.84334865633693212      -0.84334630251692766       -2.3538200044637136E-006 F
     orb,it,eci,eold,eci-eold=                    3                   90 -0.84335683084033031      -0.84334865633693212       -8.1745033981839299E-006 F
     orb,it,eci,eold,eci-eold=                    3                   91 -0.84335883285118873      -0.84335683084033031       -2.0020108584262175E-006 F
     orb,it,eci,eold,eci-eold=                    3                   92 -0.84336016771372480      -0.84335883285118873       -1.3348625360620758E-006 F
     orb,it,eci,eold,eci-eold=                    3                   93 -0.84336493450962191      -0.84336016771372480       -4.7667958971153723E-006 F
     orb,it,eci,eold,eci-eold=                    3                   94 -0.84336588155155900      -0.84336493450962191       -9.4704193709382878E-007 F
     orb,it,eci,eold,eci-eold=                    3                   95 -0.84336716267392087      -0.84336588155155900       -1.2811223618625078E-006 F
     orb,it,eci,eold,eci-eold=                    3                   96 -0.84337110121231373      -0.84336716267392087       -3.9385383928669526E-006 F
     orb,it,eci,eold,eci-eold=                    3                   97 -0.84337164429150646      -0.84337110121231373       -5.4307919272744698E-007 F
     orb,it,eci,eold,eci-eold=                    3                   98 -0.84337221528729478      -0.84337164429150646       -5.7099578831820708E-007 F
     orb,it,eci,eold,eci-eold=                    3                   99 -0.84337490221628397      -0.84337221528729478       -2.6869289891928716E-006 F
     orb,it,eci,eold,eci-eold=                    3                  100 -0.84337554021217465      -0.84337490221628397       -6.3799589067325968E-007 F
     orb,it,eci,eold,eci-eold=                    3                  101 -0.84337600105774868      -0.84337554021217465       -4.6084557403514026E-007 F
     orb,it,eci,eold,eci-eold=                    3                  102 -0.84337803576899772      -0.84337600105774868       -2.0347112490437524E-006 F
     orb,it,eci,eold,eci-eold=                    3                  103 -0.84337823133389911      -0.84337803576899772       -1.9556490138405991E-007 F
     orb,it,eci,eold,eci-eold=                    3                  104 -0.84337824062465039      -0.84337823133389911       -9.2907512794226932E-009 F
     orb,it,eci,eold,eci-eold=                    3                  105 -0.84337942230113760      -0.84337824062465039       -1.1816764872163432E-006 F
     orb,it,eci,eold,eci-eold=                    3                  106 -0.84337974870315491      -0.84337942230113760       -3.2640201730327334E-007 F
     orb,it,eci,eold,eci-eold=                    3                  107 -0.84337984170462943      -0.84337974870315491       -9.3001474521514638E-008 F
     orb,it,eci,eold,eci-eold=                    3                  108 -0.84338074140905295      -0.84337984170462943       -8.9970442351816615E-007 F
     orb,it,eci,eold,eci-eold=                    3                  109 -0.84338107267927365      -0.84338074140905295       -3.3127022069923129E-007 F
     orb,it,eci,eold,eci-eold=                    3                  110 -0.84338118379277915      -0.84338107267927365       -1.1111350550763177E-007 F
     orb,it,eci,eold,eci-eold=                    3                  111 -0.84338183420834933      -0.84338118379277915       -6.5041557018030716E-007 F
     orb,it,eci,eold,eci-eold=                    3                  112 -0.84338195217000878      -0.84338183420834933       -1.1796165944044645E-007 F
     orb,it,eci,eold,eci-eold=                    3                  113 -0.84338201241344724      -0.84338195217000878       -6.0243438460005905E-008 F
     orb,it,eci,eold,eci-eold=                    3                  114 -0.84338252063575858      -0.84338201241344724       -5.0822231134617368E-007 F
     orb,it,eci,eold,eci-eold=                    3                  115 -0.84338276114431421      -0.84338252063575858       -2.4050855562673945E-007 F
     orb,it,eci,eold,eci-eold=                    3                  116 -0.84338294585026141      -0.84338276114431421       -1.8470594720376710E-007 F
     orb,it,eci,eold,eci-eold=                    3                  117 -0.84338304189761448      -0.84338294585026141       -9.6047353070893848E-008 F
     orb,it,eci,eold,eci-eold=                    3                  118 -0.84338323015840122      -0.84338304189761448       -1.8826078673761515E-007 F
     orb,it,eci,eold,eci-eold=                    3                  119 -0.84338333619735240      -0.84338323015840122       -1.0603895117533568E-007 F
     orb,it,eci,eold,eci-eold=                    3                  120 -0.84338344583653502      -0.84338333619735240       -1.0963918262163475E-007 F
     orb,it,eci,eold,eci-eold=                    3                  121 -0.84338350303054055      -0.84338344583653502       -5.7194005531613357E-008 F
     orbital   3 current e=  0.605111E+00 error=0.144E+00 (eci= -0.843383503E+00 error=0.572E-07) iterations 121(   0 preconditioned, Ep,Sp= 20.0  200.0)
     orb,it,eci,eold,eci-eold=                    3                    1 -0.84338361997578948      -0.84338350303054055       -1.1694524892913449E-007 F
     orb,it,eci,eold,eci-eold=                    3                    2 -0.84338369000953839      -0.84338361997578948       -7.0033748911235705E-008 F
     orb,it,eci,eold,eci-eold=                    3                    3 -0.84338374606388156      -0.84338369000953839       -5.6054343167133425E-008 F
     orb,it,eci,eold,eci-eold=                    3                    4 -0.84338376659920034      -0.84338374606388156       -2.0535318778769351E-008 F
     orb,it,eci,eold,eci-eold=                    3                    5 -0.84338380202380780      -0.84338376659920034       -3.5424607469636271E-008 F
     orb,it,eci,eold,eci-eold=                    3                    6 -0.84338382185271221      -0.84338380202380780       -1.9828904407326320E-008 F
     orb,it,eci,eold,eci-eold=                    3                    7 -0.84338383156028485      -0.84338382185271221       -9.7075726346318447E-009 F
     orb,it,eci,eold,eci-eold=                    3                    8 -0.84338383679627926      -0.84338383156028485       -5.2359944158197891E-009 F
     orb,it,eci,eold,eci-eold=                    3                    9 -0.84338384749467754      -0.84338383679627926       -1.0698398278385923E-008 F
     orb,it,eci,eold,eci-eold=                    3                   10 -0.84338384792512144      -0.84338384749467754       -4.3044390274360467E-010 F
     orbital   3 current e=  0.604340E+00 error=0.771E-03 (eci= -0.843383848E+00 error=0.430E-09) iterations  10(   0 preconditioned, Ep,Sp= 20.0  200.0)
     orb,it,eci,eold,eci-eold=                    3                    1 -0.84338385656949311      -0.84338384792512144       -8.6443716629247547E-009 F
     orb,it,eci,eold,eci-eold=                    3                    2 -0.84338385656949311      -0.84338385656949311        0.0000000000000000      F
     orbital   3 current e=  0.604240E+00 error=0.994E-04 (eci= -0.843383857E+00 error=0.000E+00) iterations   2(   0 preconditioned, Ep,Sp= 20.0  200.0)
     orb,it,eci,eold,eci-eold=                    4                    1 -0.84267413375444611      -0.84221244219078950       -4.6169156365660768E-004 F
     orb,it,eci,eold,eci-eold=                    4                    2 -0.84271709523512628      -0.84267413375444611       -4.2961480680170361E-005 F
     orb,it,eci,eold,eci-eold=                    4                    3 -0.84281616023714456      -0.84271709523512628       -9.9065002018283721E-005 F
     orb,it,eci,eold,eci-eold=                    4                    4 -0.84283865563502647      -0.84281616023714456       -2.2495397881905355E-005 F
     orb,it,eci,eold,eci-eold=                    4                    5 -0.84284860188829247      -0.84283865563502647       -9.9462532660021807E-006 F
     orb,it,eci,eold,eci-eold=                    4                    6 -0.84289753012052671      -0.84284860188829247       -4.8928232234235480E-005 F
     orb,it,eci,eold,eci-eold=                    4                    7 -0.84292483391334705      -0.84289753012052671       -2.7303792820343453E-005 F
     orb,it,eci,eold,eci-eold=                    4                    8 -0.84297944701491478      -0.84292483391334705       -5.4613101567735356E-005 F
     orb,it,eci,eold,eci-eold=                    4                    9 -0.84300187944914495      -0.84297944701491478       -2.2432434230168496E-005 F
     orb,it,eci,eold,eci-eold=                    4                   10 -0.84301738013541860      -0.84300187944914495       -1.5500686273650643E-005 F
     orb,it,eci,eold,eci-eold=                    4                   11 -0.84304387420634153      -0.84301738013541860       -2.6494070922922219E-005 F
     orb,it,eci,eold,eci-eold=                    4                   12 -0.84306065389093687      -0.84304387420634153       -1.6779684595347177E-005 F
     orb,it,eci,eold,eci-eold=                    4                   13 -0.84307027553253644      -0.84306065389093687       -9.6216415995664661E-006 F
     orb,it,eci,eold,eci-eold=                    4                   14 -0.84309106827760205      -0.84307027553253644       -2.0792745065612017E-005 F
     orb,it,eci,eold,eci-eold=                    4                   15 -0.84311267299905956      -0.84309106827760205       -2.1604721457513243E-005 F
     orb,it,eci,eold,eci-eold=                    4                   16 -0.84312621212755245      -0.84311267299905956       -1.3539128492889851E-005 F
     orb,it,eci,eold,eci-eold=                    4                   17 -0.84315094560572190      -0.84312621212755245       -2.4733478169447487E-005 F
     orb,it,eci,eold,eci-eold=                    4                   18 -0.84316543789129239      -0.84315094560572190       -1.4492285570488761E-005 F
     orb,it,eci,eold,eci-eold=                    4                   19 -0.84317454175861628      -0.84316543789129239       -9.1038673238896806E-006 F
     orb,it,eci,eold,eci-eold=                    4                   20 -0.84317813210318493      -0.84317454175861628       -3.5903445686491509E-006 F
     orb,it,eci,eold,eci-eold=                    4                   21 -0.84318834412920129      -0.84317813210318493       -1.0212026016365172E-005 F
     orb,it,eci,eold,eci-eold=                    4                   22 -0.84319208509091259      -0.84318834412920129       -3.7409617112960092E-006 F
     orb,it,eci,eold,eci-eold=                    4                   23 -0.84319671139750008      -0.84319208509091259       -4.6263065874851961E-006 F
     orb,it,eci,eold,eci-eold=                    4                   24 -0.84320125264968482      -0.84319671139750008       -4.5412521847421061E-006 F
     orb,it,eci,eold,eci-eold=                    4                   25 -0.84320403865893523      -0.84320125264968482       -2.7860092504106149E-006 F
     orb,it,eci,eold,eci-eold=                    4                   26 -0.84321037439924673      -0.84320403865893523       -6.3357403115027466E-006 F
     orb,it,eci,eold,eci-eold=                    4                   27 -0.84321134992502911      -0.84321037439924673       -9.7552578237625198E-007 F
     orb,it,eci,eold,eci-eold=                    4                   28 -0.84321238941579946      -0.84321134992502911       -1.0394907703492606E-006 F
     orb,it,eci,eold,eci-eold=                    4                   29 -0.84321565039779256      -0.84321238941579946       -3.2609819931028738E-006 F
     orb,it,eci,eold,eci-eold=                    4                   30 -0.84321585802675791      -0.84321565039779256       -2.0762896535408970E-007 F
     orb,it,eci,eold,eci-eold=                    4                   31 -0.84321675577316502      -0.84321585802675791       -8.9774640710249543E-007 F
     orb,it,eci,eold,eci-eold=                    4                   32 -0.84321993554666130      -0.84321675577316502       -3.1797734962868418E-006 F
     orb,it,eci,eold,eci-eold=                    4                   33 -0.84322163314130860      -0.84321993554666130       -1.6975946472985726E-006 F
     orb,it,eci,eold,eci-eold=                    4                   34 -0.84322318407071817      -0.84322163314130860       -1.5509294095661375E-006 F
     orb,it,eci,eold,eci-eold=                    4                   35 -0.84322404345160784      -0.84322318407071817       -8.5938088967285609E-007 F
     orb,it,eci,eold,eci-eold=                    4                   36 -0.84322500050056759      -0.84322404345160784       -9.5704895974879634E-007 F
     orb,it,eci,eold,eci-eold=                    4                   37 -0.84322553661746702      -0.84322500050056759       -5.3611689943000584E-007 F
     orb,it,eci,eold,eci-eold=                    4                   38 -0.84322645713836097      -0.84322553661746702       -9.2052089395444625E-007 F
     orb,it,eci,eold,eci-eold=                    4                   39 -0.84322695320061758      -0.84322645713836097       -4.9606225660525638E-007 F
     orb,it,eci,eold,eci-eold=                    4                   40 -0.84322739265454227      -0.84322695320061758       -4.3945392469435518E-007 F
     orb,it,eci,eold,eci-eold=                    4                   41 -0.84322760726993029      -0.84322739265454227       -2.1461538801670343E-007 F
     orb,it,eci,eold,eci-eold=                    4                   42 -0.84322812591200291      -0.84322760726993029       -5.1864207262219963E-007 F
     orb,it,eci,eold,eci-eold=                    4                   43 -0.84322813649382300      -0.84322812591200291       -1.0581820086841276E-008 F
     orb,it,eci,eold,eci-eold=                    4                   44 -0.84322817216571622      -0.84322813649382300       -3.5671893217070760E-008 F
     orb,it,eci,eold,eci-eold=                    4                   45 -0.84322850110775960      -0.84322817216571622       -3.2894204338163036E-007 F
     orb,it,eci,eold,eci-eold=                    4                   46 -0.84322866287685261      -0.84322850110775960       -1.6176909301002240E-007 F
     orb,it,eci,eold,eci-eold=                    4                   47 -0.84322884404488296      -0.84322866287685261       -1.8116803035539419E-007 F
     orb,it,eci,eold,eci-eold=                    4                   48 -0.84322894484342537      -0.84322884404488296       -1.0079854240174768E-007 F
     orb,it,eci,eold,eci-eold=                    4                   49 -0.84322905737351683      -0.84322894484342537       -1.1253009146727777E-007 F
     orb,it,eci,eold,eci-eold=                    4                   50 -0.84322911172552706      -0.84322905737351683       -5.4352010225855452E-008 F
     orb,it,eci,eold,eci-eold=                    4                   51 -0.84322920121887579      -0.84322911172552706       -8.9493348731650713E-008 F
     orb,it,eci,eold,eci-eold=                    4                   52 -0.84322925578521635      -0.84322920121887579       -5.4566340557116177E-008 F
     orb,it,eci,eold,eci-eold=                    4                   53 -0.84322930771616833      -0.84322925578521635       -5.1930951983081286E-008 F
     orb,it,eci,eold,eci-eold=                    4                   54 -0.84322933421279722      -0.84322930771616833       -2.6496628890981810E-008 F
     orb,it,eci,eold,eci-eold=                    4                   55 -0.84322939164512389      -0.84322933421279722       -5.7432326672213208E-008 F
     orb,it,eci,eold,eci-eold=                    4                   56 -0.84322942248633503      -0.84322939164512389       -3.0841211140497649E-008 F
     orb,it,eci,eold,eci-eold=                    4                   57 -0.84322944269232758      -0.84322942248633503       -2.0205992545818674E-008 F
     orb,it,eci,eold,eci-eold=                    4                   58 -0.84322945220393331      -0.84322944269232758       -9.5116057252653263E-009 F
     orb,it,eci,eold,eci-eold=                    4                   59 -0.84322947829364414      -0.84322945220393331       -2.6089710836174618E-008 F
     orb,it,eci,eold,eci-eold=                    4                   60 -0.84322949330035923      -0.84322947829364414       -1.5006715092802381E-008 F
     orb,it,eci,eold,eci-eold=                    4                   61 -0.84322950277376796      -0.84322949330035923       -9.4734087241477027E-009 F
     orb,it,eci,eold,eci-eold=                    4                   62 -0.84322950699103461      -0.84322950277376796       -4.2172666470108311E-009 F
     orb,it,eci,eold,eci-eold=                    4                   63 -0.84322951899459964      -0.84322950699103461       -1.2003565030838104E-008 F
     orb,it,eci,eold,eci-eold=                    4                   64 -0.84322951899459964      -0.84322951899459964        0.0000000000000000      F
     orbital   4 current e=  0.490334E+00 error=0.463E-01 (eci= -0.843229519E+00 error=0.000E+00) iterations  64(   0 preconditioned, Ep,Sp= 20.0  200.0)
     orb,it,eci,eold,eci-eold=                    4                    1 -0.84322953810366896      -0.84322951881718322       -1.9286485741787374E-008 F
     orb,it,eci,eold,eci-eold=                    4                    2 -0.84322954259981042      -0.84322953810366896       -4.4961414591426774E-009 F
     orb,it,eci,eold,eci-eold=                    4                    3 -0.84322955099085284      -0.84322954259981042       -8.3910424164557185E-009 F
     orb,it,eci,eold,eci-eold=                    4                    4 -0.84322955270832778      -0.84322955099085284       -1.7174749400439282E-009 F
     orb,it,eci,eold,eci-eold=                    4                    5 -0.84322955270832778      -0.84322955270832778        0.0000000000000000      F
     orbital   4 current e=  0.490226E+00 error=0.108E-03 (eci= -0.843229553E+00 error=0.000E+00) iterations   5(   0 preconditioned, Ep,Sp= 20.0  200.0)
     orb,it,eci,eold,eci-eold=                    4                    1 -0.84322955900123675      -0.84322955256483423       -6.4364025220697840E-009 F
     orb,it,eci,eold,eci-eold=                    4                    2 -0.84322956087835932      -0.84322955900123675       -1.8771225684943715E-009 F
     orb,it,eci,eold,eci-eold=                    4                    3 -0.84322956087835932      -0.84322956087835932        0.0000000000000000      F
     orbital   4 current e=  0.490186E+00 error=0.403E-04 (eci= -0.843229561E+00 error=0.000E+00) iterations   3(   0 preconditioned, Ep,Sp= 20.0  200.0)
     orb,it,eci,eold,eci-eold=                    5                    1 -0.84267093399279380      -0.84221212126907929       -4.5881272371450788E-004 F
     orb,it,eci,eold,eci-eold=                    5                    2 -0.84269400653730797      -0.84267093399279380       -2.3072544514168847E-005 F
     orb,it,eci,eold,eci-eold=                    5                    3 -0.84279118973197298      -0.84269400653730797       -9.7183194665007022E-005 F
     orb,it,eci,eold,eci-eold=                    5                    4 -0.84286944832978550      -0.84279118973197298       -7.8258597812519426E-005 F
     orb,it,eci,eold,eci-eold=                    5                    5 -0.84295854733708975      -0.84286944832978550       -8.9099007304249689E-005 F
     orb,it,eci,eold,eci-eold=                    5                    6 -0.84300220440510043      -0.84295854733708975       -4.3657068010682920E-005 F
     orb,it,eci,eold,eci-eold=                    5                    7 -0.84300515597517722      -0.84300220440510043       -2.9515700767923647E-006 F
     orb,it,eci,eold,eci-eold=                    5                    8 -0.84300724603399280      -0.84300515597517722       -2.0900588155736699E-006 F
     orb,it,eci,eold,eci-eold=                    5                    9 -0.84303881899602806      -0.84300724603399280       -3.1572962035264496E-005 F
     orb,it,eci,eold,eci-eold=                    5                   10 -0.84305937804166742      -0.84303881899602806       -2.0559045639356732E-005 F
     orb,it,eci,eold,eci-eold=                    5                   11 -0.84307918756922495      -0.84305937804166742       -1.9809527557534956E-005 F
     orb,it,eci,eold,eci-eold=                    5                   12 -0.84308650530619056      -0.84307918756922495       -7.3177369656063362E-006 F
     orb,it,eci,eold,eci-eold=                    5                   13 -0.84309092664763774      -0.84308650530619056       -4.4213414471805379E-006 F
     orb,it,eci,eold,eci-eold=                    5                   14 -0.84310127558174841      -0.84309092664763774       -1.0348934110671060E-005 F
     orb,it,eci,eold,eci-eold=                    5                   15 -0.84311680200292849      -0.84310127558174841       -1.5526421180078742E-005 F
     orb,it,eci,eold,eci-eold=                    5                   16 -0.84312700847548150      -0.84311680200292849       -1.0206472553009327E-005 F
     orb,it,eci,eold,eci-eold=                    5                   17 -0.84314402881263428      -0.84312700847548150       -1.7020337152784393E-005 F
     orb,it,eci,eold,eci-eold=                    5                   18 -0.84314872725461520      -0.84314402881263428       -4.6984419809215083E-006 F
     orb,it,eci,eold,eci-eold=                    5                   19 -0.84315525119847612      -0.84314872725461520       -6.5239438609143718E-006 F
     orb,it,eci,eold,eci-eold=                    5                   20 -0.84316529771354354      -0.84315525119847612       -1.0046515067418937E-005 F
     orb,it,eci,eold,eci-eold=                    5                   21 -0.84317012344313336      -0.84316529771354354       -4.8257295898190833E-006 F
     orb,it,eci,eold,eci-eold=                    5                   22 -0.84317730859244000      -0.84317012344313336       -7.1851493066432681E-006 F
     orb,it,eci,eold,eci-eold=                    5                   23 -0.84317937988529046      -0.84317730859244000       -2.0712928504584838E-006 F
     orb,it,eci,eold,eci-eold=                    5                   24 -0.84317982341504294      -0.84317937988529046       -4.4352975248074245E-007 F
     orb,it,eci,eold,eci-eold=                    5                   25 -0.84318363572530153      -0.84317982341504294       -3.8123102585885249E-006 F
     orb,it,eci,eold,eci-eold=                    5                   26 -0.84318904673911366      -0.84318363572530153       -5.4110138121288287E-006 F
     orb,it,eci,eold,eci-eold=                    5                   27 -0.84318927420715528      -0.84318904673911366       -2.2746804162476764E-007 F
     orb,it,eci,eold,eci-eold=                    5                   28 -0.84319151745443677      -0.84318927420715528       -2.2432472814859494E-006 F
     orb,it,eci,eold,eci-eold=                    5                   29 -0.84319752750475763      -0.84319151745443677       -6.0100503208593281E-006 F
     orb,it,eci,eold,eci-eold=                    5                   30 -0.84319933065921338      -0.84319752750475763       -1.8031544557484125E-006 F
     orb,it,eci,eold,eci-eold=                    5                   31 -0.84320072726868767      -0.84319933065921338       -1.3966094742912105E-006 F
     orb,it,eci,eold,eci-eold=                    5                   32 -0.84320490686827254      -0.84320072726868767       -4.1795995848747935E-006 F
     orb,it,eci,eold,eci-eold=                    5                   33 -0.84320645080158696      -0.84320490686827254       -1.5439333144184886E-006 F
     orb,it,eci,eold,eci-eold=                    5                   34 -0.84320778792875384      -0.84320645080158696       -1.3371271668782825E-006 F
     orb,it,eci,eold,eci-eold=                    5                   35 -0.84321093923740564      -0.84320778792875384       -3.1513086518053512E-006 F
     orb,it,eci,eold,eci-eold=                    5                   36 -0.84321100500691204      -0.84321093923740564       -6.5769506396584632E-008 F
     orb,it,eci,eold,eci-eold=                    5                   37 -0.84321148385652855      -0.84321100500691204       -4.7884961651423197E-007 F
     orb,it,eci,eold,eci-eold=                    5                   38 -0.84321431285573267      -0.84321148385652855       -2.8289992041186096E-006 F
     orb,it,eci,eold,eci-eold=                    5                   39 -0.84321521929108667      -0.84321431285573267       -9.0643535399781427E-007 F
     orb,it,eci,eold,eci-eold=                    5                   40 -0.84321562005859207      -0.84321521929108667       -4.0076750540407602E-007 F
     orb,it,eci,eold,eci-eold=                    5                   41 -0.84321794691977736      -0.84321562005859207       -2.3268611852866883E-006 F
     orb,it,eci,eold,eci-eold=                    5                   42 -0.84321798389322677      -0.84321794691977736       -3.6973449413224557E-008 F
     orb,it,eci,eold,eci-eold=                    5                   43 -0.84321802210327645      -0.84321798389322677       -3.8210049679854308E-008 F
     orb,it,eci,eold,eci-eold=                    5                   44 -0.84322013865569501      -0.84321802210327645       -2.1165524185517981E-006 F
     orb,it,eci,eold,eci-eold=                    5                   45 -0.84322069140477862      -0.84322013865569501       -5.5274908361546693E-007 F
     orb,it,eci,eold,eci-eold=                    5                   46 -0.84322081989375475      -0.84322069140477862       -1.2848897612549592E-007 F
[...]
   16   13   16   16       -0.0001857711
   16   13   17   16        0.0000193846
   16   13   18   16        0.0004267987
   16   13   19   16       -0.0002729744
   16   13   17   17       -0.0005181147
   16   13   18   17        0.0000127282
   16   13   19   17        0.0002140829
   16   13   18   18        0.0018173415
   16   13   19   18        0.0003562027
   16   13   19   19        0.0019040738
   17   13   17   13        0.0120139018
   17   13   18   13       -0.0001342515
   17   13   19   13       -0.0001192346
   17   13   14   14        0.0001394184
   17   13   15   14        0.0004885629
   17   13   16   14       -0.0002704354
   17   13   17   14       -0.0000049468
   17   13   18   14       -0.0015018584
   17   13   19   14       -0.0008100994
   17   13   15   15        0.0003335942
   17   13   16   15        0.0000324107
   17   13   17   15        0.0005527580
   17   13   18   15       -0.0005259293
   17   13   19   15       -0.0002742766
   17   13   16   16       -0.0001624712
   17   13   17   16       -0.0002925000
   17   13   18   16       -0.0000884389
   17   13   19   16        0.0001292105
   17   13   17   17       -0.0000083390
   17   13   18   17       -0.0002790012
   17   13   19   17       -0.0002511336
   17   13   18   18        0.0000304250
   17   13   19   18       -0.0000432303
   17   13   19   19       -0.0000371565
   18   13   18   13        0.0455952907
   18   13   19   13        0.0376570518
   18   13   14   14        0.0012210169
   18   13   15   14       -0.0551630958
   18   13   16   14       -0.0426930967
   18   13   17   14       -0.0007970210
   18   13   18   14        0.0056175088
   18   13   19   14        0.0016072789
   18   13   15   15       -0.0096632598
   18   13   16   15       -0.0004058549
   18   13   17   15       -0.0020821652
   18   13   18   15       -0.0101737039
   18   13   19   15       -0.0118381733
   18   13   16   16        0.0030556320
   18   13   17   16        0.0037844862
   18   13   18   16        0.0055027808
   18   13   19   16        0.0100017339
   18   13   17   17        0.0002945182
   18   13   18   17        0.0000710169
   18   13   19   17       -0.0001680853
   18   13   18   18        0.0455313920
   18   13   19   18        0.0022152658
   18   13   19   19        0.0389793097
   19   13   19   13        0.0417760320
   19   13   14   14        0.0012105953
   19   13   15   14       -0.0518333391
   19   13   16   14       -0.0406926739
   19   13   17   14       -0.0004498438
   19   13   18   14        0.0049598649
   19   13   19   14        0.0014078053
   19   13   15   15       -0.0057158469
   19   13   16   15       -0.0015776727
   19   13   17   15       -0.0011086139
   19   13   18   15       -0.0088641790
   19   13   19   15       -0.0123655780
   19   13   16   16       -0.0012475699
   19   13   17   16        0.0042004076
   19   13   18   16        0.0049670952
   19   13   19   16        0.0104069208
   19   13   17   17        0.0003967342
   19   13   18   17        0.0000462306
   19   13   19   17       -0.0002472994
   19   13   18   18        0.0382604663
   19   13   19   18        0.0024365297
   19   13   19   19        0.0412565995
   14   14   14   14        0.2927844118
   14   14   15   14       -0.0020537056
   14   14   16   14       -0.0014834024
   14   14   17   14       -0.0001526222
   14   14   18   14        0.0000985136
   14   14   19   14       -0.0000399034
   14   14   15   15        0.2878407119
   14   14   16   15        0.0195346416
   14   14   17   15        0.0002811648
   14   14   18   15       -0.0012732624
   14   14   19   15       -0.0002453854
   14   14   16   16        0.2738957267
   14   14   17   16        0.0001318344
   14   14   18   16       -0.0006589913
   14   14   19   16       -0.0003512197
   14   14   17   17        0.2533050290
   14   14   18   17       -0.0002035309
   14   14   19   17       -0.0002576698
   14   14   18   18        0.2800202190
   14   14   19   18        0.0000918595
   14   14   19   19        0.2802823405
   15   14   15   14        0.1128717992
   15   14   16   14        0.0811061753
   15   14   17   14        0.0004979137
   15   14   18   14       -0.0096967322
   15   14   19   14       -0.0028995406
   15   14   15   15        0.0146159253
   15   14   16   15        0.0027907183
   15   14   17   15       -0.0009211893
   15   14   18   15        0.0174677121
   15   14   19   15        0.0224024619
   15   14   16   16       -0.0039508997
   15   14   17   16       -0.0089754669
   15   14   18   16       -0.0078411423
   15   14   19   16       -0.0169005906
   15   14   17   17       -0.0037921543
   15   14   18   17        0.0003349444
   15   14   19   17        0.0005347791
   15   14   18   18       -0.0755486549
   15   14   19   18       -0.0006143659
   15   14   19   19       -0.0766329405
   16   14   16   14        0.0724807230
   16   14   17   14        0.0003681357
   16   14   18   14       -0.0073527195
   16   14   19   14       -0.0020546484
   16   14   15   15        0.0108498432
   16   14   16   15        0.0014068985
   16   14   17   15       -0.0004926500
   16   14   18   15        0.0120816597
   16   14   19   15        0.0156273092
   16   14   16   16       -0.0038525547
   16   14   17   16       -0.0077272933
   16   14   18   16       -0.0072109744
   16   14   19   16       -0.0148407826
   16   14   17   17       -0.0026437842
   16   14   18   17        0.0002070781
   16   14   19   17        0.0002594028
   16   14   18   18       -0.0638411999
   16   14   19   18        0.0013300514
   16   14   19   19       -0.0548149471
   17   14   17   14        0.0088825296
   17   14   18   14       -0.0000452981
   17   14   19   14       -0.0000844979
   17   14   15   15        0.0005673942
   17   14   16   15       -0.0008868364
   17   14   17   15       -0.0004165797
   17   14   18   15        0.0002466503
   17   14   19   15        0.0002285736
   17   14   16   16       -0.0007798680
   17   14   17   16       -0.0002327630
   17   14   18   16        0.0000833211
   17   14   19   16        0.0001486532
   17   14   17   17        0.0000129958
   17   14   18   17        0.0000599613
   17   14   19   17        0.0000594636
   17   14   18   18        0.0008012120
   17   14   19   18        0.0042780825
   17   14   19   19       -0.0016385556
   18   14   18   14        0.0101194170
   18   14   19   14        0.0002147387
   18   14   15   15        0.0002550048
   18   14   16   15        0.0000131179
   18   14   17   15       -0.0000039166
   18   14   18   15       -0.0075007523
   18   14   19   15       -0.0014541050
   18   14   16   16       -0.0001653767
   18   14   17   16        0.0007331993
   18   14   18   16       -0.0005438088
   18   14   19   16        0.0007938580
   18   14   17   17        0.0003781754
   18   14   18   17       -0.0007842293
   18   14   19   17       -0.0027819189
   18   14   18   18        0.0076429401
   18   14   19   18        0.0001595243
   18   14   19   19        0.0064097370
   19   14   19   14        0.0093321798
   19   14   15   15        0.0018395452
   19   14   16   15       -0.0001076844
   19   14   17   15       -0.0001557285
   19   14   18   15       -0.0000279642
   19   14   19   15       -0.0032324434
   19   14   16   16       -0.0015485719
   19   14   17   16        0.0001229083
   19   14   18   16       -0.0005650532
   19   14   19   16       -0.0051047389
   19   14   17   17        0.0002293366
   19   14   18   17       -0.0027295009
   19   14   19   17        0.0007456394
   19   14   18   18        0.0018441442
   19   14   19   18        0.0004614350
   19   14   19   19        0.0020944656
   15   15   15   15        0.3087800986
   15   15   16   15        0.0103398307
   15   15   17   15       -0.0003431609
   15   15   18   15        0.0026226316
   15   15   19   15        0.0051211581
   15   15   16   16        0.2768855704
   15   15   17   16       -0.0006833226
   15   15   18   16       -0.0009457050
   15   15   19   16       -0.0028346846
   15   15   17   17        0.2653221145
   15   15   18   17       -0.0013397171
   15   15   19   17       -0.0006982415
   15   15   18   18        0.2766286456
   15   15   19   18        0.0015172945
   15   15   19   19        0.2822984266
   16   15   16   15        0.0154682857
   16   15   17   15       -0.0002134173
   16   15   18   15        0.0009112664
   16   15   19   15        0.0001989396
   16   15   16   16        0.0063879576
   16   15   17   16       -0.0001115384
   16   15   18   16       -0.0000876109
   16   15   19   16       -0.0019241305
   16   15   17   17       -0.0013279347
   16   15   18   17       -0.0004016143
   16   15   19   17       -0.0002753207
   16   15   18   18        0.0092833082
   16   15   19   18       -0.0009509923
   16   15   19   19        0.0076856519
   17   15   17   15        0.0092042893
   17   15   18   15       -0.0004409833
   17   15   19   15       -0.0001665451
   17   15   16   16        0.0001380465
   17   15   17   16        0.0013068290
   17   15   18   16       -0.0010260650
   17   15   19   16       -0.0004413928
   17   15   17   17        0.0000265657
   17   15   18   17       -0.0001722110
   17   15   19   17       -0.0002009042
   17   15   18   18       -0.0001688986
   17   15   19   18       -0.0019163754
   17   15   19   19        0.0008513127
   18   15   18   15        0.0149062232
   18   15   19   15        0.0031318380
   18   15   16   16       -0.0006922155
   18   15   17   16       -0.0004880022
   18   15   18   16       -0.0023694596
   18   15   19   16       -0.0026670234
   18   15   17   17       -0.0002525726
   18   15   18   17        0.0005995555
   18   15   19   17        0.0043942955
   18   15   18   18       -0.0126796181
   18   15   19   18       -0.0009239762
   18   15   19   19       -0.0107856184
   19   15   19   15        0.0124666616
   19   15   16   16        0.0006036602
   19   15   17   16       -0.0018398365
   19   15   18   16       -0.0018403071
   19   15   19   16       -0.0036846852
   19   15   17   17       -0.0003992339
   19   15   18   17       -0.0003616231
   19   15   19   17       -0.0004555238
   19   15   18   18       -0.0147733411
   19   15   19   18       -0.0005630854
   19   15   19   19       -0.0158576883
   16   16   16   16        0.2909487340
   16   16   17   16        0.0006024597
   16   16   18   16        0.0001180779
   16   16   19   16        0.0013556295
   16   16   17   17        0.2659981566
   16   16   18   17        0.0010499161
   16   16   19   17        0.0001623191
   16   16   18   18        0.2862029311
   16   16   19   18       -0.0008391212
   16   16   19   19        0.2825214042
   17   16   17   16        0.0088450654
   17   16   18   16        0.0009283300
   17   16   19   16        0.0019253491
   17   16   17   17        0.0004198198
   17   16   18   17        0.0000636267
   17   16   19   17        0.0001068528
   17   16   18   18        0.0070958726
   17   16   19   18       -0.0014797784
   17   16   19   19        0.0075628079
   18   16   18   16        0.0088234186
   18   16   19   16        0.0027183349
   18   16   17   17        0.0002045799
   18   16   18   17        0.0009367123
   18   16   19   17       -0.0018815456
   18   16   18   18        0.0069025293
   18   16   19   18        0.0007792255
   18   16   19   19        0.0057406288
   19   16   19   16        0.0169026491
   19   16   17   17        0.0003624055
   19   16   18   17        0.0051750851
   19   16   19   17       -0.0000313583
   19   16   18   18        0.0127923151
   19   16   19   18        0.0003524427
   19   16   19   19        0.0136930597
   17   17   17   17        0.2765798400
   17   17   18   17       -0.0000106388
   17   17   19   17       -0.0000166319
   17   17   18   18        0.2704069870
   17   17   19   18       -0.0000598818
   17   17   19   19        0.2706046510
   18   17   18   17        0.0107344693
   18   17   19   17        0.0000492678
   18   17   18   18       -0.0001401738
   18   17   19   18       -0.0000513726
   18   17   19   19        0.0000102122
   19   17   19   17        0.0106787132
   19   17   18   18       -0.0003515372
   19   17   19   18       -0.0000176644
   19   17   19   19       -0.0003524950
   18   18   18   18        0.3760045820
   18   18   19   18       -0.0001215286
   18   18   19   19        0.3418577598
   19   18   19   18        0.0164585299
   19   18   19   19       -0.0001610391
   19   19   19   19        0.3719346097
 end_two_electron_integrals


 output epsi filename:./pspw_hf_H2.emovecs

 Total PSPW energy     :  -0.8412106179E+00


=== Spin Contamination ===

 <Sexact^2> =    0.0000000000000000     
 <S^2>      =    0.0000000000000000     



== Center of Charge ==

spin up     (    0.0000,    0.0000,    0.0647 )
spin down   (    0.0000,    0.0000,    0.0647 )
     total  (    0.0000,    0.0000,    0.0647 )
ionic       (    0.0000,    0.0000,    0.0000 )


== Molecular Dipole wrt Center of Mass ==

mu   =  (   -0.0000,   -0.0000,   -0.1294 ) au
|mu| =     0.1294 au,       0.3289 Debye

 output psi filename:./pspw_hf_H2.movecs

 Writing Crystallographic Information File:./H2.cif
   - cell not shifted (nwpw:cif_shift_cell .false.)


== Timing ==

cputime in seconds
  prologue    :   0.646699E+01
  main loop   :   0.529505E+03
  epilogue    :   0.157834E-01
  total       :   0.535988E+03
  cputime/step:   0.322869E+01       (     164 evalulations,      69 linesearches)


Time spent doing                        total          step       percent
  total time                 :   0.535999E+03  0.326829E+01       100.0 %
  i/o time                   :   0.400418E+00  0.244158E-02         0.1 %
  FFTs                       :   0.367186E+03  0.223894E+01        68.5 %
  dot products               :   0.294198E+02  0.179389E+00         5.5 %
  geodesic                   :   0.690854E-01  0.421252E-03         0.0 %
  ffm_dgemm                  :   0.105793E-01  0.645079E-04         0.0 %
  fmf_dgemm                  :   0.691126E-02  0.421418E-04         0.0 %
  mmm_dgemm                  :   0.282891E-02  0.172495E-04         0.0 %
  m_diagonalize              :   0.139521E-02  0.850735E-05         0.0 %
  local pseudopotentials     :   0.748485E+01  0.456393E-01         1.4 %
  non-local pseudopotentials :   0.277517E+02  0.169218E+00         5.2 %
  structure factors          :   0.752875E+00  0.459070E-02         0.1 %
  phase factors              :   0.594500E-05  0.362500E-07         0.0 %
  masking and packing        :   0.145291E+02  0.885920E-01         2.7 %
  queue fft                  :   0.117186E+02  0.714548E-01         2.2 %
  queue fft (serial)         :   0.380693E+01  0.232130E-01         0.7 %
  queue fft (message passing):   0.786463E+01  0.479550E-01         1.5 %
  HFX potential              :   0.440783E+01  0.268770E-01         0.8 %
  non-local psp FFM          :   0.271531E+02  0.165567E+00         5.1 %
  non-local psp FMF          :   0.128968E+00  0.786389E-03         0.0 %
  non-local psp FFM A        :   0.552620E-01  0.336964E-03         0.0 %
  non-local psp FFM B        :   0.169516E+00  0.103363E-02         0.0 %

== HFX Counters ==
  HFX Evalulations         =   164
  Lin ACE HFX Evalulations =     0


     >>>  JOB COMPLETED     AT Sun Apr  6 16:47:26 2025  <<<

 Task  times  cpu:      503.7s     wall:      536.0s


                                NWChem Input Module
                                -------------------


 Summary of allocated global arrays
-----------------------------------
  No active global arrays


MA_summarize_allocated_blocks: starting scan ...
MA_summarize_allocated_blocks: scan completed: 0 heap blocks, 0 stack blocks
MA usage statistics:

	allocation statistics:
					      heap	     stack
					      ----	     -----
	current number of blocks	         0	         0
	maximum number of blocks	       313	        36
	current total bytes		         0	         0
	maximum total bytes		  16802704	   5334808
	maximum total K-bytes		     16803	      5335
	maximum total M-bytes		        17	         6


                                     CITATION
                                     --------
                Please cite the following reference when publishing
                           results obtained with NWChem:

          E. Apra, E. J. Bylaska, W. A. de Jong, N. Govind, K. Kowalski,
       T. P. Straatsma, M. Valiev, H. J. J. van Dam, Y. Alexeev, J. Anchell,
       V. Anisimov, F. W. Aquino, R. Atta-Fynn, J. Autschbach, N. P. Bauman,
     J. C. Becca, D. E. Bernholdt, K. Bhaskaran-Nair, S. Bogatko, P. Borowski,
         J. Boschen, J. Brabec, A. Bruner, E. Cauet, Y. Chen, G. N. Chuev,
      C. J. Cramer, J. Daily, M. J. O. Deegan, T. H. Dunning Jr., M. Dupuis,
   K. G. Dyall, G. I. Fann, S. A. Fischer, A. Fonari, H. Fruchtl, L. Gagliardi,
      J. Garza, N. Gawande, S. Ghosh, K. Glaesemann, A. W. Gotz, J. Hammond,
       V. Helms, E. D. Hermes, K. Hirao, S. Hirata, M. Jacquelin, L. Jensen,
   B. G. Johnson, H. Jonsson, R. A. Kendall, M. Klemm, R. Kobayashi, V. Konkov,
      S. Krishnamoorthy, M. Krishnan, Z. Lin, R. D. Lins, R. J. Littlefield,
      A. J. Logsdail, K. Lopata, W. Ma, A. V. Marenich, J. Martin del Campo,
   D. Mejia-Rodriguez, J. E. Moore, J. M. Mullin, T. Nakajima, D. R. Nascimento,
    J. A. Nichols, P. J. Nichols, J. Nieplocha, A. Otero-de-la-Roza, B. Palmer,
    A. Panyala, T. Pirojsirikul, B. Peng, R. Peverati, J. Pittner, L. Pollack,
   R. M. Richard, P. Sadayappan, G. C. Schatz, W. A. Shelton, D. W. Silverstein,
   D. M. A. Smith, T. A. Soares, D. Song, M. Swart, H. L. Taylor, G. S. Thomas,
            V. Tipparaju, D. G. Truhlar, K. Tsemekhman, T. Van Voorhis,
      A. Vazquez-Mayagoitia, P. Verma, O. Villa, A. Vishnu, K. D. Vogiatzis,
        D. Wang, J. H. Weare, M. J. Williamson, T. L. Windus, K. Wolinski,
        A. T. Wong, Q. Wu, C. Yang, Q. Yu, M. Zacharias, Z. Zhang, Y. Zhao,
                                and R. J. Harrison
                        "NWChem: Past, present, and future
                         J. Chem. Phys. 152, 184102 (2020)
                               doi:10.1063/5.0004997

                                      AUTHORS
                                      -------
  E. Apra, E. J. Bylaska, N. Govind, K. Kowalski, M. Valiev, D. Mejia-Rodriguez,
       A. Kunitsa, N. P. Bauman, A. Panyala, W. A. de Jong, T. P. Straatsma,
   H. J. J. van Dam, D. Wang, T. L. Windus, J. Hammond, J. Autschbach, A. Woods,
    K. Bhaskaran-Nair, J. Brabec, K. Lopata, S. A. Fischer, S. Krishnamoorthy,
     M. Jacquelin, W. Ma, M. Klemm, O. Villa, Y. Chen, V. Anisimov, F. Aquino,
     S. Hirata, M. T. Hackler, E. Hermes, L. Jensen, J. E. Moore, J. C. Becca,
      V. Konjkov, T. Risthaus, M. Malagoli, A. Marenich, A. Otero-de-la-Roza,
        J. Mullin, P. Nichols, R. Peverati, J. Pittner, Y. Zhao, P.-D. Fan,
        A. Fonari, M. J. Williamson, R. J. Harrison, J. R. Rehr, M. Dupuis,
     D. Silverstein, D. M. A. Smith, J. Nieplocha, V. Tipparaju, M. Krishnan,
     B. E. Van Kuiken, A. Vazquez-Mayagoitia, M. Swart, Q. Wu, T. Van Voorhis,
     A. A. Auer, M. Nooijen, L. D. Crosby, E. Brown, G. Cisneros, G. I. Fann,
   H. Fruchtl, J. Garza, K. Hirao, R. A. Kendall, J. A. Nichols, K. Tsemekhman,
    K. Wolinski, J. Anchell, D. E. Bernholdt, P. Borowski, T. Clark, D. Clerc,
   H. Dachsel, M. J. O. Deegan, K. Dyall, D. Elwood, E. Glendening, M. Gutowski,
   A. C. Hess, J. Jaffe, B. G. Johnson, J. Ju, R. Kobayashi, R. Kutteh, Z. Lin,
   R. Littlefield, X. Long, B. Meng, T. Nakajima, S. Niu, L. Pollack, M. Rosing,
   K. Glaesemann, G. Sandrone, M. Stave, H. Taylor, G. Thomas, J. H. van Lenthe,
                               A. T. Wong, Z. Zhang.

 Total times  cpu:      503.7s     wall:      536.2s
