 argument  1 = ../data/PW_LiH_data/3x3_aperiodic/NWChem/18nocovo/H1Li1-3.5.nw



============================== echo of input deck ==============================
title "swnc: e theory=pspw4 xc=pbe formula=LiH charge=0 mult=1"
#machinejob:expert

echo

start pspw_hf_LiH

memory heap 1200 mb stack 2400 mb global 400 mb

charge 0

geometry
Li    0.00000    0.00000   -1.75000
H     0.00000    0.00000    1.75000
end

nwpw
  ### pseudopotential block begin ###
  ### pseudopotential block end   ###
  simulation_cell
     SC 28.345889835
     boundary_conditions aperiodic
  end

  cutoff 50.0
  mult 1
  xc hf
  lmbfgs
  tolerances 1.0e-9 1.0e-9

  virtual 18
end
set nwpw:cif_filename LiH

#set nwpw:CI_maxit_orb 15
#set nwpw:CI_maxit_linesearch 15

set nwpw:2qintegrals .true.
#set nwpw:3x3_virtual .true.

task pspw energy

================================================================================


                                         
                                         


             Northwest Computational Chemistry Package (NWChem) 7.2.3
             --------------------------------------------------------


                    Environmental Molecular Sciences Laboratory
                       Pacific Northwest National Laboratory
                                Richland, WA 99352

                              Copyright (c) 1994-2022
                       Pacific Northwest National Laboratory
                            Battelle Memorial Institute

             NWChem is an open-source computational chemistry package
                        distributed under the terms of the
                      Educational Community License (ECL) 2.0
             A copy of the license is included with this distribution
                              in the LICENSE.TXT file

                                  ACKNOWLEDGMENT
                                  --------------

            This software and its documentation were developed at the
            EMSL at Pacific Northwest National Laboratory, a multiprogram
            national laboratory, operated for the U.S. Department of Energy
            by Battelle under Contract Number DE-AC05-76RL01830. Support
            for this work was provided by the Department of Energy Office
            of Biological and Environmental Research, Office of Basic
            Energy Sciences, and the Office of Advanced Scientific Computing.


           Job information
           ---------------

    hostname        = mqs-al
    program         = nwchem
    date            = Mon May  5 04:11:56 2025

    compiled        = Thu_Oct_31_08:55:15_2024
    source          = /home/conda/feedstock_root/build_artifacts/nwchem_1730356057992/work
    nwchem branch   = 7.2.3
    nwchem revision = c400b04
    ga revision     = 5.8.0
    use scalapack   = T
    input           = ../data/PW_LiH_data/3x3_aperiodic/NWChem/18nocovo/H1Li1-3.5.nw
    prefix          = pspw_hf_LiH.
    data base       = ./pspw_hf_LiH.db
    status          = startup
    nproc           =       24
    time left       =     -1s



           Memory information
           ------------------

    heap     =  157286394 doubles =   1200.0 Mbytes
    stack    =  314572799 doubles =   2400.0 Mbytes
    global   =   52428800 doubles =    400.0 Mbytes (distinct from heap & stack)
    total    =  524287993 doubles =   4000.0 Mbytes
    verify   = yes
    hardfail = no 


           Directory information
           ---------------------

  0 permanent = .
  0 scratch   = .




                                NWChem Input Module
                                -------------------


              swnc: e theory=pspw4 xc=pbe formula=LiH charge=0 mult=1
              -------------------------------------------------------

 Scaling coordinates for geometry "geometry" by  1.889725989
 (inverse scale =  0.529177249)

  zeroes
  zeroes
  zeroes
  zeroes
  zeroes
  zeroes
  zeroes
  zeroes
  zeroes
  zeroes
  zeroes
  zeroes
  zeroes
  zeroes
  zeroes
  zeroes
  zeroes
  zeroes
  zeroes
  zeroes
  zeroes
  zeroes
  zeroes
  zeroes
  zeroes
  zeroes
  zeroes
  zeroes
  zeroes
  zeroes
  zeroes
  zeroes
  zeroes
  zeroes
  zeroes
  zeroes
  zeroes
  zeroes
  zeroes
  zeroes
  zeroes
  zeroes
  zeroes
  zeroes
  zeroes
  zeroes
  zeroes
  zeroes
 ORDER OF PRIMARY AXIS IS BEING SET TO 4
 C4V symmetry detected

          ------
          auto-z
          ------
     1 autoz failed with cvr_scaling = 1.2 changing to 1.3
     2 autoz failed with cvr_scaling = 1.3 changing to 1.4
     3 autoz failed with cvr_scaling = 1.4 changing to 1.5
     4 autoz failed with cvr_scaling = 1.5 changing to 1.6
     5 autoz failed with cvr_scaling = 1.6 changing to 1.7

 AUTOZ failed to generate good internal coordinates.
 Cartesian coordinates will be used in optimizations.



                             Geometry "geometry" -> ""
                             -------------------------

 Output coordinates in angstroms (scale by  1.889725989 to convert to a.u.)

  No.       Tag          Charge          X              Y              Z
 ---- ---------------- ---------- -------------- -------------- --------------
    1 Li                   3.0000     0.00000000     0.00000000    -0.87500000
    2 H                    1.0000     0.00000000     0.00000000     2.62500000

      Atomic Mass 
      ----------- 

      Li                 7.016000
      H                  1.007825


 Effective nuclear repulsion energy (a.u.)       0.4535804991

            Nuclear Dipole moment (a.u.) 
            ----------------------------
        X                 Y               Z
 ---------------- ---------------- ----------------
     0.0000000000     0.0000000000     0.0000000000

      Symmetry information
      --------------------

 Group name             C4v       
 Group number             18
 Group order               8
 No. of unique centers     2

      Symmetry unique atoms

     1    2


            XYZ format geometry
            -------------------
     2
 geometry
 Li                    0.00000000     0.00000000    -0.87500000
 H                     0.00000000     0.00000000     2.62500000

          ****************************************************
          *                                                  *
          *               NWPW PSPW Calculation              *
          *                                                  *
          * [ (Grassmann/Stiefel manifold implementation)  ] *
          *                                                  *
          *      [ NorthWest Chemistry implementation ]      *
          *                                                  *
          *            version #5.10   06/12/02              *
          *                                                  *
          *    This code was developed by Eric J. Bylaska,   *
          *    and was based upon algorithms and code        *
          *    developed by the group of Prof. John H. Weare *
          *                                                  *
          ****************************************************
     >>>  JOB STARTED       AT Mon May  5 04:11:56 2025  <<<
          ================ input data ========================

 input psi filename:./pspw_hf_LiH.movecs

 number of processors used:        24
 processor grid           :  24 x   1
 parallel mapping         :2d-hilbert
 parallel mapping         :  balanced
 number of threads        :         1
 parallel io              :       off

 options:
      boundary conditions  = aperiodic   (version4)
      electron spin        = restricted
      exchange-correlation = Hartree-Fock
      - HFX relaxed
      - HFX restricted orbitals :    1
      - HFX free-space coulomb solver


 elements involved in the cluster:
      1: Li  valence charge:  1.0000  lmax=  1
             comment    : Hamann pseudopotential
             pseudpotential type            :   0
             highest angular component      :   1
             local potential used           :   1
             number of non-local projections:   1
             aperiodic cutoff radius        :  1.000
             semicore corrections included  :  1.000 (radius)  0.769 (charge)
             cutoff =   1.869   1.551

      2: H   valence charge:  1.0000  lmax=  1
             comment    : Parameterized (Chem.Phys.Lett., vol 322, page 447) Hamman psp
             pseudpotential type            :   0
             highest angular component      :   1
             local potential used           :   1
             number of non-local projections:   1
             aperiodic cutoff radius        :  1.000
             cutoff =   0.800   0.800


 total charge:   0.000

 atomic composition:
     Li  :    1     H   :    1

 number of electrons: spin up=     1 (   1 per task)  down=     1 (   1 per task) (Fourier space)
 number of orbitals : spin up=     1 (   1 per task)  down=     1 (   1 per task) (Fourier space)

 supercell:
      cell_name:  cell_default                                      
      lattice:    a1=<  28.346   0.000   0.000 >
                  a2=<   0.000  28.346   0.000 >
                  a3=<   0.000   0.000  28.346 >
      reciprocal: b1=<   0.222   0.000   0.000 >
                  b2=<   0.000   0.222   0.000 >
                  b3=<   0.000   0.000   0.222 >
      lattice:    a=      28.346 b=     28.346 c=      28.346
                  alpha=  90.000 beta=  90.000 gamma=  90.000
                  omega=     22775.6

      density cutoff=100.000  fft=140x140x140(   544264 waves    22677 per task)
      wavefnc cutoff= 50.000  fft=140x140x140(   192294 waves     8012 per task)

 technical parameters:
      time step=      5.80     fictitious mass=  400000.0
      tolerance=0.100E-08 (energy)   0.100E-08 (density)
      maximum iterations =      1000 (   10 inner    100 outer )





== Energy Calculation ==


          ============ Grassmann lmbfgs iteration ============
     >>>  ITERATION STARTED AT Mon May  5 04:13:25 2025  <<<
    iter.           Energy         DeltaE       DeltaRho 
    ------------------------------------------------------
      10   -0.6493163449E+00   -0.18915E-02    0.14186E-01
     -  10 steepest descent iterations performed
      20   -0.6550737659E+00   -0.16661E-03    0.12863E-03
      30   -0.6555018930E+00   -0.15745E-04    0.90588E-05
      40   -0.6555587724E+00   -0.17737E-05    0.58826E-06
      50   -0.6555665763E+00   -0.24592E-06    0.37992E-07
      60   -0.6555680222E+00   -0.77558E-07    0.89288E-08
      70   -0.6555684098E+00   -0.19495E-07    0.21095E-08
      80   -0.6555685009E+00   -0.50901E-08    0.51569E-09
      90   -0.6555685202E+00   -0.85513E-09    0.14296E-09
  *** tolerance ok. iteration terminated
     >>>  ITERATION ENDED   AT Mon May  5 04:15:15 2025  <<<


==  Summary Of Results  ==

 number of electrons: spin up=    1.00000  down=    1.00000 (real space)

 total     energy    :  -0.6555685202E+00 (   -0.32778E+00/ion)
 total orbital energy:  -0.4329806522E+00 (   -0.43298E+00/electron)
 hartree   energy    :   0.7475627354E+00 (    0.74756E+00/electron)
 exc-corr  energy    :   0.0000000000E+00 (    0.00000E+00/electron)
 HF exchange energy  :  -0.3737813677E+00 (   -0.37378E+00/electron)
 ion-ion   energy    :   0.1511934997E+00 (    0.75597E-01/ion)

 kinetic (planewave) :   0.4564199379E+00 (    0.45642E+00/electron)
 V_local (planewave) :  -0.1545186092E+01 (   -0.15452E+01/electron)
 V_nl    (planewave) :  -0.9177723321E-01 (   -0.91777E-01/electron)
 V_Coul  (planewave) :   0.1495125471E+01 (    0.14951E+01/electron)
 V_xc.   (planewave) :   0.0000000000E+00 (    0.00000E+00/electron)
 K.S. HFX energy     :  -0.7475627354E+00 (   -0.74756E+00/electron)
 Virial Coefficient  :  -0.3107617414E+00

 orbital energies:
    -0.2164903E+00 (  -5.891eV)


== Virtual Orbital Calculation ==


 input epsi filename:./pspw_hf_LiH.emovecs
     orbital   1 current e=-0.444E-01 (error=0.956E-09) iterations 110(  62 preconditioned, Ep,Sp= 20.0  200.0)
     orbital   2 current e= 0.403E-03 (error=0.350E-08) iterations 121(  68 preconditioned, Ep,Sp= 20.0  200.0)
     orbital   2 current e= 0.403E-03 (error=0.947E-09) iterations  19(   1 preconditioned, Ep,Sp= 20.0  200.0)
     orbital   3 current e= 0.478E-02 (error=0.991E-09) iterations 106(  42 preconditioned, Ep,Sp= 20.0  200.0)
     orbital   4 current e= 0.478E-02 (error=0.965E-09) iterations 106(  42 preconditioned, Ep,Sp= 20.0  200.0)
     orbital   5 current e= 0.162E-01 (error=0.180E-07) iterations 121(  86 preconditioned, Ep,Sp= 20.0  200.0)
     orbital   5 current e= 0.162E-01 (error=0.968E-09) iterations  60(   1 preconditioned, Ep,Sp= 20.0  200.0)
     orbital   6 current e= 0.189E-01 (error=0.980E-09) iterations  52(  13 preconditioned, Ep,Sp= 20.0  200.0)
     orbital   7 current e= 0.302E-01 (error=0.256E-07) iterations 121(  77 preconditioned, Ep,Sp= 20.0  200.0)
     orbital   7 current e= 0.302E-01 (error=0.945E-09) iterations 116(   1 preconditioned, Ep,Sp= 20.0  200.0)
     orbital   8 current e= 0.319E-01 (error=0.231E-08) iterations 121(  58 preconditioned, Ep,Sp= 20.0  200.0)
     orbital   8 current e= 0.319E-01 (error=0.955E-09) iterations  38(   1 preconditioned, Ep,Sp= 20.0  200.0)
     orbital   9 current e= 0.319E-01 (error=0.295E-08) iterations 121(  62 preconditioned, Ep,Sp= 20.0  200.0)
     orbital   9 current e= 0.319E-01 (error=0.975E-09) iterations  31(   1 preconditioned, Ep,Sp= 20.0  200.0)
     orbital  10 current e= 0.328E-01 (error=0.148E-07) iterations 121(  47 preconditioned, Ep,Sp= 20.0  200.0)
     orbital  10 current e= 0.328E-01 (error=0.960E-09) iterations  40(   1 preconditioned, Ep,Sp= 20.0  200.0)
     orbital  11 current e= 0.398E-01 (error=0.952E-09) iterations  86(  36 preconditioned, Ep,Sp= 20.0  200.0)
     orbital  12 current e= 0.397E-01 (error=0.110E-07) iterations 121(  78 preconditioned, Ep,Sp= 20.0  200.0)
     orbital  12 current e= 0.397E-01 (error=0.955E-09) iterations  31(   1 preconditioned, Ep,Sp= 20.0  200.0)
     orbital  13 current e= 0.427E-01 (error=0.895E-09) iterations 119(  52 preconditioned, Ep,Sp= 20.0  200.0)
     orbital  14 current e= 0.427E-01 (error=0.130E-08) iterations 121(  53 preconditioned, Ep,Sp= 20.0  200.0)
     orbital  14 current e= 0.427E-01 (error=0.627E-09) iterations   2(   1 preconditioned, Ep,Sp= 20.0  200.0)
     orbital  15 current e= 0.461E-01 (error=0.960E-09) iterations  67(  20 preconditioned, Ep,Sp= 20.0  200.0)
     orbital  16 current e= 0.517E-01 (error=0.805E-09) iterations  73(  26 preconditioned, Ep,Sp= 20.0  200.0)
     orbital  17 current e= 0.546E-01 (error=0.251E-08) iterations 121(  34 preconditioned, Ep,Sp= 20.0  200.0)
     orbital  17 current e= 0.546E-01 (error=0.964E-09) iterations  10(   1 preconditioned, Ep,Sp= 20.0  200.0)
     orbital  18 current e= 0.618E-01 (error=0.427E-06) iterations 121( 120 preconditioned, Ep,Sp= 20.0  200.0)
     orbital  18 current e= 0.618E-01 (error=0.467E-07) iterations 121(  56 preconditioned, Ep,Sp= 20.0  200.0)
     orbital  18 current e= 0.620E-01 (error=0.346E-05) iterations 121( 120 preconditioned, Ep,Sp= 20.0  200.0)
     orbital  18 current e= 0.618E-01 (error=0.294E-06) iterations 121( 120 preconditioned, Ep,Sp= 20.0  200.0)
     orbital  18 current e= 0.618E-01 (error=0.116E-08) iterations 121(   1 preconditioned, Ep,Sp= 20.0  200.0)
     orbital  18 current e= 0.618E-01 (error=0.817E-09) iterations   2(   1 preconditioned, Ep,Sp= 20.0  200.0)

 virtual orbital energies:
     0.6177427E-01 (   1.681eV)
     0.5464440E-01 (   1.487eV)
     0.5166432E-01 (   1.406eV)
     0.4608818E-01 (   1.254eV)
     0.4266907E-01 (   1.161eV)
     0.4266905E-01 (   1.161eV)
     0.3979062E-01 (   1.083eV)
     0.3967296E-01 (   1.080eV)
     0.3282314E-01 (   0.893eV)
     0.3192898E-01 (   0.869eV)
     0.3192898E-01 (   0.869eV)
     0.3020626E-01 (   0.822eV)
     0.1885551E-01 (   0.513eV)
     0.1621257E-01 (   0.441eV)
     0.4784294E-02 (   0.130eV)
     0.4784294E-02 (   0.130eV)
     0.4034452E-03 (   0.011eV)
    -0.4436782E-01 (  -1.207eV)


 == Generating One-Electron and Two-Electron Integrals ==

 begin_one_electron_integrals
    1    1        -0.5902716938
    2    1         0.0592709388
    3    1         0.0087843334
    4    1         0.0000002551
    5    1        -0.0000000509
    6    1         0.0244008921
    7    1         0.0000000000
    8    1        -0.0109304659
    9    1        -0.0000000683
   10    1         0.0000000182
   11    1         0.0021492330
   12    1         0.0234532314
   13    1        -0.0000000019
   14    1        -0.0000002701
   15    1         0.0000000521
   16    1         0.0000000002
   17    1         0.0000000004
   18    1         0.0000001246
   19    1        -0.0293252519
    2    2        -0.2922628438
    3    2        -0.0309291272
    4    2        -0.0000006718
    5    2         0.0000001341
    6    2        -0.0336422644
    7    2        -0.0000000000
    8    2         0.0167877157
    9    2        -0.0000007309
   10    2         0.0000001694
   11    2         0.0142134260
   12    2        -0.0238172357
   13    2         0.0000000020
   14    2         0.0000001882
   15    2        -0.0000000357
   16    2        -0.0000000007
   17    2        -0.0000000001
   18    2        -0.0000000664
   19    2         0.0250414379
    3    3        -0.1360027867
    4    3         0.0000011071
    5    3        -0.0000002210
    6    3        -0.0085573723
    7    3        -0.0000000000
    8    3         0.0081839256
    9    3        -0.0000022328
   10    3         0.0000004934
   11    3         0.0280534643
   12    3        -0.0046502149
   13    3         0.0000000004
   14    3         0.0000003644
   15    3        -0.0000000722
   16    3        -0.0000000006
   17    3         0.0000000000
   18    3        -0.0000002098
   19    3         0.0053388506
    4    4        -0.1930426741
    5    4        -0.0000000001
    6    4        -0.0000000644
    7    4         0.0000000445
    8    4         0.0000001367
    9    4         0.0453898527
   10    4        -0.0000009112
   11    4         0.0000028917
   12    4        -0.0000002941
   13    4        -0.0000000610
   14    4        -0.0225341470
   15    4        -0.0000200114
   16    4        -0.0000000807
   17    4        -0.0000000051
   18    4         0.0122371884
   19    4         0.0000000072
    5    5        -0.1930350577
    6    5         0.0000000127
    7    5         0.0000002286
    8    5        -0.0000000293
    9    5         0.0000009164
   10    5         0.0453872442
   11    5        -0.0000006558
   12    5         0.0000000560
   13    5         0.0000000121
   14    5         0.0000200198
   15    5        -0.0225634333
   16    5        -0.0000004217
   17    5         0.0000000971
   18    5        -0.0000000127
   19    5         0.0000014069
    6    6        -0.1492016865
    7    6        -0.0000000001
    8    6         0.0035207511
    9    6        -0.0000002588
   10    6         0.0000000506
   11    6         0.0003510020
   12    6        -0.0349484613
   13    6         0.0000000029
   14    6         0.0000004224
   15    6        -0.0000000816
   16    6        -0.0000000003
   17    6        -0.0000000001
   18    6        -0.0000001677
   19    6         0.0193778561
    7    7        -0.1166747733
    8    7         0.0000000000
    9    7        -0.0000000346
   10    7        -0.0000001730
   11    7         0.0000000000
   12    7        -0.0000000001
   13    7        -0.0000000000
   14    7        -0.0000000441
   15    7        -0.0000002175
   16    7         0.0212596774
   17    7        -0.0049160960
   18    7        -0.0000000498
   19    7         0.0000000000
    8    8        -0.1084855920
    9    8        -0.0000002420
   10    8         0.0000000570
   11    8         0.0046674917
   12    8         0.0053401959
   13    8        -0.0000000004
   14    8        -0.0000000594
   15    8         0.0000000107
   16    8         0.0000000005
   17    8         0.0000000001
   18    8        -0.0000000185
   19    8        -0.0209514031
    9    9        -0.1216285228
   10    9        -0.0000000026
   11    9        -0.0000009643
   12    9        -0.0000001920
   13    9         0.0000000155
   14    9         0.0112910046
   15    9         0.0000102615
   16    9         0.0000000730
   17    9        -0.0000000155
   18    9         0.0020553051
   19    9        -0.0000001759
   10   10        -0.1216353514
   11   10         0.0000002227
   12   10         0.0000000444
   13   10        -0.0000000033
   14   10        -0.0000102599
   15   10         0.0113019321
   16   10         0.0000003630
   17   10        -0.0000000552
   18   10        -0.0000000461
   19   10         0.0000002770
   11   11        -0.1039829681
   12   11         0.0024642275
   13   11        -0.0000000002
   14   11         0.0000005538
   15   11        -0.0000001312
   16   11         0.0000000010
   17   11        -0.0000000002
   18   11         0.0000002074
   19   11         0.0084914994
   12   12        -0.1098957819
   13   12         0.0000000000
   14   12         0.0000001098
   15   12        -0.0000000208
   16   12        -0.0000000001
   17   12        -0.0000000003
   18   12         0.0000000080
   19   12         0.0274600998
   13   13        -0.1093784722
   14   13        -0.0000000082
   15   13         0.0000000011
   16   13         0.0000000000
   17   13         0.0000000000
   18   13         0.0000000223
   19   13        -0.0000000023
   14   14        -0.1077490442
   15   14         0.0000000154
   16   14        -0.0000000326
   17   14        -0.0000000522
   18   14         0.0141432874
   19   14        -0.0000003623
   15   15        -0.1077869507
   16   15        -0.0000001837
   17   15        -0.0000001186
   18   15         0.0000125408
   19   15         0.0000016917
   16   16        -0.0949587619
   17   16         0.0056103723
   18   16         0.0000000394
   19   16         0.0000000002
   17   17        -0.0993532467
   18   17         0.0000000111
   19   17        -0.0000000001
   18   18        -0.1029292479
   19   18         0.0000001686
   19   19        -0.0965997188
 end_one_electron_integrals

 begin_two_electron_integrals
    1    1    1    1        0.3737813677
    1    1    2    1       -0.0592730702
    1    1    3    1       -0.0087913741
    1    1    4    1       -0.0000002552
    1    1    5    1        0.0000000510
    1    1    6    1       -0.0244066389
    1    1    7    1       -0.0000000000
    1    1    8    1        0.0109268379
    1    1    9    1        0.0000000682
    1    1   10    1       -0.0000000181
    1    1   11    1       -0.0021470225
    1    1   12    1       -0.0234521407
    1    1   13    1        0.0000000019
    1    1   14    1        0.0000002701
    1    1   15    1       -0.0000000521
    1    1   16    1       -0.0000000002
    1    1   17    1       -0.0000000004
    1    1   18    1       -0.0000001245
    1    1   19    1        0.0293245614
    1    1    2    2        0.1345391374
    1    1    3    2        0.0179390934
    1    1    4    2        0.0000004022
    1    1    5    2       -0.0000000803
    1    1    6    2        0.0214548248
    1    1    7    2        0.0000000000
    1    1    8    2       -0.0103470929
    1    1    9    2        0.0000004139
    1    1   10    2       -0.0000000957
    1    1   11    2       -0.0080008188
    1    1   12    2        0.0161460228
    1    1   13    2       -0.0000000013
    1    1   14    2       -0.0000001346
    1    1   15    2        0.0000000256
    1    1   16    2        0.0000000004
    1    1   17    2        0.0000000001
    1    1   18    2        0.0000000506
    1    1   19    2       -0.0172973155
    1    1    3    3        0.0689105572
    1    1    4    3       -0.0000006000
    1    1    5    3        0.0000001197
    1    1    6    3        0.0054358172
    1    1    7    3        0.0000000000
    1    1    8    3       -0.0045623147
    1    1    9    3        0.0000011769
    1    1   10    3       -0.0000002594
    1    1   11    3       -0.0144224231
    1    1   12    3        0.0033732023
    1    1   13    3       -0.0000000003
    1    1   14    3       -0.0000002191
    1    1   15    3        0.0000000434
    1    1   16    3        0.0000000003
    1    1   17    3        0.0000000000
    1    1   18    3        0.0000001338
    1    1   19    3       -0.0037626383
    1    1    4    4        0.1000822571
    1    1    5    4        0.0000000000
    1    1    6    4        0.0000000935
    1    1    7    4       -0.0000000106
    1    1    8    4       -0.0000000764
    1    1    9    4       -0.0235539092
    1    1   10    4        0.0000004729
    1    1   11    4       -0.0000014604
    1    1   12    4        0.0000001888
    1    1   13    4        0.0000000329
    1    1   14    4        0.0117523932
    1    1   15    4        0.0000104367
    1    1   16    4        0.0000000309
    1    1   17    4        0.0000000098
    1    1   18    4       -0.0064522859
    1    1   19    4       -0.0000000248
    1    1    5    5        0.1000782743
    1    1    6    5       -0.0000000186
    1    1    7    5       -0.0000000563
    1    1    8    5        0.0000000163
    1    1    9    5       -0.0000004756
    1    1   10    5       -0.0235519658
    1    1   11    5        0.0000003323
    1    1   12    5       -0.0000000363
    1    1   13    5       -0.0000000065
    1    1   14    5       -0.0000104409
    1    1   15    5        0.0117676215
    1    1   16    5        0.0000001642
    1    1   17    5       -0.0000000156
    1    1   18    5        0.0000000067
    1    1   19    5       -0.0000007373
    1    1    6    6        0.0850427031
    1    1    7    6        0.0000000000
    1    1    8    6       -0.0026325699
    1    1    9    6        0.0000001378
    1    1   10    6       -0.0000000277
    1    1   11    6       -0.0006589320
    1    1   12    6        0.0196557451
    1    1   13    6       -0.0000000016
    1    1   14    6       -0.0000002164
    1    1   15    6        0.0000000417
    1    1   16    6        0.0000000002
    1    1   17    6        0.0000000001
    1    1   18    6        0.0000000768
    1    1   19    6       -0.0120405668
    1    1    7    7        0.0677900284
    1    1    8    7       -0.0000000000
    1    1    9    7        0.0000000107
    1    1   10    7        0.0000000543
    1    1   11    7       -0.0000000000
    1    1   12    7        0.0000000001
    1    1   13    7        0.0000000000
    1    1   14    7        0.0000000272
    1    1   15    7        0.0000001349
    1    1   16    7       -0.0106576052
    1    1   17    7        0.0024603368
    1    1   18    7        0.0000000196
    1    1   19    7       -0.0000000000
    1    1    8    8        0.0697349685
    1    1    9    8        0.0000001095
    1    1   10    8       -0.0000000260
    1    1   11    8       -0.0021733869
    1    1   12    8       -0.0034879136
    1    1   13    8        0.0000000003
    1    1   14    8        0.0000000368
    1    1   15    8       -0.0000000067
    1    1   16    8       -0.0000000002
    1    1   17    8       -0.0000000001
    1    1   18    8        0.0000000100
    1    1   19    8        0.0114221027
    1    1    9    9        0.0774323076
    1    1   10    9        0.0000000014
    1    1   11    9        0.0000004722
    1    1   12    9        0.0000001100
    1    1   13    9       -0.0000000051
    1    1   14    9       -0.0060007968
    1    1   15    9       -0.0000054540
    1    1   16    9       -0.0000000312
    1    1   17    9        0.0000000036
    1    1   18    9       -0.0007937633
    1    1   19    9        0.0000000624
    1    1   10   10        0.0774356492
    1    1   11   10       -0.0000001092
    1    1   12   10       -0.0000000254
    1    1   13   10        0.0000000011
    1    1   14   10        0.0000054508
    1    1   15   10       -0.0060055204
    1    1   16   10       -0.0000001557
    1    1   17   10        0.0000000094
    1    1   18   10        0.0000000181
    1    1   19   10       -0.0000001061
    1    1   11   11        0.0687574877
    1    1   12   11       -0.0016385200
    1    1   13   11        0.0000000001
    1    1   14   11       -0.0000002730
    1    1   15   11        0.0000000655
    1    1   16   11       -0.0000000005
    1    1   17   11        0.0000000001
    1    1   18   11       -0.0000001143
    1    1   19   11       -0.0039123328
    1    1   12   12        0.0768535545
    1    1   13   12       -0.0000000002
    1    1   14   12       -0.0000000635
    1    1   15   12        0.0000000121
    1    1   16   12        0.0000000001
    1    1   17   12        0.0000000002
    1    1   18   12       -0.0000000022
    1    1   19   12       -0.0159677212
    1    1   13   13        0.0746488525
    1    1   14   13        0.0000000092
    1    1   15   13       -0.0000000016
    1    1   16   13       -0.0000000000
    1    1   17   13       -0.0000000000
    1    1   18   13       -0.0000000117
    1    1   19   13        0.0000000013
    1    1   14   14        0.0754591650
    1    1   15   14       -0.0000000081
    1    1   16   14        0.0000000115
    1    1   17   14        0.0000000304
    1    1   18   14       -0.0072711217
    1    1   19   14        0.0000002065
    1    1   15   15        0.0754788627
    1    1   16   15        0.0000000682
    1    1   17   15        0.0000000790
    1    1   18   15       -0.0000064473
    1    1   19   15       -0.0000008745
    1    1   16   16        0.0705599415
    1    1   17   16       -0.0028139430
    1    1   18   16       -0.0000000149
    1    1   19   16       -0.0000000002
    1    1   17   17        0.0755228502
    1    1   18   17       -0.0000000111
    1    1   19   17       -0.0000000000
    1    1   18   18        0.0790082761
    1    1   19   18       -0.0000000942
    1    1   19   19        0.0817466762
    2    1    2    1        0.0211832492
    2    1    3    1        0.0049564178
    2    1    4    1        0.0000001326
    2    1    5    1       -0.0000000265
    2    1    6    1        0.0092573034
    2    1    7    1        0.0000000000
    2    1    8    1       -0.0039070737
    2    1    9    1        0.0000000969
    2    1   10    1       -0.0000000221
    2    1   11    1       -0.0017884362
    2    1   12    1        0.0084812007
    2    1   13    1       -0.0000000007
    2    1   14    1       -0.0000000811
    2    1   15    1        0.0000000155
    2    1   16    1        0.0000000002
    2    1   17    1        0.0000000001
    2    1   18    1        0.0000000347
    2    1   19    1       -0.0095602521
    2    1    2    2        0.0161544605
    2    1    3    2        0.0031220559
    2    1    4    2        0.0000000770
    2    1    5    2       -0.0000000154
    2    1    6    2       -0.0027457257
    2    1    7    2       -0.0000000000
    2    1    8    2       -0.0015036697
    2    1    9    2        0.0000000612
    2    1   10    2       -0.0000000154
    2    1   11    2       -0.0017130282
    2    1   12    2       -0.0039306135
    2    1   13    2        0.0000000003
    2    1   14    2        0.0000000522
    2    1   15    2       -0.0000000101
    2    1   16    2        0.0000000000
    2    1   17    2       -0.0000000000
    2    1   18    2       -0.0000000271
    2    1   19    2        0.0026613959
    2    1    3    3        0.0038465499
    2    1    4    3       -0.0000001578
    2    1    5    3        0.0000000315
    2    1    6    3        0.0012300603
    2    1    7    3        0.0000000000
    2    1    8    3       -0.0032943790
    2    1    9    3        0.0000000700
    2    1   10    3       -0.0000000149
    2    1   11    3       -0.0004783089
    2    1   12    3       -0.0002033078
    2    1   13    3        0.0000000000
    2    1   14    3        0.0000000216
    2    1   15    3       -0.0000000043
    2    1   16    3        0.0000000000
    2    1   17    3        0.0000000000
    2    1   18    3       -0.0000000377
    2    1   19    3       -0.0010736105
    2    1    4    4        0.0112859362
    2    1    5    4        0.0000000000
    2    1    6    4       -0.0000000026
    2    1    7    4       -0.0000000036
    2    1    8    4       -0.0000000260
    2    1    9    4       -0.0047951316
    2    1   10    4        0.0000000968
    2    1   11    4       -0.0000002894
    2    1   12    4       -0.0000000095
    2    1   13    4        0.0000000439
    2    1   14    4       -0.0009636568
    2    1   15    4       -0.0000008551
    2    1   16    4        0.0000000065
    2    1   17    4       -0.0000000173
    2    1   18    4        0.0017856067
    2    1   19    4        0.0000000086
    2    1    5    5        0.0112858230
    2    1    6    5        0.0000000005
    2    1    7    5       -0.0000000179
    2    1    8    5        0.0000000053
    2    1    9    5       -0.0000000965
    2    1   10    5       -0.0047954366
    2    1   11    5        0.0000000657
    2    1   12    5        0.0000000023
    2    1   13    5       -0.0000000089
    2    1   14    5        0.0000008531
    2    1   15    5       -0.0009632613
    2    1   16    5        0.0000000301
    2    1   17    5       -0.0000000681
    2    1   18    5       -0.0000000019
    2    1   19    5        0.0000002019
    2    1    6    6        0.0037113412
    2    1    7    6       -0.0000000000
    2    1    8    6        0.0003844185
    2    1    9    6        0.0000001149
    2    1   10    6       -0.0000000262
    2    1   11    6       -0.0019760729
    2    1   12    6        0.0017734808
    2    1   13    6       -0.0000000001
    2    1   14    6        0.0000000484
    2    1   15    6       -0.0000000098
    2    1   16    6        0.0000000000
    2    1   17    6       -0.0000000000
    2    1   18    6       -0.0000000122
    2    1   19    6       -0.0004556948
    2    1    7    7        0.0032576598
    2    1    8    7        0.0000000000
    2    1    9    7        0.0000000046
    2    1   10    7        0.0000000236
    2    1   11    7       -0.0000000000
    2    1   12    7       -0.0000000000
    2    1   13    7       -0.0000000000
    2    1   14    7       -0.0000000040
    2    1   15    7       -0.0000000202
    2    1   16    7        0.0002027736
    2    1   17    7       -0.0029127283
    2    1   18    7       -0.0000000136
    2    1   19    7       -0.0000000000
    2    1    8    8        0.0004187620
    2    1    9    8       -0.0000001030
    2    1   10    8        0.0000000236
    2    1   11    8        0.0018875446
    2    1   12    8        0.0014984016
    2    1   13    8       -0.0000000001
    2    1   14    8       -0.0000000303
    2    1   15    8        0.0000000059
    2    1   16    8       -0.0000000000
    2    1   17    8       -0.0000000000
    2    1   18    8        0.0000000478
    2    1   19    8        0.0002631819
    2    1    9    9        0.0054119167
    2    1   10    9        0.0000000003
    2    1   11    9        0.0000001786
    2    1   12    9        0.0000000528
    2    1   13    9        0.0000000382
    2    1   14    9       -0.0012366376
    2    1   15    9       -0.0000011239
    2    1   16    9       -0.0000000035
    2    1   17    9       -0.0000000032
    2    1   18    9        0.0018689394
    2    1   19    9       -0.0000001321
    2    1   10   10        0.0054117181
    2    1   11   10       -0.0000000420
    2    1   12   10       -0.0000000125
    2    1   13   10       -0.0000000077
    2    1   14   10        0.0000011235
    2    1   15   10       -0.0012408443
    2    1   16   10       -0.0000000201
    2    1   17   10        0.0000000027
    2    1   18   10       -0.0000000397
    2    1   19   10        0.0000002449
    2    1   11   11        0.0017878031
    2    1   12   11       -0.0011527437
    2    1   13   11        0.0000000001
    2    1   14   11       -0.0000000303
    2    1   15   11        0.0000000081
    2    1   16   11       -0.0000000000
    2    1   17   11       -0.0000000000
    2    1   18   11        0.0000000745
    2    1   19   11        0.0020306537
    2    1   12   12        0.0024807885
    2    1   13   12        0.0000000002
    2    1   14   12       -0.0000000145
    2    1   15   12        0.0000000031
    2    1   16   12        0.0000000000
    2    1   17   12       -0.0000000000
    2    1   18   12        0.0000000044
    2    1   19   12        0.0017174239
    2    1   13   13        0.0050477593
    2    1   14   13        0.0000000199
    2    1   15   13       -0.0000000040
    2    1   16   13        0.0000000000
    2    1   17   13       -0.0000000000
    2    1   18   13        0.0000000190
    2    1   19   13       -0.0000000001
    2    1   14   14        0.0031526139
    2    1   15   14       -0.0000000004
    2    1   16   14        0.0000000007
    2    1   17   14       -0.0000000024
    2    1   18   14        0.0008630289
    2    1   19   14       -0.0000000206
    2    1   15   15        0.0031521208
    2    1   16   15        0.0000000024
    2    1   17   15       -0.0000000035
    2    1   18   15        0.0000007654
    2    1   19   15        0.0000001029
    2    1   16   16        0.0015766208
    2    1   17   16        0.0002152226
    2    1   18   16       -0.0000000018
    2    1   19   16       -0.0000000000
    2    1   17   17       -0.0013150689
    2    1   18   17       -0.0000000025
    2    1   19   17       -0.0000000000
    2    1   18   18       -0.0017888440
    2    1   19   18        0.0000000105
    2    1   19   19       -0.0014606488
    3    1    3    1        0.0014148826
    3    1    4    1       -0.0000000906
    3    1    5    1        0.0000000181
    3    1    6    1        0.0023184471
    3    1    7    1        0.0000000000
    3    1    8    1       -0.0009285310
    3    1    9    1        0.0000001206
    3    1   10    1       -0.0000000254
    3    1   11    1       -0.0007880299
    3    1   12    1        0.0020896194
    3    1   13    1       -0.0000000002
    3    1   14    1       -0.0000000737
    3    1   15    1        0.0000000145
    3    1   16    1        0.0000000000
    3    1   17    1        0.0000000000
    3    1   18    1        0.0000000578
    3    1   19    1       -0.0021932796
    3    1    2    2        0.0069391221
    3    1    3    2        0.0016815879
    3    1    4    2       -0.0000003672
    3    1    5    2        0.0000000734
    3    1    6    2        0.0000446704
    3    1    7    2       -0.0000000000
    3    1    8    2       -0.0009218422
    3    1    9    2        0.0000001816
    3    1   10    2       -0.0000000380
    3    1   11    2       -0.0009754312
    3    1   12    2       -0.0005423185
    3    1   13    2        0.0000000000
    3    1   14    2        0.0000000093
    3    1   15    2       -0.0000000018
    3    1   16    2        0.0000000000
    3    1   17    2       -0.0000000000
    3    1   18    2       -0.0000000305
    3    1   19    2        0.0000936518
    3    1    3    3        0.0013201363
    3    1    4    3        0.0000002501
    3    1    5    3       -0.0000000501
    3    1    6    3        0.0005198853
    3    1    7    3        0.0000000000
    3    1    8    3       -0.0010463699
    3    1    9    3        0.0000004117
    3    1   10    3       -0.0000000831
    3    1   11    3       -0.0004010824
    3    1   12    3        0.0001231240
    3    1   13    3        0.0000000001
    3    1   14    3       -0.0000000069
    3    1   15    3        0.0000000014
    3    1   16    3        0.0000000000
    3    1   17    3        0.0000000000
    3    1   18    3       -0.0000000501
    3    1   19    3       -0.0005070696
    3    1    4    4        0.0042098820
    3    1    5    4        0.0000000000
    3    1    6    4       -0.0000001652
    3    1    7    4       -0.0000000647
    3    1    8    4       -0.0000001695
    3    1    9    4       -0.0022108158
    3    1   10    4        0.0000000445
    3    1   11    4       -0.0000002193
    3    1   12    4       -0.0000001188
    3    1   13    4       -0.0000004096
    3    1   14    4        0.0001828584
    3    1   15    4        0.0000001626
    3    1   16    4        0.0000000282
    3    1   17    4        0.0000000144
    3    1   18    4        0.0003167780
    3    1   19    4       -0.0000000244
    3    1    5    5        0.0042097056
    3    1    6    5        0.0000000331
    3    1    7    5       -0.0000003233
    3    1    8    5        0.0000000340
    3    1    9    5       -0.0000000445
    3    1   10    5       -0.0022108224
    3    1   11    5        0.0000000475
    3    1   12    5        0.0000000239
    3    1   13    5        0.0000000820
    3    1   14    5       -0.0000001633
    3    1   15    5        0.0001835562
    3    1   16    5        0.0000001404
    3    1   17    5        0.0000000750
    3    1   18    5       -0.0000000003
    3    1   19    5        0.0000000407
    3    1    6    6        0.0014681763
    3    1    7    6        0.0000000000
    3    1    8    6       -0.0000371689
    3    1    9    6        0.0000000774
    3    1   10    6       -0.0000000165
    3    1   11    6       -0.0006287388
    3    1   12    6        0.0009154324
    3    1   13    6       -0.0000000001
    3    1   14    6       -0.0000004536
    3    1   15    6        0.0000000903
    3    1   16    6        0.0000000000
    3    1   17    6        0.0000000000
    3    1   18    6        0.0000000449
    3    1   19    6       -0.0005551575
    3    1    7    7        0.0009231980
    3    1    8    7        0.0000000000
    3    1    9    7        0.0000000165
    3    1   10    7        0.0000000827
    3    1   11    7       -0.0000000000
    3    1   12    7       -0.0000000000
    3    1   13    7       -0.0000000000
    3    1   14    7        0.0000000332
    3    1   15    7        0.0000001664
    3    1   16    7       -0.0000928811
    3    1   17    7       -0.0007419027
    3    1   18    7        0.0000000248
    3    1   19    7        0.0000000000
    3    1    8    8        0.0003025434
    3    1    9    8        0.0000000472
    3    1   10    8       -0.0000000085
    3    1   11    8        0.0006061701
    3    1   12    8        0.0003096467
    3    1   13    8       -0.0000000000
    3    1   14    8        0.0000000548
    3    1   15    8       -0.0000000110
    3    1   16    8       -0.0000000000
    3    1   17    8        0.0000000000
    3    1   18    8       -0.0000003846
    3    1   19    8        0.0002175353
    3    1    9    9        0.0021400016
    3    1   10    9        0.0000000002
    3    1   11    9        0.0000001855
    3    1   12    9        0.0000001479
    3    1   13    9       -0.0000003595
    3    1   14    9       -0.0005755204
    3    1   15    9       -0.0000005230
    3    1   16    9       -0.0000000306
    3    1   17    9       -0.0000000083
    3    1   18    9        0.0005777472
    3    1   19    9       -0.0000000264
    3    1   10   10        0.0021399728
    3    1   11   10       -0.0000000396
    3    1   12   10       -0.0000000303
    3    1   13   10        0.0000000720
    3    1   14   10        0.0000005230
    3    1   15   10       -0.0005770400
    3    1   16   10       -0.0000001537
    3    1   17   10       -0.0000000357
    3    1   18   10       -0.0000000122
    3    1   19   10        0.0000000730
    3    1   11   11        0.0007102068
    3    1   12   11       -0.0004064739
    3    1   13   11        0.0000000000
    3    1   14   11       -0.0000001685
    3    1   15   11        0.0000000346
    3    1   16   11       -0.0000000000
    3    1   17   11       -0.0000000000
    3    1   18   11        0.0000003116
    3    1   19   11        0.0006649746
    3    1   12   12        0.0011193123
    3    1   13   12        0.0000000001
    3    1   14   12        0.0000001513
    3    1   15   12       -0.0000000301
    3    1   16   12        0.0000000000
    3    1   17   12       -0.0000000000
    3    1   18   12        0.0000001552
    3    1   19   12        0.0000340631
    3    1   13   13        0.0014919959
    3    1   14   13       -0.0000002193
    3    1   15   13        0.0000000436
    3    1   16   13       -0.0000000000
    3    1   17   13        0.0000000000
    3    1   18   13       -0.0000001323
    3    1   19   13        0.0000000000
    3    1   14   14        0.0010409121
    3    1   15   14       -0.0000000003
    3    1   16   14        0.0000000395
    3    1   17   14       -0.0000000149
    3    1   18   14        0.0000772210
    3    1   19   14        0.0000000896
    3    1   15   15        0.0010413202
    3    1   16   15        0.0000001985
    3    1   17   15       -0.0000000739
    3    1   18   15        0.0000000685
    3    1   19   15       -0.0000000091
    3    1   16   16        0.0005455774
    3    1   17   16        0.0000349727
    3    1   18   16       -0.0000000095
    3    1   19   16       -0.0000000000
    3    1   17   17       -0.0002287356
    3    1   18   17        0.0000000306
    3    1   19   17        0.0000000000
    3    1   18   18       -0.0002997263
    3    1   19   18       -0.0000000264
    3    1   19   19        0.0000505846
    4    1    4    1        0.0023375463
    4    1    5    1        0.0000000000
    4    1    6    1        0.0000001278
    4    1    7    1        0.0000000232
    4    1    8    1       -0.0000000165
    4    1    9    1       -0.0017245423
    4    1   10    1        0.0000000346
    4    1   11    1       -0.0000000293
    4    1   12    1        0.0000000833
    4    1   13    1        0.0000000047
    4    1   14    1        0.0009693934
    4    1   15    1        0.0000008609
    4    1   16    1       -0.0000000189
    4    1   17    1        0.0000000145
    4    1   18    1       -0.0006670739
    4    1   19    1       -0.0000000424
    4    1    2    2        0.0000003719
    4    1    3    2       -0.0000020993
    4    1    4    2        0.0059235381
    4    1    5    2        0.0000000000
    4    1    6    2        0.0000011268
    4    1    7    2        0.0000005246
    4    1    8    2        0.0000008480
    4    1    9    2       -0.0034585499
    4    1   10    2        0.0000000696
    4    1   11    2       -0.0000001390
    4    1   12    2        0.0000002858
    4    1   13    2        0.0000000176
    4    1   14    2        0.0005998992
    4    1   15    2        0.0000005331
    4    1   16    2       -0.0000001584
    4    1   17    2       -0.0000000854
    4    1   18    2        0.0001221993
    4    1   19    2        0.0000004193
    4    1    3    3        0.0000218852
    4    1    4    3       -0.0002055398
    4    1    5    3       -0.0000000001
    4    1    6    3       -0.0000120202
    4    1    7    3       -0.0000044707
    4    1    8    3        0.0000004189
    4    1    9    3       -0.0019432189
    4    1   10    3        0.0000000393
    4    1   11    3        0.0000044123
    4    1   12    3        0.0000030729
    4    1   13    3       -0.0000000966
    4    1   14    3        0.0003262919
    4    1   15    3        0.0000002901
    4    1   16    3        0.0000005801
    4    1   17    3       -0.0000004438
    4    1   18    3       -0.0000026592
    4    1   19    3       -0.0000017149
    4    1    4    4        0.0000012978
    4    1    5    4       -0.0000002397
    4    1    6    4        0.0017883209
    4    1    7    4        0.0006550723
    4    1    8    4        0.0004641390
    4    1    9    4        0.0000038484
    4    1   10    4       -0.0000007882
    4    1   11    4        0.0000176777
    4    1   12    4        0.0014700069
    4    1   13    4        0.0027130088
    4    1   14    4        0.0000031951
    4    1   15    4       -0.0000006321
    4    1   16    4       -0.0003825144
    4    1   17    4       -0.0002851166
    4    1   18    4        0.0000015528
    4    1   19    4       -0.0004112667
    4    1    5    5        0.0000014575
    4    1    6    5        0.0000000000
    4    1    7    5        0.0015711803
    4    1    8    5        0.0000000000
    4    1    9    5       -0.0000007844
    4    1   10    5        0.0000045013
    4    1   11    5       -0.0000000001
    4    1   12    5       -0.0000000001
    4    1   13    5       -0.0011311114
    4    1   14    5       -0.0000006487
    4    1   15    5        0.0000036958
    4    1   16    5       -0.0009174042
    4    1   17    5       -0.0006839067
    4    1   18    5       -0.0000003123
    4    1   19    5        0.0000000002
    4    1    6    6        0.0000147255
    4    1    7    6        0.0000021333
    4    1    8    6       -0.0000005025
    4    1    9    6       -0.0013134492
    4    1   10    6        0.0000000261
    4    1   11    6        0.0000062075
    4    1   12    6       -0.0000119430
    4    1   13    6        0.0000000118
    4    1   14    6        0.0025260163
    4    1   15    6        0.0000022430
    4    1   16    6       -0.0000030210
    4    1   17    6        0.0000008169
    4    1   18    6       -0.0004200105
    4    1   19    6        0.0000000187
    4    1    7    7        0.0000319840
    4    1    8    7        0.0000013635
    4    1    9    7       -0.0003125937
    4    1   10    7       -0.0007500726
    4    1   11    7        0.0000007711
    4    1   12    7        0.0000020658
    4    1   13    7        0.0000000015
    4    1   14    7       -0.0002155422
    4    1   15    7       -0.0005177072
    4    1   16    7       -0.0000069020
    4    1   17    7        0.0000013692
    4    1   18    7       -0.0002053603
    4    1   19    7        0.0000009652
    4    1    8    8        0.0000258800
    4    1    9    8        0.0002023591
    4    1   10    8       -0.0000000040
    4    1   11    8       -0.0000006909
    4    1   12    8        0.0000036437
    4    1   13    8        0.0000000125
    4    1   14    8       -0.0002961796
    4    1   15    8       -0.0000002632
    4    1   16    8       -0.0000011270
    4    1   17    8       -0.0000040832
    4    1   18    8        0.0013132594
    4    1   19    8       -0.0000070052
    4    1    9    9        0.0000138405
    4    1   10    9       -0.0000027717
    4    1   11    9        0.0002940120
    4    1   12    9       -0.0012356428
    4    1   13    9        0.0005061502
    4    1   14    9        0.0000096236
    4    1   15    9       -0.0000019251
    4    1   16    9        0.0003495622
    4    1   17    9        0.0001347578
    4    1   18    9        0.0000038782
    4    1   19    9        0.0005449863
    4    1   10   10        0.0000161080
    4    1   11   10       -0.0000000059
    4    1   12   10        0.0000000249
    4    1   13   10       -0.0002110935
    4    1   14   10       -0.0000019413
    4    1   15   10        0.0000112007
    4    1   16   10        0.0008385713
    4    1   17   10        0.0003233756
    4    1   18   10       -0.0000007773
    4    1   19   10       -0.0000000103
    4    1   11   11        0.0000277939
    4    1   12   11        0.0000040397
    4    1   13   11        0.0000000245
    4    1   14   11        0.0003064784
    4    1   15   11        0.0000002715
    4    1   16   11       -0.0000036870
    4    1   17   11        0.0000023706
    4    1   18   11       -0.0009371664
    4    1   19   11        0.0000058172
    4    1   12   12        0.0000316140
    4    1   13   12       -0.0000000010
    4    1   14   12        0.0004278710
    4    1   15   12        0.0000003801
    4    1   16   12        0.0000013164
    4    1   17   12        0.0000005968
    4    1   18   12       -0.0006938581
    4    1   19   12        0.0000060949
    4    1   13   13        0.0000000352
    4    1   14   13        0.0009272002
    4    1   15   13       -0.0003852945
    4    1   16   13       -0.0000000032
    4    1   17   13        0.0000000015
    4    1   18   13        0.0005082421
    4    1   19   13       -0.0000000307
    4    1   14   14        0.0000118466
    4    1   15   14       -0.0000023684
    4    1   16   14       -0.0002622636
    4    1   17   14        0.0001244476
    4    1   18   14        0.0000012496
    4    1   19   14       -0.0009115816
    4    1   15   15        0.0000137647
    4    1   16   15       -0.0006312174
    4    1   17   15        0.0002993835
    4    1   18   15       -0.0000002420
    4    1   19   15       -0.0000008092
    4    1   16   16        0.0000333376
    4    1   17   16       -0.0000045690
    4    1   18   16        0.0001162195
    4    1   19   16        0.0000000824
    4    1   17   17        0.0000332123
    4    1   18   17       -0.0001499935
    4    1   19   17       -0.0000013558
    4    1   18   18        0.0000127322
    4    1   19   18        0.0006602943
    4    1   19   19        0.0000270840
    5    1    5    1        0.0023371970
    5    1    6    1       -0.0000000255
    5    1    7    1        0.0000001156
    5    1    8    1        0.0000000034
    5    1    9    1       -0.0000000348
    5    1   10    1       -0.0017243092
    5    1   11    1        0.0000000088
    5    1   12    1       -0.0000000166
    5    1   13    1       -0.0000000009
    5    1   14    1       -0.0000008611
    5    1   15    1        0.0009708077
    5    1   16    1       -0.0000000934
    5    1   17    1        0.0000000659
    5    1   18    1        0.0000000007
    5    1   19    1       -0.0000000683
    5    1    2    2       -0.0000000743
    5    1    3    2        0.0000004200
    5    1    4    2        0.0000000000
    5    1    5    2        0.0059230259
    5    1    6    2       -0.0000002255
    5    1    7    2        0.0000026212
    5    1    8    2       -0.0000001696
    5    1    9    2       -0.0000000697
    5    1   10    2       -0.0034585371
    5    1   11    2        0.0000000336
    5    1   12    2       -0.0000000569
    5    1   13    2       -0.0000000036
    5    1   14    2       -0.0000005340
    5    1   15    2        0.0006013702
    5    1   16    2       -0.0000007915
    5    1   17    2       -0.0000004252
    5    1   18    2       -0.0000000002
    5    1   19    2       -0.0000000706
    5    1    3    3       -0.0000043791
    5    1    4    3       -0.0000000001
    5    1    5    3       -0.0002056459
    5    1    6    3        0.0000024051
    5    1    7    3       -0.0000223400
    5    1    8    3       -0.0000000837
    5    1    9    3       -0.0000000390
    5    1   10    3       -0.0019430285
    5    1   11    3       -0.0000008797
    5    1   12    3       -0.0000006147
    5    1   13    3        0.0000000193
    5    1   14    3       -0.0000002903
    5    1   15    3        0.0003272683
    5    1   16    3        0.0000028986
    5    1   17    3       -0.0000022175
    5    1   18    3        0.0000000000
    5    1   19    3        0.0000003424
    5    1    4    4       -0.0000007631
    5    1    5    4       -0.0000011599
    5    1    6    4        0.0000000000
    5    1    7    4        0.0015711574
    5    1    8    4        0.0000000000
    5    1    9    4       -0.0000024719
    5    1   10    4       -0.0000039348
    5    1   11    4       -0.0000000001
    5    1   12    4       -0.0000000001
    5    1   13    4       -0.0011310179
    5    1   14    4       -0.0000020123
    5    1   15    4       -0.0000031466
    5    1   16    4       -0.0009174284
    5    1   17    4       -0.0006838522
    5    1   18    4       -0.0000009752
    5    1   19    4       -0.0000000002
    5    1    5    5        0.0000002121
    5    1    6    5        0.0017880419
    5    1    7    5       -0.0006550006
    5    1    8    5        0.0004643006
    5    1    9    5       -0.0000039158
    5    1   10    5        0.0000008020
    5    1   11    5        0.0000176100
    5    1   12    5        0.0014697354
    5    1   13    5       -0.0027129292
    5    1   14    5       -0.0000031981
    5    1   15    5        0.0000006325
    5    1   16    5        0.0003824462
    5    1   17    5        0.0002851162
    5    1   18    5       -0.0000015327
    5    1   19    5       -0.0004110960
    5    1    6    6       -0.0000029464
    5    1    7    6        0.0000106595
    5    1    8    6        0.0000001006
    5    1    9    6       -0.0000000267
    5    1   10    6       -0.0013130222
    5    1   11    6       -0.0000012398
    5    1   12    6        0.0000023899
    5    1   13    6       -0.0000000024
    5    1   14    6       -0.0000022433
    5    1   15    6        0.0025267817
    5    1   16    6       -0.0000150949
    5    1   17    6        0.0000040775
    5    1   18    6        0.0000000005
    5    1   19    6       -0.0000000518
    5    1    7    7       -0.0000063997
    5    1    8    7        0.0000068135
    5    1    9    7       -0.0007496969
    5    1   10    7        0.0003127111
    5    1   11    7        0.0000038458
    5    1   12    7        0.0000103230
    5    1   13    7        0.0000000077
    5    1   14    7       -0.0005182753
    5    1   15    7        0.0002152894
    5    1   16    7        0.0000013808
    5    1   17    7       -0.0000002728
    5    1   18    7       -0.0004925376
    5    1   19    7        0.0000051290
    5    1    8    8       -0.0000051784
    5    1    9    8        0.0000000041
    5    1   10    8        0.0002021227
    5    1   11    8        0.0000001377
    5    1   12    8       -0.0000007289
    5    1   13    8       -0.0000000025
    5    1   14    8        0.0000002625
    5    1   15    8       -0.0002979249
    5    1   16    8       -0.0000056332
    5    1   17    8       -0.0000203901
    5    1   18    8       -0.0000000015
    5    1   19    8        0.0000015523
    5    1    9    9       -0.0000087573
    5    1   10    9       -0.0000138079
    5    1   11    9        0.0000000059
    5    1   12    9       -0.0000000248
    5    1   13    9       -0.0002110177
    5    1   14    9       -0.0000060941
    5    1   15    9       -0.0000096426
    5    1   16    9        0.0008383519
    5    1   17    9        0.0003231956
    5    1   18    9       -0.0000024235
    5    1   19    9        0.0000000107
    5    1   10   10        0.0000027671
    5    1   11   10        0.0002942707
    5    1   12   10       -0.0012356792
    5    1   13   10       -0.0005062671
    5    1   14   10       -0.0000096276
    5    1   15   10        0.0000019271
    5    1   16   10       -0.0003496040
    5    1   17   10       -0.0001348197
    5    1   18   10       -0.0000038236
    5    1   19   10        0.0005447038
    5    1   11   11       -0.0000055621
    5    1   12   11       -0.0000008063
    5    1   13   11       -0.0000000039
    5    1   14   11       -0.0000002717
    5    1   15   11        0.0003068766
    5    1   16   11       -0.0000184145
    5    1   17   11        0.0000118389
    5    1   18   11        0.0000000011
    5    1   19   11       -0.0000012719
    5    1   12   12       -0.0000063257
    5    1   13   12        0.0000000001
    5    1   14   12       -0.0000003800
    5    1   15   12        0.0004291533
    5    1   16   12        0.0000065796
    5    1   17   12        0.0000029749
    5    1   18   12        0.0000000007
    5    1   19   12       -0.0000012994
    5    1   13   13       -0.0000000070
    5    1   14   13       -0.0003855590
    5    1   15   13       -0.0009264017
    5    1   16   13       -0.0000000166
    5    1   17   13        0.0000000127
    5    1   18   13       -0.0002118920
    5    1   19   13       -0.0000000571
    5    1   14   14       -0.0000074644
    5    1   15   14       -0.0000118009
    5    1   16   14       -0.0006305943
    5    1   17   14        0.0002992356
    5    1   18   14       -0.0000007840
    5    1   19   14        0.0000008092
    5    1   15   15        0.0000023356
    5    1   16   15        0.0002624843
    5    1   17   15       -0.0001244997
    5    1   18   15       -0.0000012287
    5    1   19   15       -0.0009124155
    5    1   16   16       -0.0000066704
    5    1   17   16        0.0000009135
    5    1   18   16        0.0002787372
    5    1   19   16        0.0000002373
    5    1   17   17       -0.0000066438
    5    1   18   17       -0.0003597282
    5    1   19   17       -0.0000065452
    5    1   18   18       -0.0000080609
    5    1   19   18       -0.0000000021
    5    1   19   19       -0.0000052676
    6    1    6    1        0.0046711466
    6    1    7    1        0.0000000000
    6    1    8    1       -0.0017527773
    6    1    9    1        0.0000000168
    6    1   10    1       -0.0000000048
    6    1   11    1       -0.0009671186
    6    1   12    1        0.0043711785
    6    1   13    1       -0.0000000004
    6    1   14    1       -0.0000000105
    6    1   15    1        0.0000000018
    6    1   16    1        0.0000000001
    6    1   17    1        0.0000000001
    6    1   18    1       -0.0000000140
    6    1   19    1       -0.0047026976
    6    1    2    2        0.0041530275
    6    1    3    2        0.0010150941
    6    1    4    2        0.0000002479
    6    1    5    2       -0.0000000496
    6    1    6    2       -0.0000055422
    6    1    7    2       -0.0000000000
    6    1    8    2       -0.0002919190
    6    1    9    2       -0.0000000220
    6    1   10    2        0.0000000030
    6    1   11    2       -0.0008160336
    6    1   12    2       -0.0004662963
    6    1   13    2        0.0000000001
    6    1   14    2        0.0000000153
    6    1   15    2       -0.0000000030
    6    1   16    2        0.0000000000
    6    1   17    2       -0.0000000000
    6    1   18    2        0.0000000095
    6    1   19    2        0.0006229898
    6    1    3    3        0.0012526515
    6    1    4    3       -0.0000002989
    6    1    5    3        0.0000000598
    6    1    6    3        0.0000208583
    6    1    7    3       -0.0000000000
    6    1    8    3       -0.0011195268
    6    1    9    3       -0.0000001998
    6    1   10    3        0.0000000395
    6    1   11    3       -0.0002601945
    6    1   12    3        0.0000828518
    6    1   13    3       -0.0000000002
    6    1   14    3       -0.0000000641
    6    1   15    3        0.0000000127
    6    1   16    3        0.0000000000
    6    1   17    3        0.0000000000
    6    1   18    3        0.0000000421
    6    1   19    3       -0.0005350022
    6    1    4    4        0.0042827998
    6    1    5    4       -0.0000000000
    6    1    6    4        0.0000001287
    6    1    7    4        0.0000000426
    6    1    8    4        0.0000001028
    6    1    9    4       -0.0022104463
    6    1   10    4        0.0000000444
    6    1   11    4       -0.0000000318
    6    1   12    4        0.0000000741
    6    1   13    4        0.0000002998
    6    1   14    4        0.0006505543
    6    1   15    4        0.0000005779
    6    1   16    4       -0.0000000187
    6    1   17    4       -0.0000000150
    6    1   18    4        0.0003747841
    6    1   19    4        0.0000000179
    6    1    5    5        0.0042826298
    6    1    6    5       -0.0000000258
    6    1    7    5        0.0000002130
    6    1    8    5       -0.0000000205
    6    1    9    5       -0.0000000446
    6    1   10    5       -0.0022103831
    6    1   11    5        0.0000000100
    6    1   12    5       -0.0000000146
    6    1   13    5       -0.0000000600
    6    1   14    5       -0.0000005787
    6    1   15    5        0.0006511577
    6    1   16    5       -0.0000000937
    6    1   17    5       -0.0000000713
    6    1   18    5       -0.0000000004
    6    1   19    5        0.0000000390
    6    1    6    6        0.0009549469
    6    1    7    6       -0.0000000000
    6    1    8    6        0.0001204441
    6    1    9    6        0.0000000176
    6    1   10    6       -0.0000000037
    6    1   11    6       -0.0001173267
    6    1   12    6        0.0003131209
    6    1   13    6        0.0000000000
    6    1   14    6        0.0000003477
    6    1   15    6       -0.0000000693
    6    1   16    6        0.0000000000
    6    1   17    6        0.0000000000
    6    1   18    6       -0.0000000571
    6    1   19    6       -0.0004425670
    6    1    7    7        0.0012708695
    6    1    8    7        0.0000000000
    6    1    9    7       -0.0000000111
    6    1   10    7       -0.0000000552
    6    1   11    7       -0.0000000000
    6    1   12    7       -0.0000000000
    6    1   13    7       -0.0000000000
    6    1   14    7       -0.0000000186
    6    1   15    7       -0.0000000935
    6    1   16    7       -0.0004736185
    6    1   17    7       -0.0008955135
    6    1   18    7       -0.0000000257
    6    1   19    7       -0.0000000000
    6    1    8    8        0.0002700845
    6    1    9    8       -0.0000001112
    6    1   10    8        0.0000000233
    6    1   11    8        0.0006346500
    6    1   12    8        0.0004846696
    6    1   13    8       -0.0000000000
    6    1   14    8       -0.0000000565
    6    1   15    8        0.0000000113
    6    1   16    8       -0.0000000000
    6    1   17    8        0.0000000000
    6    1   18    8        0.0000003324
    6    1   19    8       -0.0000016499
    6    1    9    9        0.0022372293
    6    1   10    9        0.0000000001
    6    1   11    9       -0.0000000021
    6    1   12    9       -0.0000000957
    6    1   13    9        0.0000002788
    6    1   14    9       -0.0004720030
    6    1   15    9       -0.0000004290
    6    1   16    9        0.0000000177
    6    1   17    9        0.0000000025
    6    1   18    9        0.0008439255
    6    1   19    9       -0.0000000759
    6    1   10   10        0.0022372745
    6    1   11   10       -0.0000000022
    6    1   12   10        0.0000000188
    6    1   13   10       -0.0000000558
    6    1   14   10        0.0000004287
    6    1   15   10       -0.0004737354
    6    1   16   10        0.0000000871
    6    1   17   10        0.0000000209
    6    1   18   10       -0.0000000179
    6    1   19   10        0.0000001138
    6    1   11   11        0.0007418860
    6    1   12   11       -0.0001970282
    6    1   13   11        0.0000000000
    6    1   14   11        0.0000001229
    6    1   15   11       -0.0000000237
    6    1   16   11       -0.0000000000
    6    1   17   11       -0.0000000000
    6    1   18   11       -0.0000002041
    6    1   19   11        0.0008574086
    6    1   12   12        0.0007804154
    6    1   13   12        0.0000000000
    6    1   14   12       -0.0000001350
    6    1   15   12        0.0000000269
    6    1   16   12        0.0000000000
    6    1   17   12       -0.0000000000
    6    1   18   12       -0.0000001111
    6    1   19   12        0.0004669473
    6    1   13   13        0.0018303390
    6    1   14   13        0.0000002043
    6    1   15   13       -0.0000000407
    6    1   16   13       -0.0000000000
    6    1   17   13       -0.0000000000
    6    1   18   13        0.0000000825
    6    1   19   13       -0.0000000001
    6    1   14   14        0.0011986750
    6    1   15   14       -0.0000000004
    6    1   16   14       -0.0000000265
    6    1   17   14        0.0000000108
    6    1   18   14       -0.0000131725
    6    1   19   14       -0.0000000612
    6    1   15   15        0.0011990513
    6    1   16   15       -0.0000001330
    6    1   17   15        0.0000000540
    6    1   18   15       -0.0000000117
    6    1   19   15        0.0000000106
    6    1   16   16        0.0009490532
    6    1   17   16       -0.0000749714
    6    1   18   16        0.0000000088
    6    1   19   16        0.0000000000
    6    1   17   17       -0.0001970812
    6    1   18   17       -0.0000000265
    6    1   19   17       -0.0000000000
    6    1   18   18       -0.0003907459
    6    1   19   18        0.0000000103
    6    1   19   19       -0.0005160474
    7    1    7    1        0.0000497712
    7    1    8    1       -0.0000000000
    7    1    9    1       -0.0000000131
    7    1   10    1       -0.0000000652
    7    1   11    1       -0.0000000000
    7    1   12    1        0.0000000000
    7    1   13    1       -0.0000000000
    7    1   14    1        0.0000000105
    7    1   15    1        0.0000000526
    7    1   16    1       -0.0000573575
    7    1   17    1        0.0000010657
    7    1   18    1       -0.0000000105
    7    1   19    1       -0.0000000000
    7    1    2    2        0.0000000000
    7    1    3    2        0.0000000000
    7    1    4    2        0.0000000827
    7    1    5    2        0.0000004128
    7    1    6    2       -0.0000000000
    7    1    7    2        0.0001916279
    7    1    8    2       -0.0000000000
    7    1    9    2       -0.0000000208
    7    1   10    2       -0.0000001036
    7    1   11    2       -0.0000000000
    7    1   12    2       -0.0000000000
    7    1   13    2        0.0000000000
    7    1   14    2       -0.0000000030
    7    1   15    2       -0.0000000153
    7    1   16    2       -0.0001178525
    7    1   17    2       -0.0001066583
    7    1   18    2        0.0000000056
    7    1   19    2        0.0000000000
    7    1    3    3        0.0000000000
    7    1    4    3       -0.0000000882
    7    1    5    3       -0.0000004408
    7    1    6    3        0.0000000000
    7    1    7    3       -0.0002541727
    7    1    8    3       -0.0000000000
    7    1    9    3       -0.0000000851
    7    1   10    3       -0.0000004248
    7    1   11    3        0.0000000000
    7    1   12    3        0.0000000000
    7    1   13    3        0.0000000000
    7    1   14    3        0.0000000023
    7    1   15    3        0.0000000116
    7    1   16    3        0.0000589921
    7    1   17    3        0.0000181958
    7    1   18    3        0.0000000134
    7    1   19    3        0.0000000000
    7    1    4    4        0.0001665441
    7    1    5    4        0.0003994524
    7    1    6    4        0.0000000376
    7    1    7    4        0.0000004160
    7    1    8    4        0.0000000451
    7    1    9    4       -0.0001053259
    7    1   10    4       -0.0002526719
    7    1   11    4        0.0000000252
    7    1   12    4        0.0000000299
    7    1   13    4       -0.0000001014
    7    1   14    4       -0.0000105643
    7    1   15    4       -0.0000252433
    7    1   16    4       -0.0000001624
    7    1   17    4       -0.0000001189
    7    1   18    4       -0.0000294720
    7    1   19    4        0.0000000034
    7    1    5    5       -0.0001665275
    7    1    6    5        0.0000001876
    7    1    7    5       -0.0000000832
    7    1    8    5        0.0000002254
    7    1    9    5       -0.0002526136
    7    1   10    5        0.0001053448
    7    1   11    5        0.0000001237
    7    1   12    5        0.0000001492
    7    1   13    5       -0.0000005068
    7    1   14    5       -0.0000254174
    7    1   15    5        0.0000105038
    7    1   16    5        0.0000000325
    7    1   17    5        0.0000000239
    7    1   18    5       -0.0000706922
    7    1   19    5        0.0000000612
    7    1    6    6        0.0000000000
    7    1    7    6        0.0001390677
    7    1    8    6       -0.0000000000
    7    1    9    6       -0.0000000067
    7    1   10    6       -0.0000000331
    7    1   11    6       -0.0000000000
    7    1   12    6        0.0000000000
    7    1   13    6        0.0000000000
    7    1   14    6        0.0000001136
    7    1   15    6        0.0000005700
    7    1   16    6       -0.0002776112
    7    1   17    6        0.0000360169
    7    1   18    6       -0.0000000110
    7    1   19    6       -0.0000000000
    7    1    7    7        0.0000000000
    7    1    8    7        0.0001689880
    7    1    9    7       -0.0000000862
    7    1   10    7        0.0000000175
    7    1   11    7        0.0001505018
    7    1   12    7        0.0002059366
    7    1   13    7       -0.0000000000
    7    1   14    7       -0.0000002215
    7    1   15    7        0.0000000441
    7    1   16    7       -0.0000000000
    7    1   17    7       -0.0000000000
    7    1   18    7       -0.0000001844
    7    1   19    7        0.0000797827
    7    1    8    8        0.0000000000
    7    1    9    8       -0.0000000222
    7    1   10    8       -0.0000001112
    7    1   11    8        0.0000000000
    7    1   12    8        0.0000000000
    7    1   13    8        0.0000000000
    7    1   14    8       -0.0000000156
    7    1   15    8       -0.0000000787
    7    1   16    8       -0.0000892949
    7    1   17    8       -0.0002240479
    7    1   18    8        0.0000000991
    7    1   19    8        0.0000000001
    7    1    9    9        0.0000373233
    7    1   10    9        0.0000895088
    7    1   11    9       -0.0000000309
    7    1   12    9       -0.0000000271
    7    1   13    9       -0.0000000984
    7    1   14    9       -0.0000530926
    7    1   15    9       -0.0001277040
    7    1   16    9        0.0000001887
    7    1   17    9        0.0000000388
    7    1   18    9       -0.0000040090
    7    1   19    9       -0.0000000094
    7    1   10   10       -0.0000373194
    7    1   11   10       -0.0000001536
    7    1   12   10       -0.0000001353
    7    1   13   10       -0.0000004919
    7    1   14   10       -0.0001276830
    7    1   15   10        0.0000531208
    7    1   16   10       -0.0000000381
    7    1   17   10       -0.0000000076
    7    1   18   10       -0.0000096189
    7    1   19   10       -0.0000000412
    7    1   11   11        0.0000000000
    7    1   12   11        0.0000000000
    7    1   13   11        0.0000000000
    7    1   14   11        0.0000000389
    7    1   15   11        0.0000001944
    7    1   16   11       -0.0002076539
    7    1   17   11        0.0001087635
    7    1   18   11       -0.0000000738
    7    1   19   11       -0.0000000000
    7    1   12   12        0.0000000000
    7    1   13   12        0.0000000000
    7    1   14   12       -0.0000000422
    7    1   15   12       -0.0000002118
    7    1   16   12       -0.0000963668
    7    1   17   12        0.0000101929
    7    1   18   12       -0.0000000387
    7    1   19   12       -0.0000000000
    7    1   13   13        0.0000000000
    7    1   14   13       -0.0000000570
    7    1   15   13       -0.0000002862
    7    1   16   13        0.0000000000
    7    1   17   13        0.0000000000
    7    1   18   13       -0.0000000359
    7    1   19   13       -0.0000000000
    7    1   14   14        0.0000166624
    7    1   15   14        0.0000402684
    7    1   16   14       -0.0000002696
    7    1   17   14        0.0000001043
    7    1   18   14       -0.0000184657
    7    1   19   14       -0.0000000265
    7    1   15   15       -0.0000167466
    7    1   16   15        0.0000000537
    7    1   17   15       -0.0000000207
    7    1   18   15       -0.0000443722
    7    1   19   15       -0.0000001053
    7    1   16   16        0.0000000000
    7    1   17   16       -0.0000000000
    7    1   18   16        0.0000000606
    7    1   19   16        0.0000286617
    7    1   17   17        0.0000000000
    7    1   18   17       -0.0000002231
    7    1   19   17       -0.0001968047
    7    1   18   18       -0.0000007450
    7    1   19   18        0.0000000079
    7    1   19   19        0.0000000000
    8    1    8    1        0.0007780888
    8    1    9    1       -0.0000000237
    8    1   10    1        0.0000000052
    8    1   11    1        0.0003223827
    8    1   12    1       -0.0016303985
    8    1   13    1        0.0000000001
    8    1   14    1        0.0000000145
    8    1   15    1       -0.0000000027
    8    1   16    1       -0.0000000000
    8    1   17    1       -0.0000000000
    8    1   18    1        0.0000000015
    8    1   19    1        0.0019001528
    8    1    2    2       -0.0024747871
    8    1    3    2       -0.0007115835
    8    1    4    2        0.0000000592
    8    1    5    2       -0.0000000117
    8    1    6    2        0.0003402962
    8    1    7    2        0.0000000000
    8    1    8    2        0.0004029351
    8    1    9    2       -0.0000000356
    8    1   10    2        0.0000000078
    8    1   11    2        0.0004460811
    8    1   12    2        0.0006325953
    8    1   13    2       -0.0000000001
    8    1   14    2       -0.0000000280
    8    1   15    2        0.0000000056
    8    1   16    2       -0.0000000000
    8    1   17    2        0.0000000000
    8    1   18    2        0.0000000166
    8    1   19    2       -0.0003511682
    8    1    3    3       -0.0004150454
    8    1    4    3       -0.0000000445
    8    1    5    3        0.0000000089
    8    1    6    3       -0.0001708200
    8    1    7    3       -0.0000000000
    8    1    8    3        0.0002861545
    8    1    9    3       -0.0000000425
    8    1   10    3        0.0000000088
    8    1   11    3        0.0001902641
    8    1   12    3        0.0000347387
    8    1   13    3        0.0000000001
    8    1   14    3        0.0000000527
    8    1   15    3       -0.0000000105
    8    1   16    3       -0.0000000000
    8    1   17    3        0.0000000000
    8    1   18    3       -0.0000000981
    8    1   19    3        0.0000825512
    8    1    4    4       -0.0013952014
    8    1    5    4        0.0000000000
    8    1    6    4       -0.0000000008
    8    1    7    4        0.0000000179
    8    1    8    4        0.0000000929
    8    1    9    4        0.0008254397
    8    1   10    4       -0.0000000166
    8    1   11    4        0.0000000423
    8    1   12    4        0.0000000219
    8    1   13    4        0.0000000648
    8    1   14    4        0.0000050643
    8    1   15    4        0.0000000044
    8    1   16    4       -0.0000000046
    8    1   17    4       -0.0000000127
    8    1   18    4       -0.0000977243
    8    1   19    4        0.0000000405
    8    1    5    5       -0.0013951300
    8    1    6    5        0.0000000002
    8    1    7    5        0.0000000892
    8    1    8    5       -0.0000000186
    8    1    9    5        0.0000000166
    8    1   10    5        0.0008254542
    8    1   11    5       -0.0000000098
    8    1   12    5       -0.0000000044
    8    1   13    5       -0.0000000130
    8    1   14    5       -0.0000000041
    8    1   15    5        0.0000047578
    8    1   16    5       -0.0000000225
    8    1   17    5       -0.0000000646
    8    1   18    5        0.0000000001
    8    1   19    5       -0.0000000191
    8    1    6    6       -0.0003195500
    8    1    7    6        0.0000000000
    8    1    8    6       -0.0000036560
    8    1    9    6       -0.0000000380
    8    1   10    6        0.0000000080
    8    1   11    6        0.0002717319
    8    1   12    6       -0.0001878689
    8    1   13    6       -0.0000000000
    8    1   14    6        0.0000000183
    8    1   15    6       -0.0000000035
    8    1   16    6       -0.0000000000
    8    1   17    6        0.0000000000
    8    1   18    6        0.0000000395
    8    1   19    6       -0.0000201567
    8    1    7    7       -0.0001544696
    8    1    8    7       -0.0000000000
    8    1    9    7       -0.0000000019
    8    1   10    7       -0.0000000092
    8    1   11    7        0.0000000000
[...]
   16   13   16   16        0.0000000000
   16   13   17   16       -0.0000000000
   16   13   18   16        0.0000017228
   16   13   19   16       -0.0000000000
   16   13   17   17       -0.0000000000
   16   13   18   17        0.0000020160
   16   13   19   17        0.0000000002
   16   13   18   18        0.0000000002
   16   13   19   18       -0.0000001670
   16   13   19   19       -0.0000000002
   17   13   17   13        0.0006784998
   17   13   18   13       -0.0000000139
   17   13   19   13       -0.0000000000
   17   13   14   14        0.0000000000
   17   13   15   14        0.0000003351
   17   13   16   14       -0.0000000435
   17   13   17   14        0.0000054749
   17   13   18   14       -0.0000002350
   17   13   19   14       -0.0000003147
   17   13   15   15        0.0000000007
   17   13   16   15        0.0000000112
   17   13   17   15       -0.0000010943
   17   13   18   15        0.0002649237
   17   13   19   15       -0.0000014447
   17   13   16   16       -0.0000000001
   17   13   17   16        0.0000000000
   17   13   18   16        0.0000002656
   17   13   19   16       -0.0000000000
   17   13   17   17        0.0000000000
   17   13   18   17       -0.0000020683
   17   13   19   17        0.0000000001
   17   13   18   18       -0.0000000002
   17   13   19   18        0.0000002868
   17   13   19   19        0.0000000003
   18   13   18   13        0.0049833808
   18   13   19   13       -0.0000000103
   18   13   14   14        0.0000225428
   18   13   15   14        0.0000038568
   18   13   16   14        0.0000010792
   18   13   17   14       -0.0000012785
   18   13   18   14        0.0000246853
   18   13   19   14       -0.0014085306
   18   13   15   15        0.0000192943
   18   13   16   15       -0.0012166878
   18   13   17   15        0.0014413977
   18   13   18   15        0.0000042610
   18   13   19   15        0.0005856306
   18   13   16   16        0.0000581152
   18   13   17   16       -0.0000024366
   18   13   18   16        0.0000000000
   18   13   19   16       -0.0000004277
   18   13   17   17        0.0000036994
   18   13   18   17       -0.0000000001
   18   13   19   17        0.0000021946
   18   13   18   18        0.0000249824
   18   13   19   18       -0.0003337004
   18   13   19   19        0.0000272574
   19   13   19   13        0.0008431497
   19   13   14   14       -0.0002999073
   19   13   15   14        0.0001242905
   19   13   16   14       -0.0000002862
   19   13   17   14       -0.0000002029
   19   13   18   14       -0.0001634935
   19   13   19   14        0.0000052683
   19   13   15   15        0.0002993219
   19   13   16   15       -0.0000021353
   19   13   17   15       -0.0000001897
   19   13   18   15        0.0000678549
   19   13   19   15       -0.0000008530
   19   13   16   16       -0.0000000016
   19   13   17   16        0.0000000002
   19   13   18   16        0.0000000334
   19   13   19   16       -0.0000000002
   19   13   17   17        0.0000000001
   19   13   18   17       -0.0000002272
   19   13   19   17        0.0000000011
   19   13   18   18       -0.0003332096
   19   13   19   18        0.0000032390
   19   13   19   19       -0.0000000660
   14   14   14   14        0.0804996559
   14   14   15   14       -0.0004836000
   14   14   16   14        0.0000098313
   14   14   17   14       -0.0000041486
   14   14   18   14       -0.0007777668
   14   14   19   14       -0.0000091252
   14   14   15   15        0.0718801424
   14   14   16   15        0.0000007985
   14   14   17   15       -0.0000024196
   14   14   18   15        0.0005989267
   14   14   19   15        0.0000063229
   14   14   16   16        0.0684272121
   14   14   17   16       -0.0021792037
   14   14   18   16       -0.0000016776
   14   14   19   16       -0.0000396446
   14   14   17   17        0.0625080725
   14   14   18   17        0.0000095250
   14   14   19   17       -0.0001943569
   14   14   18   18        0.0677455087
   14   14   19   18       -0.0000368859
   14   14   19   19        0.0632526682
   15   14   15   14        0.0033453217
   15   14   16   14        0.0000201781
   15   14   17   14       -0.0000074833
   15   14   18   14        0.0005969190
   15   14   19   14        0.0000016494
   15   14   15   15        0.0004842068
   15   14   16   15       -0.0000156394
   15   14   17   15        0.0000068430
   15   14   18   15        0.0002585063
   15   14   19   15        0.0000101522
   15   14   16   16       -0.0000000009
   15   14   17   16        0.0000000003
   15   14   18   16       -0.0000063034
   15   14   19   16       -0.0000954418
   15   14   17   17       -0.0000000011
   15   14   18   17        0.0000159235
   15   14   19   17       -0.0004689903
   15   14   18   18       -0.0011743372
   15   14   19   18        0.0000141787
   15   14   19   19       -0.0000003929
   16   14   16   14        0.0038723950
   16   14   17   14       -0.0010673396
   16   14   18   14       -0.0000006617
   16   14   19   14        0.0001452610
   16   14   15   15       -0.0000194861
   16   14   16   15        0.0000000339
   16   14   17   15       -0.0000000157
   16   14   18   15        0.0000042239
   16   14   19   15        0.0003508114
   16   14   16   16       -0.0000194640
   16   14   17   16        0.0000010050
   16   14   18   16        0.0002973306
   16   14   19   16       -0.0000031732
   16   14   17   17       -0.0000152314
   16   14   18   17        0.0017236460
   16   14   19   17        0.0000200837
   16   14   18   18        0.0000111608
   16   14   19   18       -0.0003389670
   16   14   19   19       -0.0000094624
   17   14   17   14        0.0014428647
   17   14   18   14        0.0000010625
   17   14   19   14       -0.0003181755
   17   14   15   15        0.0000078312
   17   14   16   15       -0.0000000175
   17   14   17   15        0.0000000191
   17   14   18   15       -0.0000027354
   17   14   19   15       -0.0007672453
   17   14   16   16        0.0000058375
   17   14   17   16       -0.0000018092
   17   14   18   16        0.0004298527
   17   14   19   16        0.0000021306
   17   14   17   17        0.0000025358
   17   14   18   17       -0.0006208766
   17   14   19   17       -0.0000069841
   17   14   18   18       -0.0000062695
   17   14   19   18        0.0000836407
   17   14   19   19        0.0000014407
   18   14   18   14        0.0042792101
   18   14   19   14       -0.0000160949
   18   14   15   15        0.0010775524
   18   14   16   15       -0.0000145276
   18   14   17   15        0.0000154893
   18   14   18   15       -0.0001576554
   18   14   19   15        0.0000071526
   18   14   16   16       -0.0002895679
   18   14   17   16        0.0011675648
   18   14   18   16        0.0000009583
   18   14   19   16       -0.0000617918
   18   14   17   17       -0.0035593632
   18   14   18   17       -0.0000042501
   18   14   19   17       -0.0000102999
   18   14   18   18       -0.0044277132
   18   14   19   18        0.0000111714
   18   14   19   19       -0.0018495904
   19   14   19   14        0.0017623386
   19   14   15   15       -0.0000128495
   19   14   16   15        0.0003506278
   19   14   17   15       -0.0007671770
   19   14   18   15        0.0000047566
   19   14   19   15       -0.0000000439
   19   14   16   16       -0.0000298403
   19   14   17   16        0.0000064252
   19   14   18   16       -0.0001455409
   19   14   19   16       -0.0000004620
   19   14   17   17       -0.0000093821
   19   14   18   17        0.0000169186
   19   14   19   17        0.0000016196
   19   14   18   18        0.0000011331
   19   14   19   18       -0.0001354558
   19   14   19   19       -0.0000055933
   15   15   15   15        0.0805050411
   15   15   16   15       -0.0000493467
   15   15   17   15        0.0000209727
   15   15   18   15       -0.0005988135
   15   15   19   15       -0.0000019048
   15   15   16   16        0.0684283947
   15   15   17   16       -0.0021808903
   15   15   18   16        0.0000044483
   15   15   19   16        0.0000395391
   15   15   17   17        0.0625151712
   15   15   18   17       -0.0000175260
   15   15   19   17        0.0001947341
   15   15   18   18        0.0611486477
   15   15   19   18        0.0000250131
   15   15   19   19        0.0632552686
   16   15   16   15        0.0038724730
   16   15   17   15       -0.0010694942
   16   15   18   15        0.0000028374
   16   15   19   15       -0.0001457176
   16   15   16   16       -0.0000977438
   16   15   17   16        0.0000050568
   16   15   18   16        0.0000002621
   16   15   19   16        0.0000006663
   16   15   17   17       -0.0000764572
   16   15   18   17        0.0000015713
   16   15   19   17       -0.0000038020
   16   15   18   18       -0.0000054285
   16   15   19   18       -0.0008153904
   16   15   19   19       -0.0000465088
   17   15   17   15        0.0014444179
   17   15   18   15       -0.0000038320
   17   15   19   15        0.0003183456
   17   15   16   16        0.0000293486
   17   15   17   16       -0.0000090722
   17   15   18   16        0.0000003815
   17   15   19   16       -0.0000003748
   17   15   17   17        0.0000127658
   17   15   18   17       -0.0000005824
   17   15   19   17        0.0000013230
   17   15   18   18       -0.0000137104
   17   15   19   18        0.0002023577
   17   15   19   19        0.0000069769
   18   15   18   15        0.0009827554
   18   15   19   15        0.0000073757
   18   15   16   16       -0.0000002558
   18   15   17   16        0.0000010353
   18   15   18   16        0.0000012687
   18   15   19   16       -0.0001486213
   18   15   17   17       -0.0000031570
   18   15   18   17       -0.0000070835
   18   15   19   17       -0.0000254775
   18   15   18   18        0.0007773041
   18   15   19   18       -0.0000046315
   18   15   19   19       -0.0000014905
   19   15   19   15        0.0017626946
   19   15   16   16        0.0000059096
   19   15   17   16       -0.0000011456
   19   15   18   16       -0.0003500647
   19   15   19   16       -0.0000020074
   19   15   17   17        0.0000014609
   19   15   18   17        0.0000417166
   19   15   19   17        0.0000081331
   19   15   18   18        0.0000033120
   19   15   19   18       -0.0000000928
   19   15   19   19        0.0000008523
   16   16   16   16        0.0704095591
   16   16   17   16       -0.0021937201
   16   16   18   16        0.0000012414
   16   16   19   16        0.0000000008
   16   16   17   17        0.0636989138
   16   16   18   17       -0.0000124585
   16   16   19   17       -0.0000000074
   16   16   18   18        0.0619949190
   16   16   19   18        0.0000116304
   16   16   19   19        0.0599006466
   17   16   17   16        0.0025807281
   17   16   18   16       -0.0000027710
   17   16   19   16       -0.0000000016
   17   16   17   17       -0.0018898952
   17   16   18   17        0.0000015094
   17   16   19   17        0.0000000009
   17   16   18   18       -0.0014752406
   17   16   19   18       -0.0000006575
   17   16   19   19       -0.0010142095
   18   16   18   16        0.0010956175
   18   16   19   16        0.0000004114
   18   16   17   17        0.0000023055
   18   16   18   17       -0.0002334778
   18   16   19   17       -0.0000014275
   18   16   18   18       -0.0000007381
   18   16   19   18        0.0000072275
   18   16   19   19        0.0000007370
   19   16   19   16        0.0006116391
   19   16   17   17        0.0000000013
   19   16   18   17        0.0000000701
   19   16   19   17        0.0000782537
   19   16   18   18       -0.0000134904
   19   16   19   18       -0.0000000905
   19   16   19   19        0.0000000003
   17   17   17   17        0.0740625420
   17   17   18   17       -0.0000230117
   17   17   19   17       -0.0000000132
   17   17   18   18        0.0674590642
   17   17   19   18        0.0000265379
   17   17   19   19        0.0629258669
   18   17   18   17        0.0040367103
   18   17   19   17        0.0000224596
   18   17   18   18        0.0000162483
   18   17   19   18       -0.0005633527
   18   17   19   19       -0.0000074782
   19   17   19   17        0.0036279634
   19   17   18   18        0.0000330457
   19   17   19   18       -0.0000034642
   19   17   19   19       -0.0000000077
   18   18   18   18        0.0760852224
   18   18   19   18       -0.0000627071
   18   18   19   19        0.0640770572
   19   18   19   18        0.0030575075
   19   18   19   19       -0.0000579494
   19   19   19   19        0.0649120898
 end_two_electron_integrals


 output epsi filename:./pspw_hf_LiH.emovecs

 Total PSPW energy     :  -0.6555685202E+00


=== Spin Contamination ===

 <Sexact^2> =    0.0000000000000000     
 <S^2>      =    0.0000000000000000     



== Center of Charge ==

spin up     (    0.0000,    0.0000,    4.0193 )
spin down   (    0.0000,    0.0000,    4.0193 )
     total  (    0.0000,    0.0000,    4.0193 )
ionic       (    0.0000,    0.0000,    1.6535 )


== Molecular Dipole wrt Center of Mass ==

mu   =  (   -0.0000,   -0.0000,   -4.7316 ) au
|mu| =     4.7316 au,      12.0258 Debye

 output psi filename:./pspw_hf_LiH.movecs

 Writing Crystallographic Information File:./LiH.cif
   - cell not shifted (nwpw:cif_shift_cell .false.)


== Timing ==

cputime in seconds
  prologue    :   0.893798E+02
  main loop   :   0.187666E+04
  epilogue    :   0.790600E-01
  total       :   0.196612E+04
  cputime/step:   0.910998E+01       (     206 evalulations,      88 linesearches)


Time spent doing                        total          step       percent
  total time                 :   0.196613E+04  0.954430E+01       100.0 %
  i/o time                   :   0.230619E+01  0.111951E-01         0.1 %
  FFTs                       :   0.153520E+04  0.745244E+01        78.1 %
  dot products               :   0.106950E+02  0.519173E-01         0.5 %
  geodesic                   :   0.150123E+00  0.728755E-03         0.0 %
  ffm_dgemm                  :   0.372676E-01  0.180911E-03         0.0 %
  fmf_dgemm                  :   0.633738E-01  0.307640E-03         0.0 %
  mmm_dgemm                  :   0.487844E-02  0.236818E-04         0.0 %
  m_diagonalize              :   0.203965E-02  0.990122E-05         0.0 %
  local pseudopotentials     :   0.591762E-02  0.287263E-04         0.0 %
  non-local pseudopotentials :   0.561788E+01  0.272713E-01         0.3 %
  structure factors          :   0.106672E+01  0.517825E-02         0.1 %
  phase factors              :   0.164460E-04  0.798350E-07         0.0 %
  masking and packing        :   0.639195E+02  0.310289E+00         3.3 %
  queue fft                  :   0.239859E+01  0.116437E-01         0.1 %
  queue fft (serial)         :   0.877403E+00  0.425924E-02         0.0 %
  queue fft (message passing):   0.142954E+01  0.693950E-02         0.1 %
  HFX potential              :   0.139610E+04  0.677719E+01        71.0 %
  non-local psp FFM          :   0.445417E+01  0.216222E-01         0.2 %
  non-local psp FMF          :   0.273039E+00  0.132543E-02         0.0 %
  non-local psp FFM A        :   0.573004E+00  0.278157E-02         0.0 %
  non-local psp FFM B        :   0.467282E+00  0.226836E-02         0.0 %

== HFX Counters ==
  HFX Evalulations         =   206
  Lin ACE HFX Evalulations =     0


     >>>  JOB COMPLETED     AT Mon May  5 04:44:42 2025  <<<

 Task  times  cpu:     1847.0s     wall:     1966.1s


                                NWChem Input Module
                                -------------------


 Summary of allocated global arrays
-----------------------------------
  No active global arrays


MA_summarize_allocated_blocks: starting scan ...
MA_summarize_allocated_blocks: scan completed: 0 heap blocks, 0 stack blocks
MA usage statistics:

	allocation statistics:
					      heap	     stack
					      ----	     -----
	current number of blocks	         0	         0
	maximum number of blocks	       315	        19
	current total bytes		         0	         0
	maximum total bytes		 127233608	  29399000
	maximum total K-bytes		    127234	     29399
	maximum total M-bytes		       128	        30


                                     CITATION
                                     --------
                Please cite the following reference when publishing
                           results obtained with NWChem:

          E. Apra, E. J. Bylaska, W. A. de Jong, N. Govind, K. Kowalski,
       T. P. Straatsma, M. Valiev, H. J. J. van Dam, Y. Alexeev, J. Anchell,
       V. Anisimov, F. W. Aquino, R. Atta-Fynn, J. Autschbach, N. P. Bauman,
     J. C. Becca, D. E. Bernholdt, K. Bhaskaran-Nair, S. Bogatko, P. Borowski,
         J. Boschen, J. Brabec, A. Bruner, E. Cauet, Y. Chen, G. N. Chuev,
      C. J. Cramer, J. Daily, M. J. O. Deegan, T. H. Dunning Jr., M. Dupuis,
   K. G. Dyall, G. I. Fann, S. A. Fischer, A. Fonari, H. Fruchtl, L. Gagliardi,
      J. Garza, N. Gawande, S. Ghosh, K. Glaesemann, A. W. Gotz, J. Hammond,
       V. Helms, E. D. Hermes, K. Hirao, S. Hirata, M. Jacquelin, L. Jensen,
   B. G. Johnson, H. Jonsson, R. A. Kendall, M. Klemm, R. Kobayashi, V. Konkov,
      S. Krishnamoorthy, M. Krishnan, Z. Lin, R. D. Lins, R. J. Littlefield,
      A. J. Logsdail, K. Lopata, W. Ma, A. V. Marenich, J. Martin del Campo,
   D. Mejia-Rodriguez, J. E. Moore, J. M. Mullin, T. Nakajima, D. R. Nascimento,
    J. A. Nichols, P. J. Nichols, J. Nieplocha, A. Otero-de-la-Roza, B. Palmer,
    A. Panyala, T. Pirojsirikul, B. Peng, R. Peverati, J. Pittner, L. Pollack,
   R. M. Richard, P. Sadayappan, G. C. Schatz, W. A. Shelton, D. W. Silverstein,
   D. M. A. Smith, T. A. Soares, D. Song, M. Swart, H. L. Taylor, G. S. Thomas,
            V. Tipparaju, D. G. Truhlar, K. Tsemekhman, T. Van Voorhis,
      A. Vazquez-Mayagoitia, P. Verma, O. Villa, A. Vishnu, K. D. Vogiatzis,
        D. Wang, J. H. Weare, M. J. Williamson, T. L. Windus, K. Wolinski,
        A. T. Wong, Q. Wu, C. Yang, Q. Yu, M. Zacharias, Z. Zhang, Y. Zhao,
                                and R. J. Harrison
                        "NWChem: Past, present, and future
                         J. Chem. Phys. 152, 184102 (2020)
                               doi:10.1063/5.0004997

                                      AUTHORS
                                      -------
  E. Apra, E. J. Bylaska, N. Govind, K. Kowalski, M. Valiev, D. Mejia-Rodriguez,
       A. Kunitsa, N. P. Bauman, A. Panyala, W. A. de Jong, T. P. Straatsma,
   H. J. J. van Dam, D. Wang, T. L. Windus, J. Hammond, J. Autschbach, A. Woods,
    K. Bhaskaran-Nair, J. Brabec, K. Lopata, S. A. Fischer, S. Krishnamoorthy,
     M. Jacquelin, W. Ma, M. Klemm, O. Villa, Y. Chen, V. Anisimov, F. Aquino,
     S. Hirata, M. T. Hackler, E. Hermes, L. Jensen, J. E. Moore, J. C. Becca,
      V. Konjkov, T. Risthaus, M. Malagoli, A. Marenich, A. Otero-de-la-Roza,
        J. Mullin, P. Nichols, R. Peverati, J. Pittner, Y. Zhao, P.-D. Fan,
        A. Fonari, M. J. Williamson, R. J. Harrison, J. R. Rehr, M. Dupuis,
     D. Silverstein, D. M. A. Smith, J. Nieplocha, V. Tipparaju, M. Krishnan,
     B. E. Van Kuiken, A. Vazquez-Mayagoitia, M. Swart, Q. Wu, T. Van Voorhis,
     A. A. Auer, M. Nooijen, L. D. Crosby, E. Brown, G. Cisneros, G. I. Fann,
   H. Fruchtl, J. Garza, K. Hirao, R. A. Kendall, J. A. Nichols, K. Tsemekhman,
    K. Wolinski, J. Anchell, D. E. Bernholdt, P. Borowski, T. Clark, D. Clerc,
   H. Dachsel, M. J. O. Deegan, K. Dyall, D. Elwood, E. Glendening, M. Gutowski,
   A. C. Hess, J. Jaffe, B. G. Johnson, J. Ju, R. Kobayashi, R. Kutteh, Z. Lin,
   R. Littlefield, X. Long, B. Meng, T. Nakajima, S. Niu, L. Pollack, M. Rosing,
   K. Glaesemann, G. Sandrone, M. Stave, H. Taylor, G. Thomas, J. H. van Lenthe,
                               A. T. Wong, Z. Zhang.

 Total times  cpu:     1847.0s     wall:     1966.2s
