 argument  1 = ../data/PW_LiH_data/3x3_aperiodic/NWChem/18nocovo/H1Li1-1.5.nw



============================== echo of input deck ==============================
title "swnc: e theory=pspw4 xc=pbe formula=LiH charge=0 mult=1"
#machinejob:expert

echo

start pspw_hf_LiH

memory heap 1200 mb stack 2400 mb global 400 mb

charge 0

geometry
Li    0.00000    0.00000   -0.75000
H     0.00000    0.00000    0.75000
end

nwpw
  ### pseudopotential block begin ###
  ### pseudopotential block end   ###
  simulation_cell
     SC 28.345889835
     boundary_conditions aperiodic
  end

  cutoff 50.0
  mult 1
  xc hf
  lmbfgs
  tolerances 1.0e-9 1.0e-9

  virtual 18
end
set nwpw:cif_filename LiH

#set nwpw:CI_maxit_orb 15
#set nwpw:CI_maxit_linesearch 15

set nwpw:2qintegrals .true.
#set nwpw:3x3_virtual .true.

task pspw energy
================================================================================


                                         
                                         


             Northwest Computational Chemistry Package (NWChem) 7.2.3
             --------------------------------------------------------


                    Environmental Molecular Sciences Laboratory
                       Pacific Northwest National Laboratory
                                Richland, WA 99352

                              Copyright (c) 1994-2022
                       Pacific Northwest National Laboratory
                            Battelle Memorial Institute

             NWChem is an open-source computational chemistry package
                        distributed under the terms of the
                      Educational Community License (ECL) 2.0
             A copy of the license is included with this distribution
                              in the LICENSE.TXT file

                                  ACKNOWLEDGMENT
                                  --------------

            This software and its documentation were developed at the
            EMSL at Pacific Northwest National Laboratory, a multiprogram
            national laboratory, operated for the U.S. Department of Energy
            by Battelle under Contract Number DE-AC05-76RL01830. Support
            for this work was provided by the Department of Energy Office
            of Biological and Environmental Research, Office of Basic
            Energy Sciences, and the Office of Advanced Scientific Computing.


           Job information
           ---------------

    hostname        = mqs-al
    program         = nwchem
    date            = Mon May  5 01:03:10 2025

    compiled        = Thu_Oct_31_08:55:15_2024
    source          = /home/conda/feedstock_root/build_artifacts/nwchem_1730356057992/work
    nwchem branch   = 7.2.3
    nwchem revision = c400b04
    ga revision     = 5.8.0
    use scalapack   = T
    input           = ../data/PW_LiH_data/3x3_aperiodic/NWChem/18nocovo/H1Li1-1.5.nw
    prefix          = pspw_hf_LiH.
    data base       = ./pspw_hf_LiH.db
    status          = startup
    nproc           =       24
    time left       =     -1s



           Memory information
           ------------------

    heap     =  157286400 doubles =   1200.0 Mbytes
    stack    =  314572797 doubles =   2400.0 Mbytes
    global   =   52428800 doubles =    400.0 Mbytes (distinct from heap & stack)
    total    =  524287997 doubles =   4000.0 Mbytes
    verify   = yes
    hardfail = no 


           Directory information
           ---------------------

  0 permanent = .
  0 scratch   = .




                                NWChem Input Module
                                -------------------


              swnc: e theory=pspw4 xc=pbe formula=LiH charge=0 mult=1
              -------------------------------------------------------

 Scaling coordinates for geometry "geometry" by  1.889725989
 (inverse scale =  0.529177249)

  zeroes
  zeroes
  zeroes
  zeroes
  zeroes
  zeroes
  zeroes
  zeroes
  zeroes
  zeroes
  zeroes
  zeroes
  zeroes
  zeroes
  zeroes
  zeroes
  zeroes
  zeroes
  zeroes
  zeroes
  zeroes
  zeroes
  zeroes
  zeroes
  zeroes
  zeroes
  zeroes
  zeroes
  zeroes
  zeroes
  zeroes
  zeroes
  zeroes
  zeroes
  zeroes
  zeroes
  zeroes
  zeroes
  zeroes
  zeroes
  zeroes
  zeroes
  zeroes
  zeroes
  zeroes
  zeroes
  zeroes
  zeroes
 ORDER OF PRIMARY AXIS IS BEING SET TO 4
 C4V symmetry detected

          ------
          auto-z
          ------
  no constraints, skipping    0.0000000000000000     
  no constraints, skipping    0.0000000000000000     


                             Geometry "geometry" -> ""
                             -------------------------

 Output coordinates in angstroms (scale by  1.889725989 to convert to a.u.)

  No.       Tag          Charge          X              Y              Z
 ---- ---------------- ---------- -------------- -------------- --------------
    1 Li                   3.0000     0.00000000     0.00000000    -0.37500000
    2 H                    1.0000     0.00000000     0.00000000     1.12500000

      Atomic Mass 
      ----------- 

      Li                 7.016000
      H                  1.007825


 Effective nuclear repulsion energy (a.u.)       1.0583544980

            Nuclear Dipole moment (a.u.) 
            ----------------------------
        X                 Y               Z
 ---------------- ---------------- ----------------
     0.0000000000     0.0000000000     0.0000000000

      Symmetry information
      --------------------

 Group name             C4v       
 Group number             18
 Group order               8
 No. of unique centers     2

      Symmetry unique atoms

     1    2



                                Z-matrix (autoz)
                                -------- 

 Units are Angstrom for bonds and degrees for angles

      Type          Name      I     J     K     L     M      Value
      ----------- --------  ----- ----- ----- ----- ----- ----------
    1 Stretch                  1     2                       1.50000


            XYZ format geometry
            -------------------
     2
 geometry
 Li                    0.00000000     0.00000000    -0.37500000
 H                     0.00000000     0.00000000     1.12500000

 ==============================================================================
                                internuclear distances
 ------------------------------------------------------------------------------
       center one      |      center two      | atomic units |  angstroms
 ------------------------------------------------------------------------------
    2 H                |   1 Li               |     2.83459  |     1.50000
 ------------------------------------------------------------------------------
                         number of included internuclear distances:          1
 ==============================================================================



          ****************************************************
          *                                                  *
          *               NWPW PSPW Calculation              *
          *                                                  *
          * [ (Grassmann/Stiefel manifold implementation)  ] *
          *                                                  *
          *      [ NorthWest Chemistry implementation ]      *
          *                                                  *
          *            version #5.10   06/12/02              *
          *                                                  *
          *    This code was developed by Eric J. Bylaska,   *
          *    and was based upon algorithms and code        *
          *    developed by the group of Prof. John H. Weare *
          *                                                  *
          ****************************************************
     >>>  JOB STARTED       AT Mon May  5 01:03:10 2025  <<<
          ================ input data ========================

 input psi filename:./pspw_hf_LiH.movecs

 number of processors used:        24
 processor grid           :  24 x   1
 parallel mapping         :2d-hilbert
 parallel mapping         :  balanced
 number of threads        :         1
 parallel io              :       off

 options:
      boundary conditions  = aperiodic   (version4)
      electron spin        = restricted
      exchange-correlation = Hartree-Fock
      - HFX relaxed
      - HFX restricted orbitals :    1
      - HFX free-space coulomb solver


 elements involved in the cluster:
      1: Li  valence charge:  1.0000  lmax=  1
             comment    : Hamann pseudopotential
             pseudpotential type            :   0
             highest angular component      :   1
             local potential used           :   1
             number of non-local projections:   1
             aperiodic cutoff radius        :  1.000
             semicore corrections included  :  1.000 (radius)  0.769 (charge)
             cutoff =   1.869   1.551

      2: H   valence charge:  1.0000  lmax=  1
             comment    : Parameterized (Chem.Phys.Lett., vol 322, page 447) Hamman psp
             pseudpotential type            :   0
             highest angular component      :   1
             local potential used           :   1
             number of non-local projections:   1
             aperiodic cutoff radius        :  1.000
             cutoff =   0.800   0.800


 total charge:   0.000

 atomic composition:
     Li  :    1     H   :    1

 number of electrons: spin up=     1 (   1 per task)  down=     1 (   1 per task) (Fourier space)
 number of orbitals : spin up=     1 (   1 per task)  down=     1 (   1 per task) (Fourier space)

 supercell:
      cell_name:  cell_default                                      
      lattice:    a1=<  28.346   0.000   0.000 >
                  a2=<   0.000  28.346   0.000 >
                  a3=<   0.000   0.000  28.346 >
      reciprocal: b1=<   0.222   0.000   0.000 >
                  b2=<   0.000   0.222   0.000 >
                  b3=<   0.000   0.000   0.222 >
      lattice:    a=      28.346 b=     28.346 c=      28.346
                  alpha=  90.000 beta=  90.000 gamma=  90.000
                  omega=     22775.6

      density cutoff=100.000  fft=140x140x140(   544264 waves    22677 per task)
      wavefnc cutoff= 50.000  fft=140x140x140(   192294 waves     8012 per task)

 technical parameters:
      time step=      5.80     fictitious mass=  400000.0
      tolerance=0.100E-08 (energy)   0.100E-08 (density)
      maximum iterations =      1000 (   10 inner    100 outer )





== Energy Calculation ==


          ============ Grassmann lmbfgs iteration ============
     >>>  ITERATION STARTED AT Mon May  5 01:04:39 2025  <<<
    iter.           Energy         DeltaE       DeltaRho 
    ------------------------------------------------------
      10   -0.7418827302E+00   -0.85138E-04    0.11372E-02
      20   -0.7420874796E+00   -0.40376E-05    0.40701E-05
      30   -0.7421013482E+00   -0.36642E-06    0.10100E-06
      40   -0.7421025729E+00   -0.37664E-07    0.41880E-08
      50   -0.7421027209E+00   -0.54031E-08    0.69773E-09
      60   -0.7421027425E+00   -0.95037E-09    0.91570E-10
  *** tolerance ok. iteration terminated
     >>>  ITERATION ENDED   AT Mon May  5 01:05:47 2025  <<<


==  Summary Of Results  ==

 number of electrons: spin up=    1.00000  down=    1.00000 (real space)

 total     energy    :  -0.7421027425E+00 (   -0.37105E+00/ion)
 total orbital energy:  -0.6042430767E+00 (   -0.60424E+00/electron)
 hartree   energy    :   0.9812889971E+00 (    0.98129E+00/electron)
 exc-corr  energy    :   0.0000000000E+00 (    0.00000E+00/electron)
 HF exchange energy  :  -0.4906444985E+00 (   -0.49064E+00/electron)
 ion-ion   energy    :   0.3527848327E+00 (    0.17639E+00/ion)

 kinetic (planewave) :   0.6418280070E+00 (    0.64183E+00/electron)
 V_local (planewave) :  -0.2142023104E+01 (   -0.21420E+01/electron)
 V_nl    (planewave) :  -0.8533697698E-01 (   -0.85337E-01/electron)
 V_Coul  (planewave) :   0.1962577994E+01 (    0.19626E+01/electron)
 V_xc.   (planewave) :   0.0000000000E+00 (    0.00000E+00/electron)
 K.S. HFX energy     :  -0.9812889971E+00 (   -0.98129E+00/electron)
 Virial Coefficient  :  -0.4125436780E+00

 orbital energies:
    -0.3021215E+00 (  -8.221eV)


== Virtual Orbital Calculation ==


 input epsi filename:./pspw_hf_LiH.emovecs
     orbital   1 current e=-0.874E-02 (error=0.942E-09) iterations  83(  17 preconditioned, Ep,Sp= 20.0  200.0)
     orbital   2 current e= 0.934E-02 (error=0.971E-09) iterations  76(  14 preconditioned, Ep,Sp= 20.0  200.0)
     orbital   3 current e= 0.197E-01 (error=0.989E-09) iterations  53(   2 preconditioned, Ep,Sp= 20.0  200.0)
     orbital   4 current e= 0.197E-01 (error=0.946E-09) iterations  66(   2 preconditioned, Ep,Sp= 20.0  200.0)
     orbital   5 current e= 0.230E-01 (error=0.712E-09) iterations  22(   1 preconditioned, Ep,Sp= 20.0  200.0)
     orbital   6 current e= 0.233E-01 (error=0.955E-09) iterations  72(  12 preconditioned, Ep,Sp= 20.0  200.0)
     orbital   7 current e= 0.294E-01 (error=0.997E-09) iterations  61(  11 preconditioned, Ep,Sp= 20.0  200.0)
     orbital   8 current e= 0.379E-01 (error=0.957E-09) iterations  58(   9 preconditioned, Ep,Sp= 20.0  200.0)
     orbital   9 current e= 0.418E-01 (error=0.983E-09) iterations  88(  16 preconditioned, Ep,Sp= 20.0  200.0)
     orbital  10 current e= 0.418E-01 (error=0.217E-08) iterations 121(  16 preconditioned, Ep,Sp= 20.0  200.0)
     orbital  10 current e= 0.418E-01 (error=0.976E-09) iterations   9(   1 preconditioned, Ep,Sp= 20.0  200.0)
     orbital  11 current e= 0.463E-01 (error=0.760E-09) iterations  54(   1 preconditioned, Ep,Sp= 20.0  200.0)
     orbital  12 current e= 0.471E-01 (error=0.882E-09) iterations  70(   1 preconditioned, Ep,Sp= 20.0  200.0)
     orbital  13 current e= 0.471E-01 (error=0.989E-09) iterations  79(  14 preconditioned, Ep,Sp= 20.0  200.0)
     orbital  14 current e= 0.483E-01 (error=0.961E-09) iterations  30(   1 preconditioned, Ep,Sp= 20.0  200.0)
     orbital  15 current e= 0.501E-01 (error=0.869E-09) iterations  36(   1 preconditioned, Ep,Sp= 20.0  200.0)
     orbital  16 current e= 0.524E-01 (error=0.307E-08) iterations 121(   6 preconditioned, Ep,Sp= 20.0  200.0)
     orbital  16 current e= 0.524E-01 (error=0.944E-09) iterations   8(   1 preconditioned, Ep,Sp= 20.0  200.0)
     orbital  17 current e= 0.594E-01 (error=0.892E-09) iterations 100(  27 preconditioned, Ep,Sp= 20.0  200.0)
     orbital  18 current e= 0.685E-01 (error=0.980E-09) iterations 110(   6 preconditioned, Ep,Sp= 20.0  200.0)

 virtual orbital energies:
     0.6852793E-01 (   1.865eV)
     0.5943607E-01 (   1.617eV)
     0.5243376E-01 (   1.427eV)
     0.5006993E-01 (   1.362eV)
     0.4834725E-01 (   1.316eV)
     0.4708955E-01 (   1.281eV)
     0.4707473E-01 (   1.281eV)
     0.4634414E-01 (   1.261eV)
     0.4179846E-01 (   1.137eV)
     0.4179845E-01 (   1.137eV)
     0.3790729E-01 (   1.032eV)
     0.2943378E-01 (   0.801eV)
     0.2328970E-01 (   0.634eV)
     0.2297302E-01 (   0.625eV)
     0.1970731E-01 (   0.536eV)
     0.1970730E-01 (   0.536eV)
     0.9342257E-02 (   0.254eV)
    -0.8736837E-02 (  -0.238eV)


 == Generating One-Electron and Two-Electron Integrals ==

 begin_one_electron_integrals
    1    1        -0.7927660369
    2    1         0.0311729681
    3    1        -0.0172021177
    4    1         0.0000000255
    5    1        -0.0000000074
    6    1        -0.0000000513
    7    1        -0.0152911359
    8    1        -0.0152872793
    9    1        -0.0054749871
   10    1         0.0000000233
   11    1         0.0000000164
   12    1        -0.0000000012
   13    1         0.0000004820
   14    1         0.0152706333
   15    1         0.0000044384
   16    1        -0.0000031446
   17    1         0.0000001089
   18    1         0.0247038561
   19    1         0.0024565670
    2    2        -0.2311786509
    3    2         0.0648343887
    4    2        -0.0000000724
    5    2         0.0000000188
    6    2         0.0000000496
    7    2         0.0286230174
    8    2         0.0230665638
    9    2         0.0273468073
   10    2         0.0000000018
   11    2        -0.0000000495
   12    2         0.0000000036
   13    2        -0.0000009248
   14    2        -0.0221607957
   15    2        -0.0000027691
   16    2         0.0000018031
   17    2        -0.0000000759
   18    2        -0.0232877713
   19    2        -0.0179034209
    3    3        -0.1703698799
    4    3        -0.0000000132
    5    3         0.0000000033
    6    3        -0.0000000166
    7    3        -0.0111786933
    8    3        -0.0022138370
    9    3        -0.0499532084
   10    3        -0.0000000211
   11    3         0.0000000423
   12    3        -0.0000000083
   13    3         0.0000009305
   14    3         0.0159585763
   15    3         0.0000009626
   16    3        -0.0000002222
   17    3        -0.0000000045
   18    3         0.0089395215
   19    3         0.0263779314
    4    4        -0.1594547726
    5    4         0.0000075936
    6    4         0.0000000189
    7    4        -0.0000000165
    8    4         0.0000000313
    9    4         0.0000000170
   10    4         0.0088932054
   11    4        -0.0461771797
   12    4         0.0000034267
   13    4         0.0235665965
   14    4        -0.0000006887
   15    4         0.0000000182
   16    4         0.0000002648
   17    4        -0.0163688425
   18    4         0.0000000296
   19    4         0.0000041049
    5    5        -0.1594794631
    6    5         0.0000000256
    7    5         0.0000000054
    8    5        -0.0000000019
    9    5         0.0000000615
   10    5        -0.0461816814
   11    5        -0.0089600434
   12    5        -0.0000065316
   13    5         0.0120979871
   14    5        -0.0000006677
   15    5         0.0000000660
   16    5        -0.0000006012
   17    5         0.0007582729
   18    5        -0.0000001061
   19    5        -0.0000078577
    6    6        -0.1205644216
    7    6        -0.0000000285
    8    6         0.0000000053
    9    6        -0.0000000349
   10    6         0.0000000345
   11    6         0.0000000108
   12    6        -0.0000000001
   13    6         0.0000000464
   14    6         0.0000012738
   15    6         0.0225214802
   16    6         0.0005189651
   17    6         0.0000000224
   18    6         0.0000002532
   19    6        -0.0000000851
    7    7        -0.1310647720
    8    7        -0.0065091782
    9    7        -0.0076238755
   10    7         0.0000000320
   11    7        -0.0000000322
   12    7        -0.0000000011
   13    7         0.0000009008
   14    7         0.0285415169
   15    7         0.0000007196
   16    7        -0.0000008577
   17    7         0.0000000232
   18    7         0.0098537136
   19    7         0.0026758340
    8    8        -0.1191341705
    9    8        -0.0022171971
   10    8         0.0000000135
   11    8         0.0000000143
   12    8        -0.0000000006
   13    8         0.0000002635
   14    8         0.0060743854
   15    8         0.0000018547
   16    8        -0.0000010524
   17    8         0.0000000067
   18    8         0.0341759966
   19    8         0.0037934169
    9    9        -0.1173156607
   10    9         0.0000000284
   11    9         0.0000000105
   12    9        -0.0000000046
   13    9         0.0000005094
   14    9         0.0082280036
   15    9        -0.0000000639
   16    9         0.0000003236
   17    9         0.0000000392
   18    9        -0.0037247578
   19    9         0.0389028733
   10   10        -0.1336228770
   11   10        -0.0000427025
   12   10        -0.0000041433
   13   10         0.0043026190
   14   10        -0.0000003304
   15   10         0.0000000169
   16   10        -0.0000003697
   17   10         0.0007498692
   18   10        -0.0000001182
   19   10        -0.0000048684
   11   11        -0.1336400603
   12   11         0.0000012304
   13   11         0.0147514269
   14   11        -0.0000004624
   15   11         0.0000001181
   16   11         0.0000000622
   17   11        -0.0032127257
   18   11         0.0000000299
   19   11         0.0000014726
   12   12        -0.1125118614
   13   12        -0.0000000450
   14   12         0.0000000024
   15   12        -0.0000000165
   16   12         0.0000000056
   17   12         0.0000018514
   18   12         0.0000000009
   19   12         0.0000000056
   13   13        -0.1128799119
   14   13         0.0000003980
   15   13        -0.0000000716
   16   13         0.0000000115
   17   13         0.0113381610
   18   13        -0.0000004823
   19   13        -0.0000007062
   14   14        -0.1029265899
   15   14        -0.0000023903
   16   14         0.0000012024
   17   14        -0.0000003612
   18   14        -0.0111425439
   19   14        -0.0099847712
   15   15        -0.0979627833
   16   15        -0.0036773513
   17   15         0.0000000289
   18   15        -0.0000061482
   19   15         0.0000004940
   16   16        -0.0981133022
   17   16         0.0000001440
   18   16         0.0000040632
   19   16        -0.0000006228
   17   17        -0.1073956037
   18   17        -0.0000000559
   19   17         0.0000021599
   18   18        -0.0995634100
   19   18        -0.0035594517
   19   19        -0.0774423696
 end_one_electron_integrals

 begin_two_electron_integrals
    1    1    1    1        0.4906444985
    1    1    2    1       -0.0311786990
    1    1    3    1        0.0172069231
    1    1    4    1       -0.0000000255
    1    1    5    1        0.0000000074
    1    1    6    1        0.0000000513
    1    1    7    1        0.0152928071
    1    1    8    1        0.0152839090
    1    1    9    1        0.0054793032
    1    1   10    1       -0.0000000233
    1    1   11    1       -0.0000000164
    1    1   12    1        0.0000000012
    1    1   13    1       -0.0000004821
    1    1   14    1       -0.0152728045
    1    1   15    1       -0.0000044379
    1    1   16    1        0.0000031442
    1    1   17    1       -0.0000001089
    1    1   18    1       -0.0246984145
    1    1   19    1       -0.0024593384
    1    1    2    2        0.1129723864
    1    1    3    2       -0.0335092231
    1    1    4    2        0.0000000394
    1    1    5    2       -0.0000000103
    1    1    6    2       -0.0000000274
    1    1    7    2       -0.0151737292
    1    1    8    2       -0.0122916983
    1    1    9    2       -0.0141770465
    1    1   10    2       -0.0000000006
    1    1   11    2        0.0000000274
    1    1   12    2       -0.0000000020
    1    1   13    2        0.0000004926
    1    1   14    2        0.0119750643
    1    1   15    2        0.0000016153
    1    1   16    2       -0.0000010679
    1    1   17    2        0.0000000457
    1    1   18    2        0.0128698923
    1    1   19    2        0.0092727324
    1    1    3    3        0.0905793615
    1    1    4    3        0.0000000091
    1    1    5    3       -0.0000000021
    1    1    6    3        0.0000000097
    1    1    7    3        0.0061201583
    1    1    8    3        0.0015412498
    1    1    9    3        0.0253462989
    1    1   10    3        0.0000000087
    1    1   11    3       -0.0000000190
    1    1   12    3        0.0000000043
    1    1   13    3       -0.0000004855
    1    1   14    3       -0.0085420032
    1    1   15    3       -0.0000006129
    1    1   16    3        0.0000002038
    1    1   17    3        0.0000000003
    1    1   18    3       -0.0051725530
    1    1   19    3       -0.0134438194
    1    1    4    4        0.0899323534
    1    1    5    4       -0.0000038758
    1    1    6    4       -0.0000000083
    1    1    7    4        0.0000000049
    1    1    8    4       -0.0000000175
    1    1    9    4       -0.0000000054
    1    1   10    4       -0.0045256254
    1    1   11    4        0.0234987440
    1    1   12    4       -0.0000017499
    1    1   13    4       -0.0120339514
    1    1   14    4        0.0000003534
    1    1   15    4       -0.0000000113
    1    1   16    4       -0.0000001354
    1    1   17    4        0.0083856303
    1    1   18    4       -0.0000000148
    1    1   19    4       -0.0000020990
    1    1    5    5        0.0899449637
    1    1    6    5       -0.0000000083
    1    1    7    5       -0.0000000019
    1    1    8    5        0.0000000014
    1    1    9    5       -0.0000000321
    1    1   10    5        0.0235017525
    1    1   11    5        0.0045597763
    1    1   12    5        0.0000033351
    1    1   13    5       -0.0061777429
    1    1   14    5        0.0000003405
    1    1   15    5       -0.0000000389
    1    1   16    5        0.0000003058
    1    1   17    5       -0.0003885421
    1    1   18    5        0.0000000541
    1    1   19    5        0.0000040135
    1    1    6    6        0.0717760414
    1    1    7    6        0.0000000156
    1    1    8    6       -0.0000000019
    1    1    9    6        0.0000000181
    1    1   10    6       -0.0000000127
    1    1   11    6       -0.0000000032
    1    1   12    6        0.0000000001
    1    1   13    6       -0.0000000256
    1    1   14    6       -0.0000006391
    1    1   15    6       -0.0112704752
    1    1   16    6       -0.0002597262
    1    1   17    6       -0.0000000106
    1    1   18    6       -0.0000001279
    1    1   19    6        0.0000000419
    1    1    7    7        0.0776082793
    1    1    8    7        0.0036228702
    1    1    9    7        0.0040512716
    1    1   10    7       -0.0000000158
    1    1   11    7        0.0000000130
    1    1   12    7        0.0000000006
    1    1   13    7       -0.0000004618
    1    1   14    7       -0.0147150438
    1    1   15    7       -0.0000004776
    1    1   16    7        0.0000005101
    1    1   17    7       -0.0000000158
    1    1   18    7       -0.0055336635
    1    1   19    7       -0.0014908672
    1    1    8    8        0.0746543083
    1    1    9    8        0.0012641321
    1    1   10    8       -0.0000000062
    1    1   11    8       -0.0000000095
    1    1   12    8        0.0000000003
    1    1   13    8       -0.0000001396
    1    1   14    8       -0.0034148582
    1    1   15    8       -0.0000010268
    1    1   16    8        0.0000005896
    1    1   17    8       -0.0000000068
    1    1   18    8       -0.0176906499
    1    1   19    8       -0.0019815934
    1    1    9    9        0.0778427330
    1    1   10    9       -0.0000000168
    1    1   11    9       -0.0000000025
    1    1   12    9        0.0000000023
    1    1   13    9       -0.0000002527
    1    1   14    9       -0.0043711753
    1    1   15    9       -0.0000000237
    1    1   16    9       -0.0000001340
    1    1   17    9       -0.0000000195
    1    1   18    9        0.0016176374
    1    1   19    9       -0.0196255221
    1    1   10   10        0.0882151348
    1    1   11   10        0.0000221614
    1    1   12   10        0.0000021609
    1    1   13   10       -0.0022449038
    1    1   14   10        0.0000001723
    1    1   15   10       -0.0000000142
    1    1   16   10        0.0000001917
    1    1   17   10       -0.0004298417
    1    1   18   10        0.0000000622
    1    1   19   10        0.0000025396
    1    1   11   11        0.0882240657
    1    1   12   11       -0.0000006421
    1    1   13   11       -0.0076960619
    1    1   14   11        0.0000002422
    1    1   15   11       -0.0000000627
    1    1   16   11       -0.0000000332
    1    1   17   11        0.0018336121
    1    1   18   11       -0.0000000147
    1    1   19   11       -0.0000007677
    1    1   12   12        0.0794496438
    1    1   13   12        0.0000000234
    1    1   14   12       -0.0000000013
    1    1   15   12        0.0000000082
    1    1   16   12       -0.0000000028
    1    1   17   12       -0.0000009497
    1    1   18   12       -0.0000000005
    1    1   19   12       -0.0000000028
    1    1   13   13        0.0802092401
    1    1   14   13       -0.0000001921
    1    1   15   13        0.0000000393
    1    1   16   13       -0.0000000050
    1    1   17   13       -0.0058167855
    1    1   18   13        0.0000002597
    1    1   19   13        0.0000003588
    1    1   14   14        0.0754734622
    1    1   15   14        0.0000013465
    1    1   16   14       -0.0000007026
    1    1   17   14        0.0000001865
    1    1   18   14        0.0061837532
    1    1   19   14        0.0051608184
    1    1   15   15        0.0731682554
    1    1   16   15        0.0018393419
    1    1   17   15       -0.0000000156
    1    1   18   15        0.0000032087
    1    1   19   15       -0.0000001833
    1    1   16   16        0.0740934740
    1    1   17   16       -0.0000000743
    1    1   18   16       -0.0000021114
    1    1   19   16        0.0000002760
    1    1   17   17        0.0800514498
    1    1   18   17        0.0000000292
    1    1   19   17       -0.0000011103
    1    1   18   18        0.0804983881
    1    1   19   18        0.0019068406
    1    1   19   19        0.0731245772
    2    1    2    1        0.0035029585
    2    1    3    1       -0.0021939086
    2    1    4    1        0.0000000064
    2    1    5    1       -0.0000000018
    2    1    6    1       -0.0000000051
    2    1    7    1       -0.0017218835
    2    1    8    1       -0.0015124085
    2    1    9    1       -0.0010033931
    2    1   10    1        0.0000000004
    2    1   11    1        0.0000000058
    2    1   12    1       -0.0000000003
    2    1   13    1        0.0000000545
    2    1   14    1        0.0017833624
    2    1   15    1        0.0000004531
    2    1   16    1       -0.0000003185
    2    1   17    1        0.0000000144
    2    1   18    1        0.0024444493
    2    1   19    1        0.0006405730
    2    1    2    2        0.0017641943
    2    1    3    2       -0.0011193432
    2    1    4    2        0.0000000376
    2    1    5    2       -0.0000000095
    2    1    6    2        0.0000000006
    2    1    7    2        0.0001323235
    2    1    8    2        0.0002484098
    2    1    9    2       -0.0005119626
    2    1   10    2       -0.0000000067
    2    1   11    2        0.0000000126
    2    1   12    2       -0.0000000000
    2    1   13    2       -0.0000000041
    2    1   14    2       -0.0002081330
    2    1   15    2       -0.0000000976
    2    1   16    2        0.0000000688
    2    1   17    2       -0.0000000038
    2    1   18    2       -0.0004150120
    2    1   19    2        0.0002134872
    2    1    3    3        0.0009079767
    2    1    4    3        0.0000000189
    2    1    5    3       -0.0000000048
    2    1    6    3       -0.0000000003
    2    1    7    3        0.0000080634
    2    1    8    3        0.0006340409
    2    1    9    3        0.0005510191
    2    1   10    3        0.0000000091
    2    1   11    3       -0.0000000187
    2    1   12    3        0.0000000000
    2    1   13    3       -0.0000000091
    2    1   14    3        0.0000838007
    2    1   15    3        0.0000000368
    2    1   16    3       -0.0000000297
    2    1   17    3        0.0000000093
    2    1   18    3       -0.0001420226
    2    1   19    3       -0.0003074105
    2    1    4    4        0.0008778658
    2    1    5    4        0.0000000517
    2    1    6    4        0.0000000059
    2    1    7    4       -0.0000000116
    2    1    8    4        0.0000000043
    2    1    9    4        0.0000000125
    2    1   10    4       -0.0001272746
    2    1   11    4        0.0006585984
    2    1   12    4        0.0000000001
    2    1   13    4        0.0002730179
    2    1   14    4       -0.0000000020
    2    1   15    4       -0.0000000021
    2    1   16    4        0.0000000056
    2    1   17    4       -0.0006520410
    2    1   18    4       -0.0000000003
    2    1   19    4        0.0000000407
    2    1    5    5        0.0008777323
    2    1    6    5        0.0000000224
    2    1    7    5        0.0000000029
    2    1    8    5       -0.0000000010
    2    1    9    5       -0.0000000026
    2    1   10    5        0.0006583082
    2    1   11    5        0.0001269544
    2    1   12    5       -0.0000000628
    2    1   13    5        0.0001404647
    2    1   14    5       -0.0000000092
    2    1   15    5       -0.0000000049
    2    1   16    5        0.0000000017
    2    1   17    5        0.0000314505
    2    1   18    5       -0.0000000012
    2    1   19    5       -0.0000000893
    2    1    6    6        0.0003930015
    2    1    7    6        0.0000000004
    2    1    8    6       -0.0000000017
    2    1    9    6       -0.0000000004
    2    1   10    6        0.0000000191
    2    1   11    6        0.0000000090
    2    1   12    6        0.0000000000
    2    1   13    6        0.0000000039
    2    1   14    6       -0.0000000046
    2    1   15    6        0.0000967264
    2    1   16    6        0.0006749240
    2    1   17    6        0.0000000037
    2    1   18    6       -0.0000000057
    2    1   19    6        0.0000000004
    2    1    7    7        0.0002372520
    2    1    8    7        0.0000199790
    2    1    9    7        0.0000786235
    2    1   10    7        0.0000000027
    2    1   11    7       -0.0000000065
    2    1   12    7        0.0000000000
    2    1   13    7        0.0000000200
    2    1   14    7       -0.0001722673
    2    1   15    7       -0.0000000424
    2    1   16    7        0.0000000262
    2    1   17    7        0.0000000000
    2    1   18    7       -0.0002299806
    2    1   19    7       -0.0001613947
    2    1    8    8       -0.0002961677
    2    1    9    8        0.0003410002
    2    1   10    8       -0.0000000012
    2    1   11    8        0.0000000042
    2    1   12    8        0.0000000001
    2    1   13    8        0.0000000106
    2    1   14    8        0.0001596875
    2    1   15    8        0.0000000748
    2    1   16    8       -0.0000000597
    2    1   17    8       -0.0000000360
    2    1   18    8        0.0004902601
    2    1   19    8       -0.0001182551
    2    1    9    9        0.0004186184
    2    1   10    9       -0.0000000079
    2    1   11    9        0.0000000170
    2    1   12    9        0.0000000000
    2    1   13    9       -0.0000000096
    2    1   14    9       -0.0000140545
    2    1   15    9       -0.0000000172
    2    1   16    9        0.0000000017
    2    1   17    9        0.0000000074
    2    1   18    9       -0.0007010624
    2    1   19    9       -0.0003573105
    2    1   10   10        0.0006421562
    2    1   11   10       -0.0000003603
    2    1   12   10       -0.0000000278
    2    1   13   10        0.0000196395
    2    1   14   10       -0.0000000061
    2    1   15   10       -0.0000000111
    2    1   16   10        0.0000000080
    2    1   17   10       -0.0000494454
    2    1   18   10       -0.0000000006
    2    1   19   10       -0.0000000187
    2    1   11   11        0.0006417614
    2    1   12   11        0.0000000211
    2    1   13   11        0.0000676505
    2    1   14   11        0.0000000089
    2    1   15   11       -0.0000000054
    2    1   16   11        0.0000000050
    2    1   17   11        0.0002016817
    2    1   18   11       -0.0000000014
    2    1   19   11       -0.0000000014
    2    1   12   12        0.0006325625
    2    1   13   12        0.0000000108
    2    1   14   12       -0.0000000000
    2    1   15   12       -0.0000000001
    2    1   16   12        0.0000000000
    2    1   17   12        0.0000000312
    2    1   18   12       -0.0000000001
    2    1   19   12       -0.0000000001
    2    1   13   13        0.0002543311
    2    1   14   13        0.0000000108
    2    1   15   13        0.0000000116
    2    1   16   13        0.0000000020
    2    1   17   13        0.0001217133
    2    1   18   13       -0.0000000030
    2    1   19   13        0.0000000146
    2    1   14   14        0.0003503622
    2    1   15   14        0.0000000788
    2    1   16   14       -0.0000000456
    2    1   17   14        0.0000000047
    2    1   18   14       -0.0000371309
    2    1   19   14        0.0001168830
    2    1   15   15        0.0001760648
    2    1   16   15       -0.0000338075
    2    1   17   15       -0.0000000008
    2    1   18   15       -0.0000001248
    2    1   19   15        0.0000000576
    2    1   16   16       -0.0002069739
    2    1   17   16       -0.0000000011
    2    1   18   16        0.0000000916
    2    1   19   16       -0.0000000310
    2    1   17   17       -0.0004674239
    2    1   18   17       -0.0000000007
    2    1   19   17        0.0000000205
    2    1   18   18       -0.0006253690
    2    1   19   18        0.0002213320
    2    1   19   19        0.0002921176
    3    1    3    1        0.0014465863
    3    1    4    1        0.0000000040
    3    1    5    1       -0.0000000009
    3    1    6    1        0.0000000029
    3    1    7    1        0.0010718671
    3    1    8    1        0.0008744245
    3    1    9    1        0.0007408126
    3    1   10    1       -0.0000000038
    3    1   11    1        0.0000000042
    3    1   12    1        0.0000000002
    3    1   13    1       -0.0000000392
    3    1   14    1       -0.0011246959
    3    1   15    1       -0.0000002629
    3    1   16    1        0.0000001830
    3    1   17    1       -0.0000000038
    3    1   18    1       -0.0014019643
    3    1   19    1       -0.0005083777
    3    1    2    2       -0.0021702100
    3    1    3    2        0.0014624672
    3    1    4    2        0.0000000539
    3    1    5    2       -0.0000000136
    3    1    6    2       -0.0000000002
    3    1    7    2        0.0000553741
    3    1    8    2       -0.0000606630
    3    1    9    2        0.0007542883
    3    1   10    2       -0.0000000062
    3    1   11    2        0.0000000145
    3    1   12    2        0.0000000001
    3    1   13    2       -0.0000000109
    3    1   14    2        0.0000057318
    3    1   15    2        0.0000000575
    3    1   16    2       -0.0000000438
    3    1   17    2        0.0000000046
    3    1   18    2        0.0001560086
    3    1   19    2       -0.0004109972
    3    1    3    3       -0.0011952266
    3    1    4    3        0.0000000300
    3    1    5    3       -0.0000000075
    3    1    6    3       -0.0000000000
    3    1    7    3       -0.0001568000
    3    1    8    3       -0.0006857886
    3    1    9    3       -0.0007650666
    3    1   10    3        0.0000000135
    3    1   11    3       -0.0000000295
    3    1   12    3       -0.0000000001
    3    1   13    3        0.0000000039
    3    1   14    3        0.0000681797
    3    1   15    3       -0.0000000151
    3    1   16    3        0.0000000171
    3    1   17    3        0.0000000134
    3    1   18    3        0.0002730730
    3    1   19    3        0.0004853157
    3    1    4    4       -0.0009651622
    3    1    5    4       -0.0000000242
    3    1    6    4        0.0000000084
    3    1    7    4       -0.0000000203
    3    1    8    4        0.0000000025
    3    1    9    4        0.0000000158
    3    1   10    4        0.0001522666
    3    1   11    4       -0.0007884024
    3    1   12    4       -0.0000000858
    3    1   13    4       -0.0001753983
    3    1   14    4        0.0000000114
    3    1   15    4       -0.0000000028
    3    1   16    4       -0.0000000013
    3    1   17    4        0.0005305747
    3    1   18    4        0.0000000005
    3    1   19    4       -0.0000000387
    3    1    5    5       -0.0009651433
    3    1    6    5        0.0000000343
    3    1    7    5        0.0000000051
    3    1    8    5       -0.0000000007
    3    1    9    5       -0.0000000042
    3    1   10    5       -0.0007881972
    3    1   11    5       -0.0001521569
    3    1   12    5        0.0000000613
    3    1   13    5       -0.0000903154
    3    1   14    5        0.0000000033
    3    1   15    5       -0.0000000155
    3    1   16    5        0.0000000084
    3    1   17    5       -0.0000256792
    3    1   18    5        0.0000000008
    3    1   19    5        0.0000000606
    3    1    6    6       -0.0003670856
    3    1    7    6       -0.0000000005
    3    1    8    6        0.0000000013
    3    1    9    6        0.0000000003
    3    1   10    6        0.0000000317
    3    1   11    6        0.0000000146
    3    1   12    6       -0.0000000000
    3    1   13    6        0.0000000047
    3    1   14    6        0.0000000046
    3    1   15    6       -0.0000845754
    3    1   16    6       -0.0006125306
    3    1   17    6        0.0000000043
    3    1   18    6        0.0000000056
    3    1   19    6       -0.0000000003
    3    1    7    7       -0.0003153984
    3    1    8    7       -0.0000751137
    3    1    9    7       -0.0001747161
    3    1   10    7        0.0000000055
    3    1   11    7       -0.0000000108
    3    1   12    7       -0.0000000000
    3    1   13    7        0.0000000596
    3    1   14    7        0.0002724675
    3    1   15    7        0.0000000548
    3    1   16    7       -0.0000000348
    3    1   17    7        0.0000000018
    3    1   18    7        0.0003041436
    3    1   19    7        0.0002253263
    3    1    8    8        0.0001959257
    3    1    9    8       -0.0003692281
    3    1   10    8       -0.0000000047
    3    1   11    8        0.0000000089
    3    1   12    8       -0.0000000001
    3    1   13    8        0.0000000139
    3    1   14    8       -0.0000864622
    3    1   15    8       -0.0000000499
    3    1   16    8        0.0000000426
    3    1   17    8       -0.0000000650
    3    1   18    8       -0.0003272330
    3    1   19    8        0.0001546303
    3    1    9    9       -0.0005877998
    3    1   10    9       -0.0000000116
    3    1   11    9        0.0000000255
    3    1   12    9       -0.0000000001
    3    1   13    9        0.0000000070
    3    1   14    9        0.0001225336
    3    1   15    9        0.0000000228
    3    1   16    9       -0.0000000046
    3    1   17    9        0.0000000052
    3    1   18    9        0.0007099843
    3    1   19    9        0.0004958094
    3    1   10   10       -0.0008186523
    3    1   11   10        0.0000000320
    3    1   12   10       -0.0000000237
    3    1   13   10        0.0000137758
    3    1   14   10       -0.0000000092
    3    1   15   10       -0.0000000176
    3    1   16   10        0.0000000116
    3    1   17   10        0.0000578448
    3    1   18   10        0.0000000016
    3    1   19   10       -0.0000000102
    3    1   11   11       -0.0008184667
    3    1   12   11        0.0000000298
    3    1   13   11        0.0000469683
    3    1   14   11        0.0000000148
    3    1   15   11       -0.0000000077
    3    1   16   11        0.0000000061
    3    1   17   11       -0.0002370764
    3    1   18   11       -0.0000000023
    3    1   19   11       -0.0000000069
    3    1   12   12       -0.0006125204
    3    1   13   12        0.0000000188
    3    1   14   12        0.0000000001
    3    1   15   12        0.0000000000
    3    1   16   12       -0.0000000000
    3    1   17   12        0.0000000013
    3    1   18   12        0.0000000001
    3    1   19   12        0.0000000001
    3    1   13   13       -0.0003144361
    3    1   14   13        0.0000000001
    3    1   15   13        0.0000000167
    3    1   16   13        0.0000000035
    3    1   17   13       -0.0000689181
    3    1   18   13       -0.0000000096
    3    1   19   13       -0.0000000112
    3    1   14   14       -0.0004417047
    3    1   15   14       -0.0000000911
    3    1   16   14        0.0000000542
    3    1   17   14        0.0000000148
    3    1   18   14       -0.0000654583
    3    1   19   14       -0.0002022821
    3    1   15   15       -0.0001724053
    3    1   16   15        0.0000319713
    3    1   17   15       -0.0000000024
    3    1   18   15        0.0000000809
    3    1   19   15       -0.0000000581
    3    1   16   16        0.0001779380
    3    1   17   16       -0.0000000057
    3    1   18   16       -0.0000000619
    3    1   19   16        0.0000000306
    3    1   17   17        0.0003658365
    3    1   18   17        0.0000000057
    3    1   19   17       -0.0000000148
    3    1   18   18        0.0003850506
    3    1   19   18       -0.0002587755
    3    1   19   19       -0.0004162931
    4    1    4    1        0.0007026294
    4    1    5    1       -0.0000001571
    4    1    6    1        0.0000000021
    4    1    7    1       -0.0000000069
    4    1    8    1       -0.0000000036
    4    1    9    1        0.0000000053
    4    1   10    1       -0.0001583584
    4    1   11    1        0.0008221681
    4    1   12    1       -0.0000000733
    4    1   13    1       -0.0005016832
    4    1   14    1        0.0000000183
    4    1   15    1       -0.0000000043
    4    1   16    1       -0.0000000060
    4    1   17    1        0.0004027661
    4    1   18    1       -0.0000000001
    4    1   19    1       -0.0000000905
    4    1    2    2        0.0000026894
    4    1    3    2        0.0000046653
    4    1    4    2        0.0015862974
    4    1    5    2       -0.0000002556
    4    1    6    2        0.0000014437
    4    1    7    2       -0.0000022696
    4    1    8    2        0.0000013860
    4    1    9    2        0.0000006279
    4    1   10    2       -0.0002262376
    4    1   11    2        0.0011731198
    4    1   12    2       -0.0000000610
    4    1   13    2       -0.0003495287
    4    1   14    2        0.0000005954
    4    1   15    2       -0.0000004085
    4    1   16    2        0.0000001211
    4    1   17    2        0.0000915261
    4    1   18    2       -0.0000009353
    4    1   19    2        0.0000006148
    4    1    3    3        0.0000097154
    4    1    4    3       -0.0002021535
    4    1    5    3        0.0000000269
    4    1    6    3        0.0000022166
    4    1    7    3       -0.0000041775
    4    1    8    3        0.0000005573
    4    1    9    3       -0.0000027119
    4    1   10    3        0.0001862983
    4    1   11    3       -0.0009649346
    4    1   12    3       -0.0000000078
    4    1   13    3        0.0000235908
    4    1   14    3       -0.0000009589
    4    1   15    3       -0.0000004901
    4    1   16    3       -0.0000005503
    4    1   17    3        0.0001550702
    4    1   18    3       -0.0000015172
    4    1   19    3        0.0000018252
    4    1    4    4        0.0000022209
    4    1    5    4       -0.0000005605
    4    1    6    4        0.0002490129
    4    1    7    4       -0.0005962029
    4    1    8    4       -0.0001513526
    4    1    9    4        0.0000905580
    4    1   10    4        0.0000015268
    4    1   11    4       -0.0000032603
    4    1   12    4       -0.0010304405
    4    1   13    4       -0.0000015975
    4    1   14    4        0.0004232664
    4    1   15    4       -0.0001394924
    4    1   16    4        0.0000803393
    4    1   17    4       -0.0000017450
    4    1   18    4        0.0002768235
    4    1   19    4       -0.0001218370
    4    1    5    5        0.0000027938
    4    1    6    5        0.0004639168
    4    1    7    5        0.0000001861
    4    1    8    5        0.0000000451
    4    1    9    5       -0.0000000180
    4    1   10    5       -0.0000045138
    4    1   11    5        0.0000000334
    4    1   12    5        0.0005532126
    4    1   13    5       -0.0000007285
    4    1   14    5       -0.0000001022
    4    1   15    5       -0.0002602702
    4    1   16    5        0.0001499140
    4    1   17    5        0.0000005452
    4    1   18    5       -0.0000000784
    4    1   19    5        0.0000000285
    4    1    6    6        0.0000147694
    4    1    7    6       -0.0000009423
    4    1    8    6        0.0000002793
    4    1    9    6        0.0000013899
    4    1   10    6        0.0004846479
    4    1   11    6        0.0003938019
    4    1   12    6       -0.0000000087
    4    1   13    6        0.0000385121
    4    1   14    6        0.0000014112
    4    1   15    6       -0.0000041717
    4    1   16    6       -0.0000002555
    4    1   17    6        0.0001471896
    4    1   18    6       -0.0000008022
    4    1   19    6        0.0000003509
    4    1    7    7        0.0000086932
    4    1    8    7        0.0000006624
    4    1    9    7       -0.0000022797
    4    1   10    7        0.0000977785
    4    1   11    7       -0.0005103118
    4    1   12    7        0.0000001378
    4    1   13    7        0.0009096370
    4    1   14    7        0.0000058792
    4    1   15    7        0.0000023327
    4    1   16    7        0.0000000218
    4    1   17    7       -0.0000873776
    4    1   18    7        0.0000013113
    4    1   19    7        0.0000001004
    4    1    8    8        0.0000115389
    4    1    9    8        0.0000007275
    4    1   10    8        0.0000120645
    4    1   11    8       -0.0000639406
    4    1   12    8        0.0000000430
    4    1   13    8        0.0003109433
    4    1   14    8       -0.0000009061
    4    1   15    8        0.0000006917
    4    1   16    8        0.0000026206
    4    1   17    8       -0.0008753090
    4    1   18    8        0.0000049358
    4    1   19    8        0.0000006421
    4    1    9    9        0.0000125457
    4    1   10    9        0.0000072252
    4    1   11    9       -0.0000372045
    4    1   12    9       -0.0000000079
    4    1   13    9       -0.0000434947
    4    1   14    9        0.0000044219
    4    1   15    9       -0.0000014318
    4    1   16    9        0.0000006452
    4    1   17    9        0.0001408712
    4    1   18    9       -0.0000008193
    4    1   19    9        0.0000013977
    4    1   10   10        0.0000082396
    4    1   11   10       -0.0000011284
    4    1   12   10        0.0000500024
    4    1   13   10        0.0000005647
    4    1   14   10       -0.0001099277
    4    1   15   10       -0.0003388882
    4    1   16   10        0.0002050580
    4    1   17   10       -0.0000008003
    4    1   18   10       -0.0000388751
    4    1   19   10        0.0000056702
    4    1   11   11        0.0000055734
    4    1   12   11       -0.0000616394
    4    1   13   11        0.0000023451
    4    1   14   11        0.0005698891
    4    1   15   11       -0.0002761144
    4    1   16   11        0.0001671155
    4    1   17   11        0.0000014872
    4    1   18   11        0.0002025608
    4    1   19   11       -0.0000296869
    4    1   12   12        0.0000002366
    4    1   13   12        0.0002873636
    4    1   14   12       -0.0000000358
    4    1   15   12       -0.0000000534
    4    1   16   12        0.0000000023
    4    1   17   12        0.0000839632
    4    1   18   12       -0.0000000460
    4    1   19   12        0.0000001513
    4    1   13   13        0.0000038684
    4    1   14   13       -0.0002240474
    4    1   15   13        0.0002740474
    4    1   16   13        0.0000471879
    4    1   17   13        0.0000004724
    4    1   18   13       -0.0003269710
    4    1   19   13        0.0000795669
    4    1   14   14        0.0000128565
    4    1   15   14        0.0000004172
    4    1   16   14       -0.0000002685
    4    1   17   14        0.0002208745
    4    1   18   14       -0.0000001907
    4    1   19   14       -0.0000043271
    4    1   15   15        0.0000154704
    4    1   16   15        0.0000012876
    4    1   17   15       -0.0000929736
    4    1   18   15       -0.0000001057
    4    1   19   15        0.0000015546
    4    1   16   16        0.0000153324
    4    1   17   16       -0.0000963226
    4    1   18   16       -0.0000004264
    4    1   19   16       -0.0000008340
    4    1   17   17        0.0000052747
    4    1   18   17        0.0003823768
    4    1   19   17       -0.0000666968
    4    1   18   18        0.0000127531
    4    1   19   18        0.0000003972
    4    1   19   19        0.0000141887
    5    1    5    1        0.0007031592
    5    1    6    1        0.0000000090
    5    1    7    1        0.0000000017
    5    1    8    1        0.0000000008
    5    1    9    1       -0.0000000026
    5    1   10    1        0.0008225079
    5    1   11    1        0.0001596558
    5    1   12    1        0.0000001388
    5    1   13    1       -0.0002575912
    5    1   14    1        0.0000000133
    5    1   15    1       -0.0000000118
    5    1   16    1        0.0000000104
    5    1   17    1       -0.0000188175
    5    1   18    1        0.0000000020
    5    1   19    1        0.0000001674
    5    1    2    2       -0.0000006768
    5    1    3    2       -0.0000011741
    5    1    4    2       -0.0000001766
    5    1    5    2        0.0015870441
    5    1    6    2        0.0000057454
    5    1    7    2        0.0000005712
    5    1    8    2       -0.0000003488
    5    1    9    2       -0.0000001591
    5    1   10    2        0.0011733421
    5    1   11    2        0.0002272314
    5    1   12    2        0.0000001003
    5    1   13    2       -0.0001793265
    5    1   14    2       -0.0000001374
    5    1   15    2       -0.0000016217
    5    1   16    2        0.0000005045
    5    1   17    2       -0.0000038233
    5    1   18    2        0.0000002367
    5    1   19    2       -0.0000000537
    5    1    3    3       -0.0000024449
    5    1    4    3        0.0000000249
    5    1    5    3       -0.0002023776
    5    1    6    3        0.0000088216
    5    1    7    3        0.0000010513
    5    1    8    3       -0.0000001402
    5    1    9    3        0.0000006827
    5    1   10    3       -0.0009650395
    5    1   11    3       -0.0001864067
    5    1   12    3       -0.0000000046
    5    1   13    3        0.0000119692
    5    1   14    3        0.0000002403
    5    1   15    3       -0.0000019554
    5    1   16    3       -0.0000021924
    5    1   17    3       -0.0000076697
    5    1   18    3        0.0000003819
    5    1   19    3       -0.0000004656
    5    1    4    4       -0.0000018172
    5    1    5    4       -0.0000022039
    5    1    6    4        0.0004638862
    5    1    7    4        0.0000002765
    5    1    8    4        0.0000000447
    5    1    9    4       -0.0000000102
    5    1   10    4        0.0000028820
    5    1   11    4        0.0000034714
    5    1   12    4        0.0005534303
    5    1   13    4        0.0000024508
    5    1   14    4       -0.0000000909
    5    1   15    4       -0.0002601722
    5    1   16    4        0.0001497806
    5    1   17    4        0.0000013301
    5    1   18    4       -0.0000000891
    5    1   19    4        0.0000000262
    5    1    5    5        0.0000005559
    5    1    6    5       -0.0002492197
    5    1    7    5       -0.0005965828
    5    1    8    5       -0.0001516535
    5    1    9    5        0.0000905841
    5    1   10    5       -0.0000015256
    5    1   11    5        0.0000032615
    5    1   12    5        0.0010306190
    5    1   13    5        0.0000016056
    5    1   14    5        0.0004236906
    5    1   15    5        0.0001399240
    5    1   16    5       -0.0000805903
    5    1   17    5        0.0000017459
    5    1   18    5        0.0002770074
    5    1   19    5       -0.0001220286
    5    1    6    6       -0.0000037167
    5    1    7    6       -0.0000037528
    5    1    8    6        0.0000011103
    5    1    9    6        0.0000055318
    5    1   10    6       -0.0003947647
    5    1   11    6        0.0004844236
    5    1   12    6        0.0000000142
    5    1   13    6        0.0000267414
    5    1   14    6        0.0000056225
    5    1   15    6        0.0000010482
    5    1   16    6        0.0000000663
    5    1   17    6        0.0003098641
    5    1   18    6       -0.0000031904
    5    1   19    6        0.0000014445
    5    1    7    7       -0.0000021876
    5    1    8    7       -0.0000001664
    5    1    9    7        0.0000005760
    5    1   10    7       -0.0005099753
    5    1   11    7       -0.0001008419
    5    1   12    7       -0.0000002576
    5    1   13    7        0.0004667465
    5    1   14    7       -0.0000015117
    5    1   15    7        0.0000092893
    5    1   16    7        0.0000000236
    5    1   17    7        0.0000025970
    5    1   18    7       -0.0000003338
    5    1   19    7       -0.0000002894
    5    1    8    8       -0.0000029037
    5    1    9    8       -0.0000001824
    5    1   10    8       -0.0000644216
    5    1   11    8       -0.0000124173
    5    1   12    8       -0.0000000813
    5    1   13    8        0.0001600107
    5    1   14    8        0.0000002170
    5    1   15    8        0.0000027515
    5    1   16    8        0.0000104069
    5    1   17    8        0.0000423606
    5    1   18    8       -0.0000012438
    5    1   19    8       -0.0000002514
    5    1    9    9       -0.0000031574
    5    1   10    9       -0.0000371436
    5    1   11    9       -0.0000071869
    5    1   12    9        0.0000000106
    5    1   13    9       -0.0000223952
    5    1   14    9       -0.0000011124
    5    1   15    9       -0.0000057032
    5    1   16    9        0.0000025690
    5    1   17    9       -0.0000068297
    5    1   18    9        0.0000002055
    5    1   19    9       -0.0000003383
    5    1   10   10        0.0000035655
    5    1   11   10       -0.0000044325
    5    1   12   10        0.0000618872
    5    1   13   10       -0.0000014923
    5    1   14   10        0.0005703661
    5    1   15   10        0.0002757939
    5    1   16   10       -0.0001671669
    5    1   17   10       -0.0000013554
    5    1   18   10        0.0002028815
    5    1   19   10       -0.0000297234
    5    1   11   11       -0.0000070149
    5    1   12   11        0.0000518246
    5    1   13   11       -0.0000036893
    5    1   14   11        0.0001103639
    5    1   15   11       -0.0003383203
    5    1   16   11        0.0002052445
    5    1   17   11       -0.0000015042
    5    1   18   11        0.0000396300
    5    1   19   11       -0.0000058805
    5    1   12   12        0.0000001630
    5    1   13   12       -0.0004164108
    5    1   14   12        0.0000000785
    5    1   15   12        0.0000000759
    5    1   16   12        0.0000000208
    5    1   17   12       -0.0000390096
    5    1   18   12        0.0000000912
    5    1   19   12        0.0000000736
    5    1   13   13       -0.0000064210
    5    1   14   13       -0.0001150421
    5    1   15   13        0.0001890839
    5    1   16   13        0.0000324204
    5    1   17   13       -0.0000007066
    5    1   18   13       -0.0001679601
    5    1   19   13        0.0000408609
    5    1   14   14       -0.0000032192
    5    1   15   14        0.0000017107
    5    1   16   14       -0.0000010495
    5    1   17   14       -0.0000104191
    5    1   18   14        0.0000000606
    5    1   19   14        0.0000011509
    5    1   15   15       -0.0000038888
    5    1   16   15       -0.0000003186
    5    1   17   15       -0.0001944130
    5    1   18   15       -0.0000004097
    5    1   19   15        0.0000065248
    5    1   16   16       -0.0000038587
    5    1   17   16       -0.0002024282
    5    1   18   16       -0.0000016753
    5    1   19   16       -0.0000032648
    5    1   17   17       -0.0000037101
    5    1   18   17       -0.0000181490
    5    1   19   17        0.0000031256
    5    1   18   18       -0.0000032066
    5    1   19   18       -0.0000000057
    5    1   19   19       -0.0000036170
    6    1    6    1        0.0000146399
    6    1    7    1        0.0000000025
    6    1    8    1        0.0000000025
    6    1    9    1        0.0000000011
    6    1   10    1        0.0000000087
    6    1   11    1        0.0000000040
    6    1   12    1        0.0000000000
    6    1   13    1       -0.0000000047
    6    1   14    1       -0.0000000037
    6    1   15    1       -0.0000194754
    6    1   16    1       -0.0000003827
    6    1   17    1        0.0000000010
    6    1   18    1       -0.0000000043
    6    1   19    1       -0.0000000005
    6    1    2    2        0.0000000013
    6    1    3    2       -0.0000000010
    6    1    4    2        0.0000000241
    6    1    5    2        0.0000000969
    6    1    6    2        0.0001065641
    6    1    7    2       -0.0000000005
    6    1    8    2       -0.0000000007
    6    1    9    2       -0.0000000006
    6    1   10    2        0.0000000309
    6    1   11    2        0.0000000143
    6    1   12    2       -0.0000000000
    6    1   13    2       -0.0000000046
    6    1   14    2       -0.0000000038
    6    1   15    2       -0.0000675119
    6    1   16    2        0.0000383208
    6    1   17    2        0.0000000005
    6    1   18    2       -0.0000000003
    6    1   19    2        0.0000000009
    6    1    3    3        0.0000000008
    6    1    4    3        0.0000000126
    6    1    5    3        0.0000000503
    6    1    6    3        0.0000395013
    6    1    7    3        0.0000000004
    6    1    8    3        0.0000000004
    6    1    9    3        0.0000000006
    6    1   10    3       -0.0000000468
    6    1   11    3       -0.0000000217
    6    1   12    3        0.0000000000
    6    1   13    3       -0.0000000101
    6    1   14    3       -0.0000000007
    6    1   15    3       -0.0000142690
    6    1   16    3       -0.0000357219
    6    1   17    3        0.0000000044
    6    1   18    3       -0.0000000002
    6    1   19    3       -0.0000000005
    6    1    4    4        0.0000415284
    6    1    5    4        0.0000773567
    6    1    6    4        0.0000000630
    6    1    7    4       -0.0000000080
    6    1    8    4        0.0000000022
    6    1    9    4        0.0000000083
    6    1   10    4        0.0000988514
    6    1   11    4        0.0000804113
    6    1   12    4        0.0000000276
    6    1   13    4       -0.0000089274
    6    1   14    4        0.0000000042
    6    1   15    4       -0.0000000240
    6    1   16    4        0.0000000151
    6    1   17    4        0.0000216484
    6    1   18    4       -0.0000000004
    6    1   19    4       -0.0000000025
    6    1    5    5       -0.0000415583
    6    1    6    5       -0.0000000159
    6    1    7    5       -0.0000000326
    6    1    8    5        0.0000000084
    6    1    9    5        0.0000000332
    6    1   10    5       -0.0000805027
    6    1   11    5        0.0000988036
    6    1   12    5        0.0000001010
    6    1   13    5       -0.0000061509
    6    1   14    5        0.0000000156
    6    1   15    5        0.0000000059
    6    1   16    5       -0.0000000040
    6    1   17    5        0.0000454795
    6    1   18    5       -0.0000000013
    6    1   19    5       -0.0000000211
    6    1    6    6       -0.0000000001
    6    1    7    6       -0.0000627884
    6    1    8    6       -0.0000132779
    6    1    9    6        0.0000826769
    6    1   10    6       -0.0000000258
    6    1   11    6        0.0000000548
    6    1   12    6       -0.0000000000
    6    1   13    6        0.0000000126
    6    1   14    6        0.0000764686
    6    1   15    6       -0.0000000048
    6    1   16    6        0.0000000021
    6    1   17    6        0.0000000407
    6    1   18    6        0.0000003969
    6    1   19    6       -0.0000407118
    6    1    7    7        0.0000000003
    6    1    8    7        0.0000000004
    6    1    9    7        0.0000000001
    6    1   10    7       -0.0000000199
    6    1   11    7       -0.0000000095
    6    1   12    7       -0.0000000000
    6    1   13    7        0.0000000688
    6    1   14    7        0.0000000062
    6    1   15    7        0.0001168309
    6    1   16    7       -0.0000056141
    6    1   17    7       -0.0000000000
    6    1   18    7        0.0000000008
    6    1   19    7       -0.0000000007
    6    1    8    8        0.0000000000
    6    1    9    8       -0.0000000001
    6    1   10    8        0.0000000131
    6    1   11    8        0.0000000061
    6    1   12    8       -0.0000000000
    6    1   13    8        0.0000000200
    6    1   14    8        0.0000000008
    6    1   15    8        0.0000416855
    6    1   16    8        0.0000924308
    6    1   17    8       -0.0000000204
    6    1   18    8       -0.0000000010
    6    1   19    8        0.0000000001
    6    1    9    9        0.0000000006
    6    1   10    9        0.0000000450
    6    1   11    9        0.0000000208
    6    1   12    9        0.0000000000
    6    1   13    9       -0.0000000075
    6    1   14    9       -0.0000000040
    6    1   15    9       -0.0000682727
    6    1   16    9        0.0000054378
    6    1   17    9        0.0000000026
    6    1   18    9       -0.0000000008
    6    1   19    9       -0.0000000002
    6    1   10   10       -0.0000746418
    6    1   11   10        0.0000624596
    6    1   12   10       -0.0000000580
    6    1   13   10       -0.0000237949
    6    1   14   10        0.0000000288
    6    1   15   10        0.0000000147
    6    1   16   10       -0.0000000131
    6    1   17   10        0.0000177282
    6    1   18   10       -0.0000000062
    6    1   19   10       -0.0000000404
    6    1   11   11        0.0000749023
    6    1   12   11       -0.0000000133
    6    1   13   11       -0.0000541760
    6    1   14   11        0.0000000153
    6    1   15   11       -0.0000000315
    6    1   16   11        0.0000000261
    6    1   17   11        0.0000132001
    6    1   18   11       -0.0000000027
    6    1   19   11       -0.0000000026
    6    1   12   12       -0.0000000000
    6    1   13   12       -0.0000000270
    6    1   14   12       -0.0000000000
    6    1   15   12        0.0000000000
    6    1   16   12       -0.0000000000
    6    1   17   12       -0.0000000003
    6    1   18   12        0.0000000000
    6    1   19   12        0.0000000000
    6    1   13   13        0.0000154769
    6    1   14   13        0.0000000085
    6    1   15   13        0.0000000345
    6    1   16   13        0.0000000073
    6    1   17   13       -0.0000241729
    6    1   18   13       -0.0000000093
    6    1   19   13        0.0000000083
    6    1   14   14       -0.0000000062
    6    1   15   14       -0.0000586141
    6    1   16   14        0.0000031008
    6    1   17   14        0.0000000054
    6    1   18   14       -0.0000000017
    6    1   19   14        0.0000000055
    6    1   15   15        0.0000000124
    6    1   16   15        0.0000000064
    6    1   17   15       -0.0000000179
    6    1   18   15       -0.0000418417
    6    1   19   15        0.0000839107
    6    1   16   16       -0.0000000135
    6    1   17   16       -0.0000000391
    6    1   18   16       -0.0000638399
    6    1   19   16       -0.0000294885
    6    1   17   17        0.0000092907
    6    1   18   17        0.0000000016
    6    1   19   17        0.0000000054
    6    1   18   18        0.0000000013
    6    1   19   18        0.0000000013
    6    1   19   19       -0.0000000004
    7    1    7    1        0.0008620818
    7    1    8    1        0.0007500760
    7    1    9    1        0.0004843219
    7    1   10    1        0.0000000014
    7    1   11    1       -0.0000000064
    7    1   12    1        0.0000000001
    7    1   13    1       -0.0000000246
    7    1   14    1       -0.0008937674
    7    1   15    1       -0.0000002262
    7    1   16    1        0.0000001588
    7    1   17    1       -0.0000000095
    7    1   18    1       -0.0012155064
    7    1   19    1       -0.0003058211
    7    1    2    2       -0.0005188156
    7    1    3    2        0.0002865521
    7    1    4    2       -0.0000000586
    7    1    5    2        0.0000000146
    7    1    6    2       -0.0000000002
    7    1    7    2        0.0000125336
    7    1    8    2       -0.0001516949
    7    1    9    2        0.0001098715
    7    1   10    2        0.0000000085
    7    1   11    2       -0.0000000179
    7    1   12    2       -0.0000000000
    7    1   13    2        0.0000000071
    7    1   14    2        0.0000354147
    7    1   15    2        0.0000000367
    7    1   16    2       -0.0000000244
    7    1   17    2       -0.0000000001
    7    1   18    2        0.0001945875
    7    1   19    2       -0.0000259366
    7    1    3    3       -0.0002538036
    7    1    4    3       -0.0000000319
    7    1    5    3        0.0000000081
    7    1    6    3        0.0000000001
    7    1    7    3        0.0000564544
    7    1    8    3       -0.0002280390
    7    1    9    3       -0.0001460914
    7    1   10    3       -0.0000000140
    7    1   11    3        0.0000000300
    7    1   12    3        0.0000000000
    7    1   13    3        0.0000000122
    7    1   14    3       -0.0000253764
    7    1   15    3       -0.0000000071
    7    1   16    3        0.0000000062
    7    1   17    3       -0.0000000144
    7    1   18    3        0.0000492558
    7    1   19    3        0.0000806307
    7    1    4    4       -0.0003649327
    7    1    5    4        0.0000000161
    7    1    6    4       -0.0000000091
    7    1    7    4        0.0000000248
    7    1    8    4       -0.0000000034
    7    1    9    4       -0.0000000198
    7    1   10    4        0.0000515234
    7    1   11    4       -0.0002670341
    7    1   12    4        0.0000000627
    7    1   13    4       -0.0000093580
    7    1   14    4       -0.0000000069
    7    1   15    4        0.0000000042
    7    1   16    4       -0.0000000024
    7    1   17    4        0.0002677746
    7    1   18    4       -0.0000000005
    7    1   19    4        0.0000000097
    7    1    5    5       -0.0003648979
    7    1    6    5       -0.0000000361
    7    1    7    5       -0.0000000062
    7    1    8    5        0.0000000009
    7    1    9    5        0.0000000050
    7    1   10    5       -0.0002668755
    7    1   11    5       -0.0000517518
    7    1   12    5       -0.0000000154
    7    1   13    5       -0.0000049722
    7    1   14    5        0.0000000020
    7    1   15    5        0.0000000163
    7    1   16    5       -0.0000000084
    7    1   17    5       -0.0000131014
    7    1   18    5        0.0000000002
    7    1   19    5        0.0000000002
    7    1    6    6       -0.0001994445
    7    1    7    6       -0.0000000001
    7    1    8    6        0.0000000008
    7    1    9    6        0.0000000000
    7    1   10    6       -0.0000000332
    7    1   11    6       -0.0000000156
    7    1   12    6       -0.0000000000
    7    1   13    6       -0.0000000030
    7    1   14    6        0.0000000067
    7    1   15    6        0.0000482348
    7    1   16    6       -0.0002798884
    7    1   17    6       -0.0000000054
    7    1   18    6        0.0000000031
    7    1   19    6       -0.0000000005
    7    1    7    7       -0.0000904471
    7    1    8    7       -0.0000430109
    7    1    9    7        0.0000534859
    7    1   10    7       -0.0000000047
    7    1   11    7        0.0000000107
    7    1   12    7       -0.0000000000
    7    1   13    7       -0.0000000481
    7    1   14    7        0.0000036333
    7    1   15    7        0.0000000214
    7    1   16    7       -0.0000000114
    7    1   17    7        0.0000000012
    7    1   18    7        0.0001128865
    7    1   19    7        0.0000024601
    7    1    8    8        0.0001259585
    7    1    9    8       -0.0001317644
    7    1   10    8        0.0000000034
    7    1   11    8       -0.0000000079
    7    1   12    8       -0.0000000000
    7    1   13    8       -0.0000000151
    7    1   14    8       -0.0000354831
    7    1   15    8       -0.0000000410
    7    1   16    8        0.0000000296
    7    1   17    8        0.0000000644
    7    1   18    8       -0.0002547919
    7    1   19    8        0.0000330533
    7    1    9    9       -0.0001202384
    7    1   10    9        0.0000000131
    7    1   11    9       -0.0000000278
    7    1   12    9       -0.0000000000
    7    1   13    9        0.0000000063
    7    1   14    9       -0.0000666087
    7    1   15    9        0.0000000174
    7    1   16    9       -0.0000000061
    7    1   17    9       -0.0000000089
    7    1   18    9        0.0002834792
    7    1   19    9        0.0001152768
    7    1   10   10       -0.0002685467
    7    1   11   10        0.0000001140
    7    1   12   10        0.0000000158
    7    1   13   10       -0.0000031022
    7    1   14   10        0.0000000090
    7    1   15   10        0.0000000208
    7    1   16   10       -0.0000000135
    7    1   17   10        0.0000267839
    7    1   18   10       -0.0000000000
    7    1   19   10       -0.0000000031
    7    1   11   11       -0.0002683059
    7    1   12   11       -0.0000000266
    7    1   13   11       -0.0000108150
    7    1   14   11       -0.0000000189
    7    1   15   11        0.0000000100
    7    1   16   11       -0.0000000066
    7    1   17   11       -0.0001095846
    7    1   18   11        0.0000000011
    7    1   19   11        0.0000000134
    7    1   12   12       -0.0002884679
    7    1   13   12       -0.0000000227
    7    1   14   12        0.0000000000
    7    1   15   12       -0.0000000000
    7    1   16   12        0.0000000000
    7    1   17   12       -0.0000000181
    7    1   18   12        0.0000000000
    7    1   19   12        0.0000000000
    7    1   13   13       -0.0001431500
    7    1   14   13       -0.0000000080
    7    1   15   13       -0.0000000183
    7    1   16   13       -0.0000000037
    7    1   17   13       -0.0000174063
    7    1   18   13        0.0000000045
    7    1   19   13       -0.0000000055
    7    1   14   14       -0.0000901437
    7    1   15   14       -0.0000000346
    7    1   16   14        0.0000000152
    7    1   17   14       -0.0000000133
    7    1   18   14       -0.0000093655
    7    1   19   14        0.0000505835
    7    1   15   15       -0.0001458631
    7    1   16   15       -0.0000015474
    7    1   17   15        0.0000000026
    7    1   18   15        0.0000000695
    7    1   19   15       -0.0000000276
    7    1   16   16        0.0000649473
    7    1   17   16        0.0000000044
    7    1   18   16       -0.0000000480
    7    1   19   16        0.0000000138
    7    1   17   17        0.0001904766
    7    1   18   17       -0.0000000023
    7    1   19   17        0.0000000019
    7    1   18   18        0.0003159466
    7    1   19   18       -0.0000809440
    7    1   19   19       -0.0000857484
    8    1    8    1        0.0007406653
    8    1    9    1        0.0003196045
    8    1   10    1       -0.0000000002
    8    1   11    1       -0.0000000032
    8    1   12    1        0.0000000001
    8    1   13    1       -0.0000000226
    8    1   14    1       -0.0007648456
    8    1   15    1       -0.0000002225
    8    1   16    1        0.0000001594
    8    1   17    1       -0.0000000079
    8    1   18    1       -0.0012142859
    8    1   19    1       -0.0001707608
    8    1    2    2        0.0003844571
    8    1    3    2       -0.0002594580
    8    1    4    2       -0.0000000086
    8    1    5    2        0.0000000019
    8    1    6    2       -0.0000000006
    8    1    7    2       -0.0001626205
    8    1    8    2       -0.0001106550
    8    1    9    2       -0.0001457336
    8    1   10    2       -0.0000000000
    8    1   11    2        0.0000000002
    8    1   12    2       -0.0000000000
    8    1   13    2        0.0000000120
    8    1   14    2        0.0001739982
    8    1   15    2        0.0000000377
    8    1   16    2       -0.0000000260
    8    1   17    2       -0.0000000079
    8    1   18    2        0.0001969379
    8    1   19    2        0.0001108808
    8    1    3    3        0.0002057793
    8    1    4    3       -0.0000000095
    8    1    5    3        0.0000000024
    8    1    6    3        0.0000000002
    8    1    7    3        0.0001098344
    8    1    8    3        0.0001113635
    8    1    9    3        0.0001401638
    8    1   10    3       -0.0000000052
    8    1   11    3        0.0000000112
    8    1   12    3        0.0000000000
    8    1   13    3        0.0000000005
    8    1   14    3       -0.0001230124
    8    1   15    3       -0.0000000223
    8    1   16    3        0.0000000149
    8    1   17    3       -0.0000000208
    8    1   18    3       -0.0001295077
    8    1   19    3       -0.0001114151
    8    1    4    4        0.0001389980
    8    1    5    4       -0.0000000228
    8    1    6    4       -0.0000000014
    8    1    7    4        0.0000000086
    8    1    8    4        0.0000000154
    8    1    9    4       -0.0000000020
    8    1   10    4       -0.0000268514
    8    1   11    4        0.0001393428
    8    1   12    4        0.0000000022
    8    1   13    4       -0.0000650049
    8    1   14    4       -0.0000000006
    8    1   15    4        0.0000000015
    8    1   16    4        0.0000000018
    8    1   17    4        0.0000207301
    8    1   18    4       -0.0000000053
    8    1   19    4       -0.0000000101
    8    1    5    5        0.0001390621
    8    1    6    5       -0.0000000053
    8    1    7    5       -0.0000000021
    8    1    8    5       -0.0000000038
    8    1    9    5        0.0000000003
    8    1   10    5        0.0001393744
    8    1   11    5        0.0000270478
    8    1   12    5        0.0000000151
    8    1   13    5       -0.0000333569
    8    1   14    5        0.0000000024
    8    1   15    5        0.0000000066
    8    1   16    5        0.0000000114
    8    1   17    5       -0.0000008969
    8    1   18    5        0.0000000015
    8    1   19    5        0.0000000213
    8    1    6    6        0.0000321331
    8    1    7    6        0.0000000003
    8    1    8    6        0.0000000001
    8    1    9    6       -0.0000000000
    8    1   10    6       -0.0000000036
    8    1   11    6       -0.0000000018
    8    1   12    6       -0.0000000000
    8    1   13    6        0.0000000022
    8    1   14    6       -0.0000000014
    8    1   15    6       -0.0000084674
    8    1   16    6        0.0000412981
    8    1   17    6       -0.0000000031
    8    1   18    6       -0.0000000009
    8    1   19    6        0.0000000001
    8    1    7    7        0.0000944929
    8    1    8    7        0.0000626991
    8    1    9    7        0.0000594741
    8    1   10    7       -0.0000000016
    8    1   11    7        0.0000000034
    8    1   12    7        0.0000000000
    8    1   13    7       -0.0000000171
    8    1   14    7       -0.0000902782
    8    1   15    7       -0.0000000204
    8    1   16    7        0.0000000138
    8    1   17    7        0.0000000013
    8    1   18    7       -0.0001116155
    8    1   19    7       -0.0000459050
    8    1    8    8        0.0000601413
    8    1    9    8        0.0000453578
    8    1   10    8        0.0000000038
    8    1   11    8       -0.0000000084
    8    1   12    8        0.0000000000
    8    1   13    8       -0.0000000070
    8    1   14    8       -0.0000590190
    8    1   15    8       -0.0000000196
    8    1   16    8        0.0000000132
    8    1   17    8        0.0000000297
    8    1   18    8       -0.0001000900
    8    1   19    8       -0.0000246801
    8    1    9    9        0.0001137843
[...]
   16   13   16   16        0.0000030729
   16   13   17   16        0.0000334671
   16   13   18   16       -0.0000053251
   16   13   19   16        0.0000062775
   16   13   17   17       -0.0000030568
   16   13   18   17       -0.0001412811
   16   13   19   17       -0.0001419668
   16   13   18   18        0.0000075868
   16   13   19   18       -0.0000043083
   16   13   19   19        0.0000023002
   17   13   17   13        0.0022994433
   17   13   18   13       -0.0000043846
   17   13   19   13        0.0000006791
   17   13   14   14       -0.0001029133
   17   13   15   14        0.0003450893
   17   13   16   14       -0.0002478843
   17   13   17   14        0.0000031525
   17   13   18   14       -0.0011483630
   17   13   19   14        0.0004195819
   17   13   15   15       -0.0010663328
   17   13   16   15       -0.0009330922
   17   13   17   15        0.0000007265
   17   13   18   15        0.0000001368
   17   13   19   15        0.0000210309
   17   13   16   16       -0.0013049740
   17   13   17   16       -0.0000027717
   17   13   18   16        0.0000286700
   17   13   19   16       -0.0002297014
   17   13   17   17       -0.0016902065
   17   13   18   17        0.0000028045
   17   13   19   17       -0.0000007268
   17   13   18   18       -0.0012743443
   17   13   19   18        0.0000718760
   17   13   19   19       -0.0003737595
   18   13   18   13        0.0018065957
   18   13   19   13       -0.0003041124
   18   13   14   14       -0.0000039048
   18   13   15   14       -0.0000044442
   18   13   16   14       -0.0000057378
   18   13   17   14       -0.0003768329
   18   13   18   14        0.0000187668
   18   13   19   14       -0.0000046810
   18   13   15   15       -0.0000249917
   18   13   16   15       -0.0000030313
   18   13   17   15        0.0001557618
   18   13   18   15        0.0000057053
   18   13   19   15       -0.0000136533
   18   13   16   16       -0.0000114192
   18   13   17   16        0.0000699832
   18   13   18   16        0.0000084741
   18   13   19   16       -0.0000017040
   18   13   17   17        0.0000077544
   18   13   18   17       -0.0003367843
   18   13   19   17        0.0000964048
   18   13   18   18        0.0000001593
   18   13   19   18        0.0000057572
   18   13   19   19       -0.0000072659
   19   13   19   13        0.0013157742
   19   13   14   14       -0.0000078675
   19   13   15   14        0.0000027677
   19   13   16   14       -0.0000037537
   19   13   17   14        0.0001078443
   19   13   18   14       -0.0000028886
   19   13   19   14        0.0000194078
   19   13   15   15        0.0000235183
   19   13   16   15       -0.0000004458
   19   13   17   15       -0.0000609001
   19   13   18   15       -0.0000040034
   19   13   19   15        0.0000150811
   19   13   16   16        0.0000238394
   19   13   17   16       -0.0005694196
   19   13   18   16       -0.0000043399
   19   13   19   16       -0.0000081057
   19   13   17   17       -0.0000108021
   19   13   18   17        0.0007398401
   19   13   19   17        0.0003017392
   19   13   18   18       -0.0000056670
   19   13   19   18       -0.0000012481
   19   13   19   19        0.0000066049
   14   14   14   14        0.0718141227
   14   14   15   14        0.0000006888
   14   14   16   14       -0.0000005682
   14   14   17   14        0.0000461667
   14   14   18   14        0.0007224441
   14   14   19   14        0.0027780695
   14   14   15   15        0.0627521128
   14   14   16   15        0.0011470883
   14   14   17   15       -0.0000024829
   14   14   18   15        0.0000004537
   14   14   19   15        0.0000003634
   14   14   16   16        0.0604613089
   14   14   17   16       -0.0000080430
   14   14   18   16       -0.0000002130
   14   14   19   16       -0.0000003047
   14   14   17   17        0.0621484466
   14   14   18   17       -0.0000341140
   14   14   19   17       -0.0000147893
   14   14   18   18        0.0621236225
   14   14   19   18        0.0002841363
   14   14   19   19        0.0625309817
   15   14   15   14        0.0018691316
   15   14   16   14       -0.0000464220
   15   14   17   14        0.0000011837
   15   14   18   14       -0.0000000588
   15   14   19   14        0.0000004206
   15   14   15   15        0.0000004221
   15   14   16   15        0.0000000691
   15   14   17   15        0.0000099626
   15   14   18   15       -0.0002395266
   15   14   19   15        0.0001087057
   15   14   16   16        0.0000000989
   15   14   17   16       -0.0000073470
   15   14   18   16        0.0003326531
   15   14   19   16       -0.0000864135
   15   14   17   17       -0.0001670403
   15   14   18   17       -0.0000018613
   15   14   19   17        0.0000009748
   15   14   18   18       -0.0000000782
   15   14   19   18        0.0000000414
   15   14   19   19        0.0000003937
   16   14   16   14        0.0019862432
   16   14   17   14       -0.0000021352
   16   14   18   14        0.0000000459
   16   14   19   14       -0.0000004079
   16   14   15   15       -0.0000002958
   16   14   16   15       -0.0000001966
   16   14   17   15        0.0000009891
   16   14   18   15       -0.0000251175
   16   14   19   15       -0.0001630989
   16   14   16   16        0.0000005169
   16   14   17   16        0.0000301908
   16   14   18   16        0.0000080580
   16   14   19   16        0.0012436450
   16   14   17   17       -0.0004011059
   16   14   18   17       -0.0000026727
   16   14   19   17       -0.0000013361
   16   14   18   18        0.0000000467
   16   14   19   18       -0.0000000974
   16   14   19   19       -0.0000002657
   17   14   17   14        0.0011101768
   17   14   18   14       -0.0000061039
   17   14   19   14       -0.0000182863
   17   14   15   15        0.0000411708
   17   14   16   15        0.0000016666
   17   14   17   15       -0.0001911193
   17   14   18   15       -0.0000003199
   17   14   19   15        0.0000033051
   17   14   16   16        0.0000504085
   17   14   17   16       -0.0002655711
   17   14   18   16       -0.0000005489
   17   14   19   16       -0.0000028488
   17   14   17   17        0.0000269306
   17   14   18   17       -0.0000548435
   17   14   19   17       -0.0001395415
   17   14   18   18        0.0000407162
   17   14   19   18        0.0000065089
   17   14   19   19        0.0000514305
   18   14   18   14        0.0030928435
   18   14   19   14       -0.0005646315
   18   14   15   15        0.0002276702
   18   14   16   15        0.0004715349
   18   14   17   15       -0.0000010924
   18   14   18   15       -0.0000002126
   18   14   19   15        0.0000000298
   18   14   16   16        0.0010225573
   18   14   17   16       -0.0000016171
   18   14   18   16        0.0000001214
   18   14   19   16       -0.0000000625
   18   14   17   17        0.0002587910
   18   14   18   17        0.0000060802
   18   14   19   17       -0.0000003061
   18   14   18   18        0.0004456517
   18   14   19   18        0.0005007730
   18   14   19   19        0.0005783766
   19   14   19   14        0.0069681415
   19   14   15   15        0.0010889517
   19   14   16   15       -0.0003681063
   19   14   17   15        0.0000027058
   19   14   18   15        0.0000003450
   19   14   19   15        0.0000000356
   19   14   16   16        0.0015275060
   19   14   17   16       -0.0000016058
   19   14   18   16       -0.0000004065
   19   14   19   16       -0.0000001144
   19   14   17   17        0.0004431449
   19   14   18   17        0.0000281555
   19   14   19   17        0.0000219833
   19   14   18   18        0.0000027643
   19   14   19   18       -0.0003427684
   19   14   19   19        0.0019262597
   15   15   15   15        0.0694689182
   15   15   16   15        0.0017688985
   15   15   17   15       -0.0000039940
   15   15   18   15        0.0000000996
   15   15   19   15        0.0000008872
   15   15   16   16        0.0646671806
   15   15   17   16       -0.0000142606
   15   15   18   16       -0.0000007487
   15   15   19   16       -0.0000002831
   15   15   17   17        0.0632535726
   15   15   18   17        0.0000067392
   15   15   19   17        0.0000013420
   15   15   18   18        0.0605632239
   15   15   19   18       -0.0006188504
   15   15   19   19        0.0611602947
   16   15   16   15        0.0023214776
   16   15   17   15       -0.0000021934
   16   15   18   15       -0.0000002161
   16   15   19   15        0.0000003292
   16   15   16   16        0.0008728960
   16   15   17   16       -0.0000008472
   16   15   18   16       -0.0000001418
   16   15   19   16       -0.0000005171
   16   15   17   17        0.0009245315
   16   15   18   17        0.0000009479
   16   15   19   17       -0.0000053350
   16   15   18   18        0.0012933025
   16   15   19   18       -0.0005205088
   16   15   19   19       -0.0000331542
   17   15   17   15        0.0012908248
   17   15   18   15       -0.0000032217
   17   15   19   15       -0.0000003960
   17   15   16   16       -0.0000037285
   17   15   17   16        0.0003654248
   17   15   18   16        0.0000020050
   17   15   19   16       -0.0000005953
   17   15   17   17        0.0000010175
   17   15   18   17       -0.0001390152
   17   15   19   17        0.0001381922
   17   15   18   18       -0.0000016865
   17   15   19   18       -0.0000010168
   17   15   19   19       -0.0000004495
   18   15   18   15        0.0012162823
   18   15   19   15       -0.0015580061
   18   15   16   16        0.0000006771
   18   15   17   16        0.0000033291
   18   15   18   16        0.0010039096
   18   15   19   16        0.0000159227
   18   15   17   17        0.0000444954
   18   15   18   17       -0.0000003221
   18   15   19   17       -0.0000005682
   18   15   18   18        0.0000005214
   18   15   19   18       -0.0000000932
   18   15   19   19        0.0000004161
   19   15   19   15        0.0051090502
   19   15   16   16       -0.0000010734
   19   15   17   16       -0.0000347407
   19   15   18   16       -0.0023389159
   19   15   19   16       -0.0020723039
   19   15   17   17       -0.0000997250
   19   15   18   17        0.0000013250
   19   15   19   17        0.0000015525
   19   15   18   18       -0.0000000781
   19   15   19   18        0.0000000250
   19   15   19   19       -0.0000000357
   16   16   16   16        0.0726670580
   16   16   17   16       -0.0000229562
   16   16   18   16        0.0000000548
   16   16   19   16        0.0000008877
   16   16   17   17        0.0671129377
   16   16   18   17        0.0000273080
   16   16   19   17        0.0000134204
   16   16   18   18        0.0623855519
   16   16   19   18        0.0013292474
   16   16   19   19        0.0607250492
   17   16   17   16        0.0042399284
   17   16   18   16        0.0000071285
   17   16   19   16        0.0000410841
   17   16   17   17        0.0000114739
   17   16   18   17       -0.0007450874
   17   16   19   17       -0.0001694917
   17   16   18   18       -0.0000066867
   17   16   19   18       -0.0000014581
   17   16   19   19       -0.0000125996
   18   16   18   16        0.0027520186
   18   16   19   16        0.0014625270
   18   16   17   17       -0.0000831207
   18   16   18   17       -0.0000015167
   18   16   19   17       -0.0000005615
   18   16   18   18       -0.0000003764
   18   16   19   18       -0.0000000078
   18   16   19   19       -0.0000002295
   19   16   19   16        0.0028449854
   19   16   17   17       -0.0001860170
   19   16   18   17       -0.0000032993
   19   16   19   17       -0.0000022791
   19   16   18   18        0.0000000751
   19   16   19   18        0.0000000180
   19   16   19   19        0.0000000309
   17   17   17   17        0.0757724922
   17   17   18   17       -0.0000538328
   17   17   19   17       -0.0000172225
   17   17   18   18        0.0650777446
   17   17   19   18        0.0005409937
   17   17   19   19        0.0602665682
   18   17   18   17        0.0036937592
   18   17   19   17        0.0003776392
   18   17   18   18       -0.0000595905
   18   17   19   18        0.0000008428
   18   17   19   19       -0.0000258469
   19   17   19   17        0.0008408013
   19   17   18   18       -0.0000155476
   19   17   19   18       -0.0000079726
   19   17   19   19       -0.0000020406
   18   18   18   18        0.0658376749
   18   18   19   18        0.0001875422
   18   18   19   19        0.0594349197
   19   18   19   18        0.0020411261
   19   18   19   19        0.0008222382
   19   19   19   19        0.0614297339
 end_two_electron_integrals


 output epsi filename:./pspw_hf_LiH.emovecs

 Total PSPW energy     :  -0.7421027425E+00


=== Spin Contamination ===

 <Sexact^2> =    0.0000000000000000     
 <S^2>      =    0.0000000000000000     



== Center of Charge ==

spin up     (    0.0000,    0.0000,    1.8850 )
spin down   (    0.0000,    0.0000,    1.8850 )
     total  (    0.0000,    0.0000,    1.8850 )
ionic       (    0.0000,    0.0000,    0.7086 )


== Molecular Dipole wrt Center of Mass ==

mu   =  (   -0.0000,   -0.0000,   -2.3527 ) au
|mu| =     2.3527 au,       5.9796 Debye

 output psi filename:./pspw_hf_LiH.movecs

 Writing Crystallographic Information File:./LiH.cif
   - cell not shifted (nwpw:cif_shift_cell .false.)


== Timing ==

cputime in seconds
  prologue    :   0.892432E+02
  main loop   :   0.107664E+04
  epilogue    :   0.787076E-01
  total       :   0.116596E+04
  cputime/step:   0.828181E+01       (     130 evalulations,      59 linesearches)


Time spent doing                        total          step       percent
  total time                 :   0.116597E+04  0.896899E+01       100.0 %
  i/o time                   :   0.233858E+01  0.179891E-01         0.2 %
  FFTs                       :   0.858770E+03  0.660592E+01        73.7 %
  dot products               :   0.504150E+01  0.387807E-01         0.4 %
  geodesic                   :   0.101065E+00  0.777420E-03         0.0 %
  ffm_dgemm                  :   0.226347E-01  0.174113E-03         0.0 %
  fmf_dgemm                  :   0.443950E-01  0.341500E-03         0.0 %
  mmm_dgemm                  :   0.322035E-02  0.247719E-04         0.0 %
  m_diagonalize              :   0.140401E-02  0.108001E-04         0.0 %
  local pseudopotentials     :   0.593561E-02  0.456586E-04         0.0 %
  non-local pseudopotentials :   0.266316E+01  0.204858E-01         0.2 %
  structure factors          :   0.530780E+00  0.408292E-02         0.0 %
  phase factors              :   0.264400E-04  0.203385E-06         0.0 %
  masking and packing        :   0.565122E+02  0.434710E+00         4.8 %
  queue fft                  :   0.151398E+01  0.116460E-01         0.1 %
  queue fft (serial)         :   0.559271E+00  0.430208E-02         0.0 %
  queue fft (message passing):   0.894033E+00  0.687718E-02         0.1 %
  HFX potential              :   0.677688E+03  0.521298E+01        58.1 %
  non-local psp FFM          :   0.210636E+01  0.162028E-01         0.2 %
  non-local psp FMF          :   0.137478E+00  0.105752E-02         0.0 %
  non-local psp FFM A        :   0.257485E+00  0.198065E-02         0.0 %
  non-local psp FFM B        :   0.221719E+00  0.170553E-02         0.0 %

== HFX Counters ==
  HFX Evalulations         =   130
  Lin ACE HFX Evalulations =     0


     >>>  JOB COMPLETED     AT Mon May  5 01:22:36 2025  <<<

 Task  times  cpu:     1089.9s     wall:     1166.0s


                                NWChem Input Module
                                -------------------


 Summary of allocated global arrays
-----------------------------------
  No active global arrays


MA_summarize_allocated_blocks: starting scan ...
MA_summarize_allocated_blocks: scan completed: 0 heap blocks, 0 stack blocks
MA usage statistics:

	allocation statistics:
					      heap	     stack
					      ----	     -----
	current number of blocks	         0	         0
	maximum number of blocks	       315	        19
	current total bytes		         0	         0
	maximum total bytes		 127233560	  29398984
	maximum total K-bytes		    127234	     29399
	maximum total M-bytes		       128	        30


                                     CITATION
                                     --------
                Please cite the following reference when publishing
                           results obtained with NWChem:

          E. Apra, E. J. Bylaska, W. A. de Jong, N. Govind, K. Kowalski,
       T. P. Straatsma, M. Valiev, H. J. J. van Dam, Y. Alexeev, J. Anchell,
       V. Anisimov, F. W. Aquino, R. Atta-Fynn, J. Autschbach, N. P. Bauman,
     J. C. Becca, D. E. Bernholdt, K. Bhaskaran-Nair, S. Bogatko, P. Borowski,
         J. Boschen, J. Brabec, A. Bruner, E. Cauet, Y. Chen, G. N. Chuev,
      C. J. Cramer, J. Daily, M. J. O. Deegan, T. H. Dunning Jr., M. Dupuis,
   K. G. Dyall, G. I. Fann, S. A. Fischer, A. Fonari, H. Fruchtl, L. Gagliardi,
      J. Garza, N. Gawande, S. Ghosh, K. Glaesemann, A. W. Gotz, J. Hammond,
       V. Helms, E. D. Hermes, K. Hirao, S. Hirata, M. Jacquelin, L. Jensen,
   B. G. Johnson, H. Jonsson, R. A. Kendall, M. Klemm, R. Kobayashi, V. Konkov,
      S. Krishnamoorthy, M. Krishnan, Z. Lin, R. D. Lins, R. J. Littlefield,
      A. J. Logsdail, K. Lopata, W. Ma, A. V. Marenich, J. Martin del Campo,
   D. Mejia-Rodriguez, J. E. Moore, J. M. Mullin, T. Nakajima, D. R. Nascimento,
    J. A. Nichols, P. J. Nichols, J. Nieplocha, A. Otero-de-la-Roza, B. Palmer,
    A. Panyala, T. Pirojsirikul, B. Peng, R. Peverati, J. Pittner, L. Pollack,
   R. M. Richard, P. Sadayappan, G. C. Schatz, W. A. Shelton, D. W. Silverstein,
   D. M. A. Smith, T. A. Soares, D. Song, M. Swart, H. L. Taylor, G. S. Thomas,
            V. Tipparaju, D. G. Truhlar, K. Tsemekhman, T. Van Voorhis,
      A. Vazquez-Mayagoitia, P. Verma, O. Villa, A. Vishnu, K. D. Vogiatzis,
        D. Wang, J. H. Weare, M. J. Williamson, T. L. Windus, K. Wolinski,
        A. T. Wong, Q. Wu, C. Yang, Q. Yu, M. Zacharias, Z. Zhang, Y. Zhao,
                                and R. J. Harrison
                        "NWChem: Past, present, and future
                         J. Chem. Phys. 152, 184102 (2020)
                               doi:10.1063/5.0004997

                                      AUTHORS
                                      -------
  E. Apra, E. J. Bylaska, N. Govind, K. Kowalski, M. Valiev, D. Mejia-Rodriguez,
       A. Kunitsa, N. P. Bauman, A. Panyala, W. A. de Jong, T. P. Straatsma,
   H. J. J. van Dam, D. Wang, T. L. Windus, J. Hammond, J. Autschbach, A. Woods,
    K. Bhaskaran-Nair, J. Brabec, K. Lopata, S. A. Fischer, S. Krishnamoorthy,
     M. Jacquelin, W. Ma, M. Klemm, O. Villa, Y. Chen, V. Anisimov, F. Aquino,
     S. Hirata, M. T. Hackler, E. Hermes, L. Jensen, J. E. Moore, J. C. Becca,
      V. Konjkov, T. Risthaus, M. Malagoli, A. Marenich, A. Otero-de-la-Roza,
        J. Mullin, P. Nichols, R. Peverati, J. Pittner, Y. Zhao, P.-D. Fan,
        A. Fonari, M. J. Williamson, R. J. Harrison, J. R. Rehr, M. Dupuis,
     D. Silverstein, D. M. A. Smith, J. Nieplocha, V. Tipparaju, M. Krishnan,
     B. E. Van Kuiken, A. Vazquez-Mayagoitia, M. Swart, Q. Wu, T. Van Voorhis,
     A. A. Auer, M. Nooijen, L. D. Crosby, E. Brown, G. Cisneros, G. I. Fann,
   H. Fruchtl, J. Garza, K. Hirao, R. A. Kendall, J. A. Nichols, K. Tsemekhman,
    K. Wolinski, J. Anchell, D. E. Bernholdt, P. Borowski, T. Clark, D. Clerc,
   H. Dachsel, M. J. O. Deegan, K. Dyall, D. Elwood, E. Glendening, M. Gutowski,
   A. C. Hess, J. Jaffe, B. G. Johnson, J. Ju, R. Kobayashi, R. Kutteh, Z. Lin,
   R. Littlefield, X. Long, B. Meng, T. Nakajima, S. Niu, L. Pollack, M. Rosing,
   K. Glaesemann, G. Sandrone, M. Stave, H. Taylor, G. Thomas, J. H. van Lenthe,
                               A. T. Wong, Z. Zhang.

 Total times  cpu:     1089.9s     wall:     1166.0s
