 argument  1 = ../data/PW_LiH_data/3x3_aperiodic/NWChem/18nocovo/H1Li1-2.0.nw



============================== echo of input deck ==============================
title "swnc: e theory=pspw4 xc=pbe formula=LiH charge=0 mult=1"
#machinejob:expert

echo

start pspw_hf_LiH

memory heap 1200 mb stack 2400 mb global 400 mb

charge 0

geometry
Li    0.00000    0.00000   -1.00000
H     0.00000    0.00000    1.00000
end

nwpw
  ### pseudopotential block begin ###
  ### pseudopotential block end   ###
  simulation_cell
     SC 28.345889835
     boundary_conditions aperiodic
  end

  cutoff 50.0
  mult 1
  xc hf
  lmbfgs
  tolerances 1.0e-9 1.0e-9

  virtual 18
end
set nwpw:cif_filename LiH

#set nwpw:CI_maxit_orb 15
#set nwpw:CI_maxit_linesearch 15

set nwpw:2qintegrals .true.
#set nwpw:3x3_virtual .true.

task pspw energy

================================================================================


                                         
                                         


             Northwest Computational Chemistry Package (NWChem) 7.2.3
             --------------------------------------------------------


                    Environmental Molecular Sciences Laboratory
                       Pacific Northwest National Laboratory
                                Richland, WA 99352

                              Copyright (c) 1994-2022
                       Pacific Northwest National Laboratory
                            Battelle Memorial Institute

             NWChem is an open-source computational chemistry package
                        distributed under the terms of the
                      Educational Community License (ECL) 2.0
             A copy of the license is included with this distribution
                              in the LICENSE.TXT file

                                  ACKNOWLEDGMENT
                                  --------------

            This software and its documentation were developed at the
            EMSL at Pacific Northwest National Laboratory, a multiprogram
            national laboratory, operated for the U.S. Department of Energy
            by Battelle under Contract Number DE-AC05-76RL01830. Support
            for this work was provided by the Department of Energy Office
            of Biological and Environmental Research, Office of Basic
            Energy Sciences, and the Office of Advanced Scientific Computing.


           Job information
           ---------------

    hostname        = mqs-al
    program         = nwchem
    date            = Mon May  5 02:46:56 2025

    compiled        = Thu_Oct_31_08:55:15_2024
    source          = /home/conda/feedstock_root/build_artifacts/nwchem_1730356057992/work
    nwchem branch   = 7.2.3
    nwchem revision = c400b04
    ga revision     = 5.8.0
    use scalapack   = T
    input           = ../data/PW_LiH_data/3x3_aperiodic/NWChem/18nocovo/H1Li1-2.0.nw
    prefix          = pspw_hf_LiH.
    data base       = ./pspw_hf_LiH.db
    status          = startup
    nproc           =       24
    time left       =     -1s



           Memory information
           ------------------

    heap     =  157286394 doubles =   1200.0 Mbytes
    stack    =  314572799 doubles =   2400.0 Mbytes
    global   =   52428800 doubles =    400.0 Mbytes (distinct from heap & stack)
    total    =  524287993 doubles =   4000.0 Mbytes
    verify   = yes
    hardfail = no 


           Directory information
           ---------------------

  0 permanent = .
  0 scratch   = .




                                NWChem Input Module
                                -------------------


              swnc: e theory=pspw4 xc=pbe formula=LiH charge=0 mult=1
              -------------------------------------------------------

 Scaling coordinates for geometry "geometry" by  1.889725989
 (inverse scale =  0.529177249)

  zeroes
  zeroes
  zeroes
  zeroes
  zeroes
  zeroes
  zeroes
  zeroes
  zeroes
  zeroes
  zeroes
  zeroes
  zeroes
  zeroes
  zeroes
  zeroes
  zeroes
  zeroes
  zeroes
  zeroes
  zeroes
  zeroes
  zeroes
  zeroes
  zeroes
  zeroes
  zeroes
  zeroes
  zeroes
  zeroes
  zeroes
  zeroes
  zeroes
  zeroes
  zeroes
  zeroes
  zeroes
  zeroes
  zeroes
  zeroes
  zeroes
  zeroes
  zeroes
  zeroes
  zeroes
  zeroes
  zeroes
  zeroes
 ORDER OF PRIMARY AXIS IS BEING SET TO 4
 C4V symmetry detected

          ------
          auto-z
          ------
  no constraints, skipping    0.0000000000000000     
  no constraints, skipping    0.0000000000000000     


                             Geometry "geometry" -> ""
                             -------------------------

 Output coordinates in angstroms (scale by  1.889725989 to convert to a.u.)

  No.       Tag          Charge          X              Y              Z
 ---- ---------------- ---------- -------------- -------------- --------------
    1 Li                   3.0000     0.00000000     0.00000000    -0.50000000
    2 H                    1.0000     0.00000000     0.00000000     1.50000000

      Atomic Mass 
      ----------- 

      Li                 7.016000
      H                  1.007825


 Effective nuclear repulsion energy (a.u.)       0.7937658735

            Nuclear Dipole moment (a.u.) 
            ----------------------------
        X                 Y               Z
 ---------------- ---------------- ----------------
     0.0000000000     0.0000000000     0.0000000000

      Symmetry information
      --------------------

 Group name             C4v       
 Group number             18
 Group order               8
 No. of unique centers     2

      Symmetry unique atoms

     1    2



                                Z-matrix (autoz)
                                -------- 

 Units are Angstrom for bonds and degrees for angles

      Type          Name      I     J     K     L     M      Value
      ----------- --------  ----- ----- ----- ----- ----- ----------
    1 Stretch                  1     2                       2.00000


            XYZ format geometry
            -------------------
     2
 geometry
 Li                    0.00000000     0.00000000    -0.50000000
 H                     0.00000000     0.00000000     1.50000000

          ****************************************************
          *                                                  *
          *               NWPW PSPW Calculation              *
          *                                                  *
          * [ (Grassmann/Stiefel manifold implementation)  ] *
          *                                                  *
          *      [ NorthWest Chemistry implementation ]      *
          *                                                  *
          *            version #5.10   06/12/02              *
          *                                                  *
          *    This code was developed by Eric J. Bylaska,   *
          *    and was based upon algorithms and code        *
          *    developed by the group of Prof. John H. Weare *
          *                                                  *
          ****************************************************
     >>>  JOB STARTED       AT Mon May  5 02:46:56 2025  <<<
          ================ input data ========================

 input psi filename:./pspw_hf_LiH.movecs

 number of processors used:        24
 processor grid           :  24 x   1
 parallel mapping         :2d-hilbert
 parallel mapping         :  balanced
 number of threads        :         1
 parallel io              :       off

 options:
      boundary conditions  = aperiodic   (version4)
      electron spin        = restricted
      exchange-correlation = Hartree-Fock
      - HFX relaxed
      - HFX restricted orbitals :    1
      - HFX free-space coulomb solver


 elements involved in the cluster:
      1: Li  valence charge:  1.0000  lmax=  1
             comment    : Hamann pseudopotential
             pseudpotential type            :   0
             highest angular component      :   1
             local potential used           :   1
             number of non-local projections:   1
             aperiodic cutoff radius        :  1.000
             semicore corrections included  :  1.000 (radius)  0.769 (charge)
             cutoff =   1.869   1.551

      2: H   valence charge:  1.0000  lmax=  1
             comment    : Parameterized (Chem.Phys.Lett., vol 322, page 447) Hamman psp
             pseudpotential type            :   0
             highest angular component      :   1
             local potential used           :   1
             number of non-local projections:   1
             aperiodic cutoff radius        :  1.000
             cutoff =   0.800   0.800


 total charge:   0.000

 atomic composition:
     Li  :    1     H   :    1

 number of electrons: spin up=     1 (   1 per task)  down=     1 (   1 per task) (Fourier space)
 number of orbitals : spin up=     1 (   1 per task)  down=     1 (   1 per task) (Fourier space)

 supercell:
      cell_name:  cell_default                                      
      lattice:    a1=<  28.346   0.000   0.000 >
                  a2=<   0.000  28.346   0.000 >
                  a3=<   0.000   0.000  28.346 >
      reciprocal: b1=<   0.222   0.000   0.000 >
                  b2=<   0.000   0.222   0.000 >
                  b3=<   0.000   0.000   0.222 >
      lattice:    a=      28.346 b=     28.346 c=      28.346
                  alpha=  90.000 beta=  90.000 gamma=  90.000
                  omega=     22775.6

      density cutoff=100.000  fft=140x140x140(   544264 waves    22677 per task)
      wavefnc cutoff= 50.000  fft=140x140x140(   192294 waves     8012 per task)

 technical parameters:
      time step=      5.80     fictitious mass=  400000.0
      tolerance=0.100E-08 (energy)   0.100E-08 (density)
      maximum iterations =      1000 (   10 inner    100 outer )





== Energy Calculation ==


          ============ Grassmann lmbfgs iteration ============
     >>>  ITERATION STARTED AT Mon May  5 02:48:25 2025  <<<
    iter.           Energy         DeltaE       DeltaRho 
    ------------------------------------------------------
      10   -0.7342868501E+00   -0.90508E-04    0.87398E-03
      20   -0.7345314297E+00   -0.50783E-05    0.55474E-05
      30   -0.7345493810E+00   -0.47855E-06    0.66171E-07
      40   -0.7345509307E+00   -0.42136E-07    0.39905E-08
      50   -0.7345510737E+00   -0.41085E-08    0.16165E-09
      60   -0.7345510884E+00   -0.84883E-09    0.27585E-10
  *** tolerance ok. iteration terminated
     >>>  ITERATION ENDED   AT Mon May  5 02:49:33 2025  <<<


==  Summary Of Results  ==

 number of electrons: spin up=    1.00000  down=    1.00000 (real space)

 total     energy    :  -0.7345510884E+00 (   -0.36728E+00/ion)
 total orbital energy:  -0.5533003500E+00 (   -0.55330E+00/electron)
 hartree   energy    :   0.8916787258E+00 (    0.89168E+00/electron)
 exc-corr  energy    :   0.0000000000E+00 (    0.00000E+00/electron)
 HF exchange energy  :  -0.4458393629E+00 (   -0.44584E+00/electron)
 ion-ion   energy    :   0.2645886245E+00 (    0.13229E+00/ion)

 kinetic (planewave) :   0.5450252637E+00 (    0.54503E+00/electron)
 V_local (planewave) :  -0.1898753410E+01 (   -0.18988E+01/electron)
 V_nl    (planewave) :  -0.9125092972E-01 (   -0.91251E-01/electron)
 V_Coul  (planewave) :   0.1783357452E+01 (    0.17834E+01/electron)
 V_xc.   (planewave) :   0.0000000000E+00 (    0.00000E+00/electron)
 K.S. HFX energy     :  -0.8916787258E+00 (   -0.89168E+00/electron)
 Virial Coefficient  :  -0.3791510259E+00

 orbital energies:
    -0.2766502E+00 (  -7.528eV)


== Virtual Orbital Calculation ==


 input epsi filename:./pspw_hf_LiH.emovecs
     orbital   1 current e=-0.148E-01 (error=0.990E-09) iterations  84(  22 preconditioned, Ep,Sp= 20.0  200.0)
     orbital   2 current e= 0.656E-02 (error=0.965E-09) iterations  67(  14 preconditioned, Ep,Sp= 20.0  200.0)
     orbital   3 current e= 0.175E-01 (error=0.886E-09) iterations  58(  14 preconditioned, Ep,Sp= 20.0  200.0)
     orbital   4 current e= 0.175E-01 (error=0.987E-09) iterations  67(  14 preconditioned, Ep,Sp= 20.0  200.0)
     orbital   5 current e= 0.223E-01 (error=0.817E-09) iterations  26(   1 preconditioned, Ep,Sp= 20.0  200.0)
     orbital   6 current e= 0.224E-01 (error=0.921E-09) iterations  75(  16 preconditioned, Ep,Sp= 20.0  200.0)
     orbital   7 current e= 0.298E-01 (error=0.949E-09) iterations  71(  14 preconditioned, Ep,Sp= 20.0  200.0)
     orbital   8 current e= 0.364E-01 (error=0.957E-09) iterations  77(  12 preconditioned, Ep,Sp= 20.0  200.0)
     orbital   9 current e= 0.398E-01 (error=0.892E-09) iterations  81(  21 preconditioned, Ep,Sp= 20.0  200.0)
     orbital  10 current e= 0.398E-01 (error=0.954E-09) iterations 118(  23 preconditioned, Ep,Sp= 20.0  200.0)
     orbital  11 current e= 0.452E-01 (error=0.956E-09) iterations  54(   6 preconditioned, Ep,Sp= 20.0  200.0)
     orbital  12 current e= 0.459E-01 (error=0.969E-09) iterations 101(  25 preconditioned, Ep,Sp= 20.0  200.0)
     orbital  13 current e= 0.463E-01 (error=0.885E-09) iterations  74(   1 preconditioned, Ep,Sp= 20.0  200.0)
     orbital  14 current e= 0.463E-01 (error=0.984E-09) iterations  76(   1 preconditioned, Ep,Sp= 20.0  200.0)
     orbital  15 current e= 0.480E-01 (error=0.959E-09) iterations  32(   1 preconditioned, Ep,Sp= 20.0  200.0)
     orbital  16 current e= 0.504E-01 (error=0.632E-09) iterations  38(   1 preconditioned, Ep,Sp= 20.0  200.0)
     orbital  17 current e= 0.530E-01 (error=0.804E-09) iterations  69(   1 preconditioned, Ep,Sp= 20.0  200.0)
     orbital  18 current e= 0.603E-01 (error=0.710E-08) iterations 121(  33 preconditioned, Ep,Sp= 20.0  200.0)
     orbital  18 current e= 0.603E-01 (error=0.971E-09) iterations  45(   1 preconditioned, Ep,Sp= 20.0  200.0)

 virtual orbital energies:
     0.6034944E-01 (   1.642eV)
     0.5297253E-01 (   1.441eV)
     0.5040376E-01 (   1.372eV)
     0.4802393E-01 (   1.307eV)
     0.4634144E-01 (   1.261eV)
     0.4634142E-01 (   1.261eV)
     0.4594230E-01 (   1.250eV)
     0.4520853E-01 (   1.230eV)
     0.3981650E-01 (   1.083eV)
     0.3981650E-01 (   1.083eV)
     0.3641840E-01 (   0.991eV)
     0.2980266E-01 (   0.811eV)
     0.2242422E-01 (   0.610eV)
     0.2229488E-01 (   0.607eV)
     0.1747081E-01 (   0.475eV)
     0.1747081E-01 (   0.475eV)
     0.6564314E-02 (   0.179eV)
    -0.1478961E-01 (  -0.402eV)


 == Generating One-Electron and Two-Electron Integrals ==

 begin_one_electron_integrals
    1    1        -0.7224895379
    2    1         0.0369918268
    3    1         0.0137239929
    4    1         0.0000000438
    5    1         0.0000000088
    6    1         0.0000000020
    7    1         0.0159817055
    8    1         0.0139904769
    9    1        -0.0035300753
   10    1        -0.0000000009
   11    1         0.0000000002
   12    1         0.0000000046
   13    1        -0.0156212160
   14    1         0.0000001733
   15    1        -0.0000000069
   16    1        -0.0000000284
   17    1        -0.0000003348
   18    1         0.0000000138
   19    1        -0.0229143190
    2    2        -0.2552126798
    3    2        -0.0556957369
    4    2        -0.0000001141
    5    2        -0.0000000229
    6    2        -0.0000000032
    7    2        -0.0292330669
    8    2        -0.0199416907
    9    2         0.0266389001
   10    2        -0.0000000906
   11    2         0.0000000181
   12    2        -0.0000000041
   13    2         0.0229731686
   14    2        -0.0000002210
   15    2         0.0000000095
   16    2         0.0000000625
   17    2         0.0000000609
   18    2         0.0000000057
   19    2         0.0215048485
    3    3        -0.1542073285
    4    3         0.0000000560
    5    3         0.0000000112
    6    3        -0.0000000006
    7    3        -0.0075618548
    8    3         0.0005248598
    9    3         0.0415126229
   10    3        -0.0000000679
   11    3         0.0000000136
   12    3        -0.0000000019
   13    3         0.0110779551
   14    3        -0.0000001215
   15    3         0.0000000027
   16    3         0.0000000236
   17    3         0.0000000169
   18    3         0.0000000164
   19    3         0.0042716072
    4    4        -0.1660718144
    5    4        -0.0000000017
    6    4        -0.0000000149
    7    4         0.0000000182
    8    4        -0.0000000211
    9    4        -0.0000001068
   10    4        -0.0484505889
   11    4         0.0000008443
   12    4         0.0000000273
   13    4         0.0000003010
   14    4         0.0258138485
   15    4        -0.0033415585
   16    4         0.0000000300
   17    4         0.0000000031
   18    4        -0.0158828459
   19    4         0.0000000282
    5    5        -0.1660978625
    6    5         0.0000000776
    7    5         0.0000000037
    8    5        -0.0000000043
    9    5        -0.0000000213
   10    5         0.0000008797
   11    5         0.0484623176
   12    5        -0.0000000056
   13    5         0.0000000371
   14    5         0.0033425276
   15    5         0.0258408928
   16    5        -0.0000001801
   17    5        -0.0000000363
   18    5        -0.0000024452
   19    5         0.0000000898
    6    6        -0.1196154198
    7    6        -0.0000000011
    8    6         0.0000000007
    9    6        -0.0000000005
   10    6        -0.0000000165
   11    6        -0.0000000848
   12    6        -0.0000000000
   13    6        -0.0000000033
   14    6        -0.0000000091
   15    6         0.0000001117
   16    6         0.0223554264
   17    6         0.0022062190
   18    6        -0.0000000190
   19    6         0.0000000076
    7    7        -0.1321690916
    8    7        -0.0056536859
    9    7         0.0050992826
   10    7         0.0000000561
   11    7        -0.0000000113
   12    7        -0.0000000049
   13    7         0.0277462281
   14    7        -0.0000003306
   15    7         0.0000000045
   16    7         0.0000000337
   17    7         0.0000000154
   18    7         0.0000000376
   19    7         0.0085629601
    8    8        -0.1165940648
    9    8         0.0004708929
   10    8         0.0000000027
   11    8        -0.0000000005
   12    8        -0.0000000011
   13    8         0.0050897211
   14    8        -0.0000000537
   15    8         0.0000000032
   16    8         0.0000000170
   17    8         0.0000000416
   18    8         0.0000000009
   19    8         0.0308780148
    9    9        -0.1111028696
   10    9        -0.0000000617
   11    9         0.0000000124
   12    9         0.0000000010
   13    9        -0.0055088357
   14    9         0.0000001045
   15    9         0.0000000019
   16    9        -0.0000000214
   17    9        -0.0000000039
   18    9        -0.0000000254
   19    9         0.0066919402
   10   10        -0.1323821109
   11   10        -0.0000000235
   12   10         0.0000000120
   13   10         0.0000001288
   14   10         0.0147913414
   15   10        -0.0019153805
   16   10         0.0000000201
   17   10         0.0000000032
   18   10        -0.0021857385
   19   10        -0.0000000391
   11   11        -0.1324170063
   12   11        -0.0000000010
   13   11        -0.0000000121
   14   11        -0.0019144301
   15   11        -0.0147951228
   16   11         0.0000001690
   17   11         0.0000000156
   18   11         0.0000003592
   19   11        -0.0000000037
   12   12        -0.1115604376
   13   12        -0.0000000014
   14   12        -0.0000000022
   15   12         0.0000000095
   16   12         0.0000000010
   17   12        -0.0000000001
   18   12         0.0000000100
   19   12         0.0000000019
   13   13        -0.1018975310
   14   13        -0.0000000953
   15   13        -0.0000000006
   16   13        -0.0000000389
   17   13        -0.0000000391
   18   13         0.0000001378
   19   13        -0.0113061234
   14   14        -0.1121282042
   15   14        -0.0000031549
   16   14        -0.0000000023
   17   14         0.0000000055
   18   14         0.0132186779
   19   14         0.0000001301
   15   15        -0.1121688678
   16   15         0.0000000983
   17   15        -0.0000000257
   18   15        -0.0017091689
   19   15        -0.0000000757
   16   16        -0.0973935261
   17   16        -0.0042464704
   18   16         0.0000000133
   19   16        -0.0000000807
   17   17        -0.0985330191
   18   17         0.0000000000
   19   17        -0.0000000520
   18   18        -0.1064774556
   19   18        -0.0000000202
   19   19        -0.0943144781
 end_one_electron_integrals

 begin_two_electron_integrals
    1    1    1    1        0.4458393629
    1    1    2    1       -0.0370044582
    1    1    3    1       -0.0137258309
    1    1    4    1       -0.0000000438
    1    1    5    1       -0.0000000088
    1    1    6    1       -0.0000000020
    1    1    7    1       -0.0159816062
    1    1    8    1       -0.0139926931
    1    1    9    1        0.0035313982
    1    1   10    1        0.0000000009
    1    1   11    1       -0.0000000002
    1    1   12    1       -0.0000000046
    1    1   13    1        0.0156217387
    1    1   14    1       -0.0000001733
    1    1   15    1        0.0000000069
    1    1   16    1        0.0000000284
    1    1   17    1        0.0000003348
    1    1   18    1       -0.0000000138
    1    1   19    1        0.0229134812
    1    1    2    2        0.1232506833
    1    1    3    2        0.0292191945
    1    1    4    2        0.0000000635
    1    1    5    2        0.0000000127
    1    1    6    2        0.0000000018
    1    1    7    2        0.0159305238
    1    1    8    2        0.0109236149
    1    1    9    2       -0.0139913270
    1    1   10    2        0.0000000494
    1    1   11    2       -0.0000000099
    1    1   12    2        0.0000000024
    1    1   13    2       -0.0128152723
    1    1   14    2        0.0000001228
    1    1   15    2       -0.0000000054
    1    1   16    2       -0.0000000337
    1    1   17    2       -0.0000000545
    1    1   18    2       -0.0000000004
    1    1   19    2       -0.0122990463
    1    1    3    3        0.0810585288
    1    1    4    3       -0.0000000333
    1    1    5    3       -0.0000000067
    1    1    6    3        0.0000000004
    1    1    7    3        0.0043653965
    1    1    8    3        0.0001192892
    1    1    9    3       -0.0211365307
    1    1   10    3        0.0000000282
    1    1   11    3       -0.0000000056
    1    1   12    3        0.0000000011
    1    1   13    3       -0.0061407161
    1    1   14    3        0.0000000720
    1    1   15    3       -0.0000000012
    1    1   16    3       -0.0000000126
    1    1   17    3       -0.0000000180
    1    1   18    3       -0.0000000118
    1    1   19    3       -0.0027516395
    1    1    4    4        0.0922572432
    1    1    5    4        0.0000000009
    1    1    6    4        0.0000000056
    1    1    7    4       -0.0000000015
    1    1    8    4        0.0000000139
    1    1    9    4        0.0000000606
    1    1   10    4        0.0247564816
    1    1   11    4       -0.0000004319
    1    1   12    4       -0.0000000143
    1    1   13    4       -0.0000001585
    1    1   14    4       -0.0132479662
    1    1   15    4        0.0017149298
    1    1   16    4       -0.0000000133
    1    1   17    4       -0.0000000008
    1    1   18    4        0.0081882548
    1    1   19    4       -0.0000000157
    1    1    5    5        0.0922706415
    1    1    6    5       -0.0000000296
    1    1    7    5       -0.0000000004
    1    1    8    5        0.0000000028
    1    1    9    5        0.0000000121
    1    1   10    5       -0.0000004504
    1    1   11    5       -0.0247633715
    1    1   12    5        0.0000000028
    1    1   13    5       -0.0000000199
    1    1   14    5       -0.0017154516
    1    1   15    5       -0.0132621022
    1    1   16    5        0.0000000822
    1    1   17    5        0.0000000149
    1    1   18    5        0.0000012611
    1    1   19    5       -0.0000000466
    1    1    6    6        0.0709652909
    1    1    7    6        0.0000000006
    1    1    8    6       -0.0000000003
    1    1    9    6        0.0000000002
    1    1   10    6        0.0000000065
    1    1   11    6        0.0000000339
    1    1   12    6        0.0000000000
    1    1   13    6        0.0000000016
    1    1   14    6        0.0000000050
    1    1   15    6       -0.0000000623
    1    1   16    6       -0.0111909554
    1    1   17    6       -0.0011040097
    1    1   18    6        0.0000000085
    1    1   19    6       -0.0000000039
    1    1    7    7        0.0778841122
    1    1    8    7        0.0032369353
    1    1    9    7       -0.0028304267
    1    1   10    7       -0.0000000219
    1    1   11    7        0.0000000044
    1    1   12    7        0.0000000026
    1    1   13    7       -0.0144654277
    1    1   14    7        0.0000001674
    1    1   15    7       -0.0000000027
    1    1   16    7       -0.0000000178
    1    1   17    7       -0.0000000189
    1    1   18    7       -0.0000000149
    1    1   19    7       -0.0049621991
    1    1    8    8        0.0735501963
    1    1    9    8       -0.0003682506
    1    1   10    8        0.0000000008
    1    1   11    8       -0.0000000002
    1    1   12    8        0.0000000007
    1    1   13    8       -0.0029571304
    1    1   14    8        0.0000000295
    1    1   15    8       -0.0000000019
    1    1   16    8       -0.0000000084
    1    1   17    8       -0.0000000314
    1    1   18    8        0.0000000018
    1    1   19    8       -0.0160190331
    1    1    9    9        0.0740341359
    1    1   10    9        0.0000000380
    1    1   11    9       -0.0000000076
    1    1   12    9       -0.0000000005
    1    1   13    9        0.0030483432
    1    1   14    9       -0.0000000609
    1    1   15    9       -0.0000000013
    1    1   16    9        0.0000000110
    1    1   17    9        0.0000000047
    1    1   18    9        0.0000000171
    1    1   19    9       -0.0031412837
    1    1   10   10        0.0866907730
    1    1   11   10        0.0000000123
    1    1   12   10       -0.0000000059
    1    1   13   10       -0.0000000715
    1    1   14   10       -0.0077662874
    1    1   15   10        0.0010056772
    1    1   16   10       -0.0000000085
    1    1   17   10       -0.0000000010
    1    1   18   10        0.0013547594
    1    1   19   10        0.0000000196
    1    1   11   11        0.0867083470
    1    1   12   11        0.0000000003
    1    1   13   11        0.0000000071
    1    1   14   11        0.0010052835
    1    1   15   11        0.0077692170
    1    1   16   11       -0.0000000775
    1    1   17   11       -0.0000000050
    1    1   18   11       -0.0000002243
    1    1   19   11        0.0000000032
    1    1   12   12        0.0784133854
    1    1   13   12        0.0000000005
    1    1   14   12        0.0000000019
    1    1   15   12       -0.0000000048
    1    1   16   12       -0.0000000005
    1    1   17   12        0.0000000000
    1    1   18   12       -0.0000000051
    1    1   19   12       -0.0000000012
    1    1   13   13        0.0745265590
    1    1   14   13        0.0000000459
    1    1   15   13        0.0000000005
    1    1   16   13        0.0000000202
    1    1   17   13        0.0000000319
    1    1   18   13       -0.0000000731
    1    1   19   13        0.0063315649
    1    1   14   14        0.0794897906
    1    1   15   14        0.0000016156
    1    1   16   14        0.0000000006
    1    1   17   14       -0.0000000030
    1    1   18   14       -0.0067989257
    1    1   19   14       -0.0000000723
    1    1   15   15        0.0795106803
    1    1   16   15       -0.0000000435
    1    1   17   15        0.0000000155
    1    1   18   15        0.0008790983
    1    1   19   15        0.0000000393
    1    1   16   16        0.0727266412
    1    1   17   16        0.0021250513
    1    1   18   16       -0.0000000056
    1    1   19   16        0.0000000391
    1    1   17   17        0.0744717780
    1    1   18   17        0.0000000006
    1    1   19   17        0.0000000453
    1    1   18   18        0.0798877518
    1    1   19   18        0.0000000091
    1    1   19   19        0.0783020683
    2    1    2    1        0.0060782940
    2    1    3    1        0.0027535937
    2    1    4    1        0.0000000129
    2    1    5    1        0.0000000026
    2    1    6    1        0.0000000003
    2    1    7    1        0.0026275234
    2    1    8    1        0.0019034087
    2    1    9    1       -0.0013419863
    2    1   10    1        0.0000000082
    2    1   11    1       -0.0000000016
    2    1   12    1        0.0000000007
    2    1   13    1       -0.0026537982
    2    1   14    1        0.0000000246
    2    1   15    1       -0.0000000014
    2    1   16    1       -0.0000000044
    2    1   17    1       -0.0000000485
    2    1   18    1        0.0000000049
    2    1   19    1       -0.0030896731
    2    1    2    2        0.0047353795
    2    1    3    2        0.0021613181
    2    1    4    2        0.0000000418
    2    1    5    2        0.0000000084
    2    1    6    2       -0.0000000000
    2    1    7    2       -0.0001945717
    2    1    8    2       -0.0000164391
    2    1    9    2       -0.0012002731
    2    1   10    2        0.0000000196
    2    1   11    2       -0.0000000039
    2    1   12    2       -0.0000000001
    2    1   13    2        0.0003915723
    2    1   14    2       -0.0000000067
    2    1   15    2        0.0000000000
    2    1   16    2        0.0000000011
    2    1   17    2        0.0000000081
    2    1   18    2       -0.0000000014
    2    1   19    2        0.0003900012
    2    1    3    3        0.0015478598
    2    1    4    3       -0.0000000298
    2    1    5    3       -0.0000000060
    2    1    6    3        0.0000000000
    2    1    7    3        0.0002203141
    2    1    8    3        0.0012813307
    2    1    9    3       -0.0009506208
    2    1   10    3        0.0000000236
    2    1   11    3       -0.0000000047
    2    1   12    3       -0.0000000000
    2    1   13    3        0.0000236410
    2    1   14    3        0.0000000040
    2    1   15    3        0.0000000003
    2    1   16    3       -0.0000000003
    2    1   17    3        0.0000000026
    2    1   18    3       -0.0000000055
    2    1   19    3       -0.0005262674
    2    1    4    4        0.0021099760
    2    1    5    4       -0.0000000000
    2    1    6    4       -0.0000000050
    2    1    7    4        0.0000000114
    2    1    8    4       -0.0000000074
    2    1    9    4        0.0000000165
    2    1   10    4        0.0014001648
    2    1   11    4       -0.0000000260
    2    1   12    4       -0.0000000468
    2    1   13    4       -0.0000000011
    2    1   14    4        0.0005086561
    2    1   15    4       -0.0000658376
    2    1   16    4        0.0000000016
    2    1   17    4       -0.0000000032
    2    1   18    4       -0.0010280973
    2    1   19    4        0.0000000004
    2    1    5    5        0.0021097867
    2    1    6    5        0.0000000252
    2    1    7    5        0.0000000023
    2    1    8    5       -0.0000000015
    2    1    9    5        0.0000000033
    2    1   10    5       -0.0000000255
    2    1   11    5       -0.0014005399
    2    1   12    5       -0.0000000102
    2    1   13    5       -0.0000000006
    2    1   14    5        0.0000659770
    2    1   15    5        0.0005106719
    2    1   16    5       -0.0000000070
    2    1   17    5        0.0000000144
    2    1   18    5       -0.0000001583
    2    1   19    5        0.0000000056
    2    1    6    6        0.0008115899
    2    1    7    6       -0.0000000000
    2    1    8    6       -0.0000000001
    2    1    9    6       -0.0000000000
    2    1   10    6       -0.0000000036
    2    1   11    6       -0.0000000180
    2    1   12    6        0.0000000000
    2    1   13    6        0.0000000005
    2    1   14    6       -0.0000000007
    2    1   15    6        0.0000000100
    2    1   16    6        0.0001503952
    2    1   17    6        0.0011733112
    2    1   18    6       -0.0000000044
    2    1   19    6       -0.0000000005
    2    1    7    7        0.0006381848
    2    1    8    7        0.0000174229
    2    1    9    7       -0.0003281219
    2    1   10    7        0.0000000063
    2    1   11    7       -0.0000000013
    2    1   12    7        0.0000000001
    2    1   13    7       -0.0004928641
    2    1   14    7       -0.0000000435
    2    1   15    7       -0.0000000036
    2    1   16    7       -0.0000000026
    2    1   17    7        0.0000000039
    2    1   18    7        0.0000000020
    2    1   19    7       -0.0004834518
    2    1    8    8       -0.0003980544
    2    1    9    8       -0.0005874832
    2    1   10    8       -0.0000000037
    2    1   11    8        0.0000000007
    2    1   12    8       -0.0000000001
    2    1   13    8        0.0003198594
    2    1   14    8       -0.0000000169
    2    1   15    8       -0.0000000008
    2    1   16    8        0.0000000012
    2    1   17    8        0.0000000039
    2    1   18    8        0.0000000463
    2    1   19    8        0.0005681585
    2    1    9    9        0.0009219577
    2    1   10    9        0.0000000218
    2    1   11    9       -0.0000000044
    2    1   12    9       -0.0000000000
    2    1   13    9        0.0002105290
    2    1   14    9       -0.0000000085
    2    1   15    9       -0.0000000003
    2    1   16    9        0.0000000011
    2    1   17    9       -0.0000000010
    2    1   18    9        0.0000000094
    2    1   19    9        0.0012734310
    2    1   10   10        0.0014366853
    2    1   11   10       -0.0000000000
    2    1   12   10        0.0000000241
    2    1   13   10       -0.0000000141
    2    1   14   10       -0.0000312694
    2    1   15   10        0.0000040498
    2    1   16   10        0.0000000027
    2    1   17   10       -0.0000000020
    2    1   18   10        0.0004947294
    2    1   19   10       -0.0000000007
    2    1   11   11        0.0014364928
    2    1   12   11       -0.0000000052
    2    1   13   11        0.0000000028
    2    1   14   11        0.0000041340
    2    1   15   11        0.0000323899
    2    1   16   11        0.0000000130
    2    1   17   11       -0.0000000106
    2    1   18   11       -0.0000000854
    2    1   19   11        0.0000000028
    2    1   12   12        0.0013099896
    2    1   13   12        0.0000000001
    2    1   14   12        0.0000000180
    2    1   15   12        0.0000000014
    2    1   16   12        0.0000000000
    2    1   17   12       -0.0000000000
    2    1   18   12        0.0000000144
    2    1   19   12        0.0000000001
    2    1   13   13        0.0008369835
    2    1   14   13       -0.0000000106
    2    1   15   13       -0.0000000004
    2    1   16   13        0.0000000034
    2    1   17   13       -0.0000000056
    2    1   18   13       -0.0000000052
    2    1   19   13       -0.0001513203
    2    1   14   14        0.0006317864
    2    1   15   14       -0.0000000737
    2    1   16   14       -0.0000000014
    2    1   17   14       -0.0000000002
    2    1   18   14        0.0002449243
    2    1   19   14        0.0000000101
    2    1   15   15        0.0006310523
    2    1   16   15        0.0000000183
    2    1   17   15        0.0000000047
    2    1   18   15       -0.0000316692
    2    1   19   15       -0.0000000009
    2    1   16   16        0.0003568928
    2    1   17   16       -0.0000595882
    2    1   18   16        0.0000000010
    2    1   19   16       -0.0000000011
    2    1   17   17       -0.0004190216
    2    1   18   17        0.0000000031
    2    1   19   17       -0.0000000069
    2    1   18   18       -0.0007805700
    2    1   19   18       -0.0000000028
    2    1   19   19       -0.0008186645
    3    1    3    1        0.0013454154
    3    1    4    1       -0.0000000105
    3    1    5    1       -0.0000000021
    3    1    6    1        0.0000000001
    3    1    7    1        0.0011812910
    3    1    8    1        0.0007704719
    3    1    9    1       -0.0007642159
    3    1   10    1       -0.0000000114
    3    1   11    1        0.0000000023
    3    1   12    1        0.0000000003
    3    1   13    1       -0.0012068486
    3    1   14    1        0.0000000226
    3    1   15    1        0.0000000002
    3    1   16    1       -0.0000000020
    3    1   17    1       -0.0000000189
    3    1   18    1       -0.0000000072
    3    1   19    1       -0.0012326749
    3    1    2    2        0.0037940310
    3    1    3    2        0.0018272752
    3    1    4    2       -0.0000000934
    3    1    5    2       -0.0000000187
    3    1    6    2        0.0000000000
    3    1    7    2        0.0001223959
    3    1    8    2        0.0001844850
    3    1    9    2       -0.0010753246
    3    1   10    2       -0.0000000294
    3    1   11    2        0.0000000059
    3    1   12    2       -0.0000000000
    3    1   13    2        0.0000118990
    3    1   14    2        0.0000000040
    3    1   15    2        0.0000000003
    3    1   16    2        0.0000000001
    3    1   17    2        0.0000000032
    3    1   18    2        0.0000000010
    3    1   19    2       -0.0000105574
    3    1    3    3        0.0012558621
    3    1    4    3        0.0000000703
    3    1    5    3        0.0000000141
    3    1    6    3        0.0000000000
    3    1    7    3        0.0002780303
    3    1    8    3        0.0008793055
    3    1    9    3       -0.0008151545
    3    1   10    3       -0.0000000575
    3    1   11    3        0.0000000115
    3    1   12    3       -0.0000000000
    3    1   13    3       -0.0001134557
    3    1   14    3       -0.0000000160
    3    1   15    3       -0.0000000012
    3    1   16    3       -0.0000000005
    3    1   17    3        0.0000000009
    3    1   18    3        0.0000000233
    3    1   19    3       -0.0004403203
    3    1    4    4        0.0015453578
    3    1    5    4       -0.0000000000
    3    1    6    4        0.0000000140
    3    1    7    4       -0.0000000379
    3    1    8    4        0.0000000127
    3    1    9    4       -0.0000000334
    3    1   10    4        0.0011241305
    3    1   11    4       -0.0000000206
    3    1   12    4        0.0000001114
    3    1   13    4        0.0000000191
    3    1   14    4        0.0002026509
    3    1   15    4       -0.0000262271
    3    1   16    4       -0.0000000055
    3    1   17    4        0.0000000020
    3    1   18    4       -0.0005613285
    3    1   19    4       -0.0000000016
    3    1    5    5        0.0015453888
    3    1    6    5       -0.0000000701
    3    1    7    5       -0.0000000076
    3    1    8    5        0.0000000025
    3    1    9    5       -0.0000000067
    3    1   10    5       -0.0000000205
    3    1   11    5       -0.0011244576
    3    1   12    5        0.0000000219
    3    1   13    5        0.0000000037
    3    1   14    5        0.0000263098
    3    1   15    5        0.0002037608
    3    1   16    5        0.0000000284
    3    1   17    5       -0.0000000110
    3    1   18    5       -0.0000000864
    3    1   19    5        0.0000000027
    3    1    6    6        0.0005153421
    3    1    7    6       -0.0000000000
    3    1    8    6       -0.0000000000
    3    1    9    6       -0.0000000000
    3    1   10    6        0.0000000116
    3    1   11    6        0.0000000582
    3    1   12    6        0.0000000000
    3    1   13    6        0.0000000003
    3    1   14    6        0.0000000014
    3    1   15    6       -0.0000000196
    3    1   16    6        0.0000787002
    3    1   17    6        0.0007194974
    3    1   18    6        0.0000000076
    3    1   19    6       -0.0000000003
    3    1    7    7        0.0005167721
    3    1    8    7        0.0000702414
    3    1    9    7       -0.0003016951
    3    1   10    7       -0.0000000181
    3    1   11    7        0.0000000036
    3    1   12    7        0.0000000001
    3    1   13    7       -0.0004358735
    3    1   14    7        0.0000001189
    3    1   15    7        0.0000000077
    3    1   16    7       -0.0000000019
    3    1   17    7        0.0000000016
    3    1   18    7       -0.0000000015
    3    1   19    7       -0.0003949029
    3    1    8    8       -0.0001751538
    3    1    9    8       -0.0004156535
    3    1   10    8        0.0000000197
    3    1   11    8       -0.0000000040
    3    1   12    8       -0.0000000000
    3    1   13    8        0.0001385067
    3    1   14    8        0.0000000281
    3    1   15    8        0.0000000022
    3    1   16    8        0.0000000006
    3    1   17    8        0.0000000015
    3    1   18    8       -0.0000001176
    3    1   19    8        0.0002434443
    3    1    9    9        0.0007601149
    3    1   10    9       -0.0000000492
    3    1   11    9        0.0000000099
    3    1   12    9       -0.0000000000
    3    1   13    9        0.0002269308
    3    1   14    9        0.0000000130
    3    1   15    9        0.0000000012
    3    1   16    9        0.0000000008
    3    1   17    9       -0.0000000005
    3    1   18    9       -0.0000000179
    3    1   19    9        0.0008410629
    3    1   10   10        0.0011780452
    3    1   11   10        0.0000000002
    3    1   12   10       -0.0000000590
    3    1   13   10        0.0000000321
    3    1   14   10       -0.0001497515
    3    1   15   10        0.0000193902
    3    1   16   10       -0.0000000075
    3    1   17   10        0.0000000046
    3    1   18   10        0.0003624494
    3    1   19   10       -0.0000000076
    3    1   11   11        0.0011780049
    3    1   12   11        0.0000000116
    3    1   13   11       -0.0000000065
    3    1   14   11        0.0000194406
    3    1   15   11        0.0001505317
    3    1   16   11       -0.0000000385
    3    1   17   11        0.0000000225
    3    1   18   11       -0.0000000625
    3    1   19   11        0.0000000034
    3    1   12   12        0.0008570802
    3    1   13   12        0.0000000001
    3    1   14   12       -0.0000000469
    3    1   15   12       -0.0000000032
    3    1   16   12        0.0000000000
    3    1   17   12       -0.0000000000
    3    1   18   12       -0.0000000262
    3    1   19   12        0.0000000000
    3    1   13   13        0.0006512541
    3    1   14   13        0.0000000206
    3    1   15   13        0.0000000017
    3    1   16   13        0.0000000024
    3    1   17   13       -0.0000000025
    3    1   18   13        0.0000000275
    3    1   19   13        0.0000075432
    3    1   14   14        0.0004864685
    3    1   15   14       -0.0000000357
    3    1   16   14        0.0000000033
    3    1   17   14        0.0000000009
    3    1   18   14        0.0000960972
    3    1   19   14       -0.0000000135
    3    1   15   15        0.0004861707
    3    1   16   15       -0.0000000500
    3    1   17   15       -0.0000000122
    3    1   18   15       -0.0000124257
    3    1   19   15       -0.0000000015
    3    1   16   16        0.0002424234
    3    1   17   16       -0.0000368819
    3    1   18   16       -0.0000000035
    3    1   19   16       -0.0000000003
    3    1   17   17       -0.0002397937
    3    1   18   17       -0.0000000086
    3    1   19   17       -0.0000000027
    3    1   18   18       -0.0004123221
    3    1   19   18        0.0000000073
    3    1   19   19       -0.0003402003
    4    1    4    1        0.0009718654
    4    1    5    1        0.0000000000
    4    1    6    1       -0.0000000037
    4    1    7    1        0.0000000151
    4    1    8    1        0.0000000066
    4    1    9    1        0.0000000143
    4    1   10    1        0.0010655970
    4    1   11    1       -0.0000000184
    4    1   12    1       -0.0000000013
    4    1   13    1       -0.0000000160
    4    1   14    1       -0.0006827516
    4    1   15    1        0.0000883875
    4    1   16    1        0.0000000034
    4    1   17    1        0.0000000014
    4    1   18    1        0.0004940895
    4    1   19    1       -0.0000000034
    4    1    2    2        0.0000016347
    4    1    3    2       -0.0000042897
    4    1    4    2        0.0022302572
    4    1    5    2        0.0000000000
    4    1    6    2       -0.0000010274
    4    1    7    2        0.0000020502
    4    1    8    2       -0.0000012960
    4    1    9    2        0.0000005930
    4    1   10    2        0.0017087583
    4    1   11    2       -0.0000000304
    4    1   12    2       -0.0000000135
    4    1   13    2       -0.0000006808
    4    1   14    2       -0.0004435804
    4    1   15    2        0.0000574256
    4    1   16    2        0.0000002972
    4    1   17    2       -0.0000001171
    4    1   18    2        0.0000420909
    4    1   19    2        0.0000006807
    4    1    3    3        0.0000134173
    4    1    4    3        0.0000423347
    4    1    5    3       -0.0000000001
    4    1    6    3        0.0000024827
    4    1    7    3       -0.0000059882
    4    1    8    3        0.0000008216
    4    1    9    3        0.0000030872
    4    1   10    3        0.0010736169
    4    1   11    3       -0.0000000195
    4    1   12    3        0.0000000204
    4    1   13    3       -0.0000009091
    4    1   14    3       -0.0000040530
    4    1   15    3        0.0000005321
    4    1   16    3       -0.0000005135
    4    1   17    3       -0.0000004393
    4    1   18    3       -0.0001669648
    4    1   19    3       -0.0000015662
    4    1    4    4        0.0000023672
    4    1    5    4        0.0000004750
    4    1    6    4       -0.0002801047
    4    1    7    4        0.0007711263
    4    1    8    4        0.0000741608
    4    1    9    4        0.0001734283
    4    1   10    4       -0.0000042393
    4    1   11    4        0.0000008512
    4    1   12    4       -0.0013961422
    4    1   13    4       -0.0005860222
    4    1   14    4       -0.0000027184
    4    1   15    4       -0.0000001879
    4    1   16    4        0.0001581956
    4    1   17    4       -0.0000971063
    4    1   18    4       -0.0000019201
    4    1   19    4       -0.0002742319
    4    1    5    5        0.0000027244
    4    1    6    5        0.0006714651
    4    1    7    5        0.0000000001
    4    1    8    5       -0.0000000000
    4    1    9    5       -0.0000000000
    4    1   10    5       -0.0000008521
    4    1   11    5        0.0000049319
    4    1   12    5       -0.0005825585
    4    1   13    5        0.0000000002
    4    1   14    5       -0.0000009317
    4    1   15    5       -0.0000030076
    4    1   16    5       -0.0003794083
    4    1   17    5        0.0002328324
    4    1   18    5       -0.0000003855
    4    1   19    5       -0.0000000003
    4    1    6    6        0.0000187389
    4    1    7    6       -0.0000009878
    4    1    8    6        0.0000003666
    4    1    9    6       -0.0000012398
    4    1   10    6       -0.0002869010
    4    1   11    6       -0.0006878782
    4    1   12    6       -0.0000000001
    4    1   13    6        0.0000014672
    4    1   14    6       -0.0000301860
    4    1   15    6        0.0001100110
    4    1   16    6       -0.0000051020
    4    1   17    6       -0.0000005094
    4    1   18    6       -0.0001513646
    4    1   19    6       -0.0000006427
    4    1    7    7        0.0000108134
    4    1    8    7        0.0000010564
    4    1    9    7        0.0000029690
    4    1   10    7        0.0006460651
    4    1   11    7       -0.0000000099
    4    1   12    7       -0.0000000086
    4    1   13    7        0.0000075600
    4    1   14    7       -0.0012904029
    4    1   15    7        0.0001670299
    4    1   16    7        0.0000022992
    4    1   17    7        0.0000002043
    4    1   18    7        0.0001355469
    4    1   19    7        0.0000011942
    4    1    8    8        0.0000151185
    4    1    9    8       -0.0000006164
    4    1   10    8        0.0000403018
    4    1   11    8       -0.0000000002
    4    1   12    8        0.0000000048
    4    1   13    8       -0.0000004388
    4    1   14    8       -0.0003685184
    4    1   15    8        0.0000477044
    4    1   16    8        0.0000004983
    4    1   17    8        0.0000027589
    4    1   18    8        0.0010560398
    4    1   19    8        0.0000060438
    4    1    9    9        0.0000157192
    4    1   10    9       -0.0000170747
    4    1   11    9        0.0000000004
    4    1   12    9       -0.0000000029
    4    1   13    9       -0.0000054255
    4    1   14    9       -0.0001000074
    4    1   15    9        0.0000129400
    4    1   16    9        0.0000016637
    4    1   17    9       -0.0000003326
    4    1   18    9        0.0002158223
    4    1   19    9        0.0000012159
    4    1   10   10        0.0000083118
    4    1   11   10       -0.0000016656
    4    1   12   10       -0.0000336251
    4    1   13   10       -0.0007344896
    4    1   14   10        0.0000042868
    4    1   15   10        0.0000002964
    4    1   16   10        0.0002154324
    4    1   17   10       -0.0001178197
    4    1   18   10        0.0000021513
    4    1   19   10       -0.0002066810
    4    1   11   11        0.0000096822
    4    1   12   11        0.0000139775
    4    1   13   11        0.0000000126
    4    1   14   11       -0.0000014667
    4    1   15   11       -0.0000047553
    4    1   16   11        0.0005169238
    4    1   17   11       -0.0002824763
    4    1   18   11       -0.0000004301
    4    1   19   11        0.0000000035
    4    1   12   12        0.0000000026
    4    1   13   12        0.0000000032
    4    1   14   12        0.0005944087
    4    1   15   12        0.0001622175
    4    1   16   12       -0.0000000007
    4    1   17   12       -0.0000000006
    4    1   18   12        0.0001490622
    4    1   19   12        0.0000000011
    4    1   13   13        0.0000169109
    4    1   14   13        0.0002974779
    4    1   15   13       -0.0000385166
    4    1   16   13        0.0000004925
    4    1   17   13       -0.0000002541
    4    1   18   13       -0.0002807906
    4    1   19   13       -0.0000002258
    4    1   14   14        0.0000065602
    4    1   15   14        0.0000013374
    4    1   16   14       -0.0001078813
    4    1   17   14       -0.0000264330
    4    1   18   14        0.0000007409
    4    1   19   14        0.0004322941
    4    1   15   15        0.0000069018
    4    1   16   15        0.0003954514
    4    1   17   15        0.0000973880
    4    1   18   15        0.0000000484
    4    1   19   15       -0.0000559623
    4    1   16   16        0.0000196711
    4    1   17   16        0.0000019209
    4    1   18   16        0.0000929264
    4    1   19   16       -0.0000002151
    4    1   17   17        0.0000196202
    4    1   18   17        0.0001059922
    4    1   19   17       -0.0000006084
    4    1   18   18        0.0000069943
    4    1   19   18       -0.0004330502
    4    1   19   19        0.0000169430
    5    1    5    1        0.0009726121
    5    1    6    1        0.0000000183
    5    1    7    1        0.0000000030
    5    1    8    1        0.0000000013
    5    1    9    1        0.0000000029
    5    1   10    1       -0.0000000194
    5    1   11    1       -0.0010661141
    5    1   12    1        0.0000000001
    5    1   13    1       -0.0000000026
    5    1   14    1       -0.0000884249
    5    1   15    1       -0.0006837264
    5    1   16    1       -0.0000000156
    5    1   17    1       -0.0000000064
    5    1   18    1        0.0000000761
    5    1   19    1       -0.0000000033
    5    1    2    2        0.0000003275
    5    1    3    2       -0.0000008594
    5    1    4    2        0.0000000001
    5    1    5    2        0.0022312677
    5    1    6    2        0.0000051320
    5    1    7    2        0.0000004107
    5    1    8    2       -0.0000002596
    5    1    9    2        0.0000001188
    5    1   10    2       -0.0000000310
    5    1   11    2       -0.0017094782
    5    1   12    2       -0.0000000027
    5    1   13    2       -0.0000001360
    5    1   14    2       -0.0000573967
    5    1   15    2       -0.0004435532
    5    1   16    2       -0.0000014831
    5    1   17    2        0.0000005848
    5    1   18    2        0.0000000065
    5    1   19    2        0.0000001362
    5    1    3    3        0.0000026879
    5    1    4    3        0.0000000000
    5    1    5    3        0.0000425140
    5    1    6    3       -0.0000124014
    5    1    7    3       -0.0000011996
    5    1    8    3        0.0000001645
    5    1    9    3        0.0000006185
    5    1   10    3       -0.0000000195
    5    1   11    3       -0.0010739878
    5    1   12    3        0.0000000039
    5    1   13    3       -0.0000001821
    5    1   14    3       -0.0000004829
    5    1   15    3       -0.0000036283
    5    1   16    3        0.0000025663
    5    1   17    3        0.0000021945
    5    1   18    3       -0.0000000257
    5    1   19    3       -0.0000003129
    5    1    4    4        0.0000014903
    5    1    5    4       -0.0000023387
    5    1    6    4        0.0006715104
    5    1    7    4       -0.0000000000
    5    1    8    4       -0.0000000001
    5    1    9    4       -0.0000000000
    5    1   10    4       -0.0000026893
    5    1   11    4       -0.0000042356
    5    1   12    4       -0.0005827444
    5    1   13    4        0.0000000001
    5    1   14    4       -0.0000013382
    5    1   15    4        0.0000028545
    5    1   16    4       -0.0003792694
    5    1   17    4        0.0002327806
    5    1   18    4       -0.0000012157
    5    1   19    4       -0.0000000002
    5    1    5    5       -0.0000004692
    5    1    6    5        0.0002802715
    5    1    7    5        0.0007715776
    5    1    8    5        0.0000745550
    5    1    9    5        0.0001735025
    5    1   10    5        0.0000042410
    5    1   11    5       -0.0000008516
    5    1   12    5        0.0013965762
    5    1   13    5       -0.0005865584
    5    1   14    5        0.0000027213
    5    1   15    5        0.0000001867
    5    1   16    5       -0.0001583740
    5    1   17    5        0.0000971775
    5    1   18    5        0.0000019142
    5    1   19    5       -0.0002744817
    5    1    6    6        0.0000037540
    5    1    7    6        0.0000049342
    5    1    8    6       -0.0000018308
    5    1    9    6        0.0000061928
    5    1   10    6        0.0006877640
    5    1   11    6       -0.0002871353
    5    1   12    6        0.0000000020
    5    1   13    6       -0.0000073292
    5    1   14    6        0.0001104953
    5    1   15    6        0.0000299837
    5    1   16    6       -0.0000010221
    5    1   17    6       -0.0000001020
    5    1   18    6        0.0003630423
    5    1   19    6        0.0000032000
    5    1    7    7        0.0000021663
    5    1    8    7        0.0000002116
    5    1    9    7        0.0000005948
    5    1   10    7       -0.0000000121
    5    1   11    7       -0.0006468120
    5    1   12    7       -0.0000000016
    5    1   13    7        0.0000015157
    5    1   14    7       -0.0001670744
    5    1   15    7       -0.0012909786
    5    1   16    7       -0.0000114845
    5    1   17    7       -0.0000010207
    5    1   18    7        0.0000000209
    5    1   19    7        0.0000002386
    5    1    8    8        0.0000030288
    5    1    9    8       -0.0000001235
    5    1   10    8       -0.0000000007
    5    1   11    8       -0.0000400336
    5    1   12    8        0.0000000017
    5    1   13    8       -0.0000000876
    5    1   14    8       -0.0000478112
    5    1   15    8       -0.0003703804
    5    1   16    8       -0.0000024893
    5    1   17    8       -0.0000137798
    5    1   18    8        0.0000001626
    5    1   19    8        0.0000012052
    5    1    9    9        0.0000031491
    5    1   10    9        0.0000000004
    5    1   11    9        0.0000172048
    5    1   12    9       -0.0000000004
    5    1   13    9       -0.0000010868
    5    1   14    9       -0.0000129697
    5    1   15    9       -0.0001003652
    5    1   16    9       -0.0000083113
    5    1   17    9        0.0000016617
    5    1   18    9        0.0000000332
    5    1   19    9        0.0000002424
    5    1   10   10        0.0000052695
    5    1   11   10        0.0000083029
    5    1   12   10       -0.0000140300
    5    1   13   10        0.0000000136
    5    1   14   10        0.0000021062
    5    1   15   10       -0.0000045149
    5    1   16   10       -0.0005164564
    5    1   17   10        0.0002824250
    5    1   18   10        0.0000013672
    5    1   19   10        0.0000000034
    5    1   11   11       -0.0000016642
    5    1   12   11       -0.0000334953
    5    1   13   11        0.0007352248
    5    1   14   11        0.0000042741
    5    1   15   11        0.0000002972
    5    1   16   11        0.0002157823
    5    1   17   11       -0.0001179059
    5    1   18   11        0.0000021556
    5    1   19   11        0.0002068774
    5    1   12   12        0.0000000003
    5    1   13   12        0.0000000010
    5    1   14   12        0.0001624004
    5    1   15   12       -0.0005943826
    5    1   16   12        0.0000000026
    5    1   17   12        0.0000000021
    5    1   18   12        0.0000621727
    5    1   19   12        0.0000000008
    5    1   13   13        0.0000033873
    5    1   14   13        0.0000385240
    5    1   15   13        0.0002979783
    5    1   16   13       -0.0000024633
    5    1   17   13        0.0000012689
    5    1   18   13       -0.0000000433
    5    1   19   13       -0.0000000441
    5    1   14   14        0.0000022768
    5    1   15   14       -0.0000066694
    5    1   16   14        0.0003952270
    5    1   17   14        0.0000969412
    5    1   18   14        0.0000003644
    5    1   19   14        0.0000560062
    5    1   15   15        0.0000004212
    5    1   16   15        0.0001080670
    5    1   17   15        0.0000266681
    5    1   18   15       -0.0000007740
    5    1   19   15        0.0004331540
    5    1   16   16        0.0000039404
    5    1   17   16        0.0000003848
    5    1   18   16       -0.0002228872
    5    1   19   16        0.0000010804
    5    1   17   17        0.0000039305
    5    1   18   17       -0.0002542377
    5    1   19   17        0.0000030457
    5    1   18   18        0.0000044288
    5    1   19   18       -0.0000000665
    5    1   19   19        0.0000033989
    6    1    6    1        0.0000202779
    6    1    7    1        0.0000000001
    6    1    8    1        0.0000000001
    6    1    9    1       -0.0000000001
    6    1   10    1       -0.0000000034
    6    1   11    1       -0.0000000171
    6    1   12    1        0.0000000000
    6    1   13    1       -0.0000000001
    6    1   14    1        0.0000000009
    6    1   15    1       -0.0000000130
    6    1   16    1       -0.0000265329
    6    1   17    1       -0.0000015992
    6    1   18    1       -0.0000000021
    6    1   19    1       -0.0000000002
    6    1    2    2        0.0000000001
    6    1    3    2        0.0000000000
    6    1    4    2       -0.0000000291
    6    1    5    2        0.0000001453
    6    1    6    2        0.0001240823
    6    1    7    2       -0.0000000000
    6    1    8    2       -0.0000000000
    6    1    9    2       -0.0000000000
    6    1   10    2       -0.0000000103
    6    1   11    2       -0.0000000516
    6    1   12    2        0.0000000000
    6    1   13    2        0.0000000001
    6    1   14    2        0.0000000003
    6    1   15    2       -0.0000000046
    6    1   16    2       -0.0000782297
    6    1   17    2        0.0000525831
    6    1   18    2        0.0000000004
    6    1   19    2       -0.0000000000
    6    1    3    3        0.0000000000
    6    1    4    3        0.0000000220
    6    1    5    3       -0.0000001096
    6    1    6    3       -0.0000797374
    6    1    7    3        0.0000000000
    6    1    8    3        0.0000000000
    6    1    9    3       -0.0000000000
    6    1   10    3       -0.0000000159
    6    1   11    3       -0.0000000794
    6    1   12    3       -0.0000000000
    6    1   13    3        0.0000000000
    6    1   14    3       -0.0000000015
    6    1   15    3        0.0000000212
    6    1   16    3        0.0000305241
    6    1   17    3        0.0000299424
    6    1   18    3        0.0000000065
    6    1   19    3       -0.0000000000
    6    1    4    4       -0.0000521971
    6    1    5    4        0.0001251338
    6    1    6    4        0.0000001107
    6    1    7    4       -0.0000000106
    6    1    8    4        0.0000000047
    6    1    9    4       -0.0000000122
    6    1   10    4       -0.0000641901
    6    1   11    4       -0.0001539017
    6    1   12    4       -0.0000000337
    6    1   13    4        0.0000000059
    6    1   14    4        0.0000021574
    6    1   15    4       -0.0000079700
    6    1   16    4       -0.0000000418
    6    1   17    4        0.0000000274
    6    1   18    4       -0.0000225489
    6    1   19    4       -0.0000000013
    6    1    5    5        0.0000522307
    6    1    6    5        0.0000000222
    6    1    7    5        0.0000000529
    6    1    8    5       -0.0000000236
    6    1    9    5        0.0000000607
    6    1   10    5        0.0001538619
    6    1   11    5       -0.0000642353
    6    1   12    5        0.0000001686
    6    1   13    5       -0.0000000296
    6    1   14    5       -0.0000079346
    6    1   15    5       -0.0000021927
    6    1   16    5       -0.0000000083
    6    1   17    5        0.0000000055
    6    1   18    5        0.0000540594
    6    1   19    5        0.0000000048
    6    1    6    6        0.0000000000
    6    1    7    6        0.0000765017
    6    1    8    6       -0.0000010912
    6    1    9    6        0.0001110628
    6    1   10    6        0.0000000857
    6    1   11    6       -0.0000000172
    6    1   12    6        0.0000000000
    6    1   13    6       -0.0001006734
    6    1   14    6        0.0000000322
    6    1   15    6        0.0000000021
    6    1   16    6        0.0000000000
    6    1   17    6        0.0000000001
    6    1   18    6        0.0000000628
    6    1   19    6        0.0000043238
    6    1    7    7       -0.0000000000
    6    1    8    7       -0.0000000000
    6    1    9    7       -0.0000000000
    6    1   10    7       -0.0000000059
    6    1   11    7       -0.0000000294
    6    1   12    7        0.0000000000
    6    1   13    7        0.0000000001
    6    1   14    7        0.0000000120
    6    1   15    7       -0.0000001735
    6    1   16    7       -0.0001494719
    6    1   17    7       -0.0000032754
    6    1   18    7       -0.0000000007
    6    1   19    7       -0.0000000001
    6    1    8    8       -0.0000000000
    6    1    9    8       -0.0000000000
    6    1   10    8        0.0000000052
    6    1   11    8        0.0000000263
    6    1   12    8        0.0000000000
    6    1   13    8       -0.0000000000
    6    1   14    8        0.0000000032
    6    1   15    8       -0.0000000465
    6    1   16    8       -0.0000359203
    6    1   17    8       -0.0001250903
    6    1   18    8       -0.0000000344
    6    1   19    8        0.0000000001
    6    1    9    9        0.0000000000
    6    1   10    9       -0.0000000158
    6    1   11    9       -0.0000000787
    6    1   12    9        0.0000000000
    6    1   13    9        0.0000000000
    6    1   14    9        0.0000000018
    6    1   15    9       -0.0000000253
    6    1   16    9       -0.0000984723
    6    1   17    9        0.0000011369
    6    1   18    9       -0.0000000062
    6    1   19    9        0.0000000000
    6    1   10   10       -0.0000429545
    6    1   11   10       -0.0001029885
    6    1   12   10        0.0000000180
    6    1   13   10        0.0000000102
    6    1   14   10        0.0000190448
    6    1   15   10       -0.0000697500
    6    1   16   10       -0.0000000564
    6    1   17   10        0.0000000381
    6    1   18   10       -0.0000077864
    6    1   19   10       -0.0000000024
    6    1   11   11        0.0000430011
    6    1   12   11        0.0000000900
    6    1   13   11        0.0000000507
    6    1   14   11        0.0000698158
    6    1   15   11        0.0000190731
    6    1   16   11        0.0000000113
    6    1   17   11       -0.0000000076
    6    1   18   11       -0.0000186791
    6    1   19   11       -0.0000000116
    6    1   12   12        0.0000000000
    6    1   13   12       -0.0000000000
    6    1   14   12        0.0000000047
    6    1   15   12       -0.0000000685
    6    1   16   12       -0.0000000000
    6    1   17   12        0.0000000000
    6    1   18   12        0.0000000092
    6    1   19   12        0.0000000000
    6    1   13   13       -0.0000000000
    6    1   14   13        0.0000000020
    6    1   15   13       -0.0000000288
    6    1   16   13        0.0000716257
    6    1   17   13       -0.0000004166
    6    1   18   13        0.0000000076
    6    1   19   13        0.0000000001
    6    1   14   14       -0.0000024762
    6    1   15   14        0.0000179214
    6    1   16   14        0.0000000780
    6    1   17   14        0.0000000205
    6    1   18   14        0.0000089509
    6    1   19   14       -0.0000000017
    6    1   15   15        0.0000025045
    6    1   16   15        0.0000000054
    6    1   17   15        0.0000000014
    6    1   18   15       -0.0000328364
    6    1   19   15        0.0000000265
    6    1   16   16       -0.0000000002
    6    1   17   16       -0.0000000002
    6    1   18   16       -0.0000000261
    6    1   19   16        0.0000499001
    6    1   17   17        0.0000000001
    6    1   18   17       -0.0000000666
    6    1   19   17        0.0000928544
    6    1   18   18       -0.0000085379
    6    1   19   18        0.0000000028
    6    1   19   19       -0.0000000001
    7    1    7    1        0.0011749129
    7    1    8    1        0.0008332833
    7    1    9    1       -0.0005672106
    7    1   10    1        0.0000000123
    7    1   11    1       -0.0000000025
    7    1   12    1        0.0000000003
    7    1   13    1       -0.0011915681
    7    1   14    1        0.0000000043
    7    1   15    1       -0.0000000011
    7    1   16    1       -0.0000000021
    7    1   17    1       -0.0000000220
    7    1   18    1        0.0000000078
    7    1   19    1       -0.0013633486
    7    1    2    2        0.0012723656
    7    1    3    2        0.0005418974
    7    1    4    2        0.0000000880
    7    1    5    2        0.0000000176
    7    1    6    2       -0.0000000000
    7    1    7    2        0.0000368595
    7    1    8    2       -0.0000872304
    7    1    9    2       -0.0003000818
    7    1   10    2        0.0000000318
    7    1   11    2       -0.0000000064
    7    1   12    2       -0.0000000000
    7    1   13    2        0.0000360238
    7    1   14    2       -0.0000000104
    7    1   15    2       -0.0000000007
    7    1   16    2        0.0000000001
    7    1   17    2        0.0000000038
    7    1   18    2       -0.0000000010
    7    1   19    2        0.0001667073
    7    1    3    3        0.0004489433
    7    1    4    3       -0.0000000681
    7    1    5    3       -0.0000000136
    7    1    6    3        0.0000000000
    7    1    7    3       -0.0000285397
    7    1    8    3        0.0004196162
    7    1    9    3       -0.0002697025
    7    1   10    3        0.0000000521
    7    1   11    3       -0.0000000104
    7    1   12    3        0.0000000000
    7    1   13    3       -0.0000033838
    7    1   14    3        0.0000000242
    7    1   15    3        0.0000000017
    7    1   16    3       -0.0000000003
    7    1   17    3        0.0000000012
    7    1   18    3       -0.0000000209
    7    1   19    3       -0.0001785348
    7    1    4    4        0.0007610663
    7    1    5    4        0.0000000000
    7    1    6    4       -0.0000000124
    7    1    7    4        0.0000000412
    7    1    8    4       -0.0000000100
    7    1    9    4        0.0000000370
    7    1   10    4        0.0005119213
    7    1   11    4       -0.0000000092
    7    1   12    4       -0.0000001050
    7    1   13    4       -0.0000000136
    7    1   14    4       -0.0000124111
    7    1   15    4        0.0000016072
    7    1   16    4        0.0000000059
    7    1   17    4       -0.0000000032
    7    1   18    4       -0.0003533102
    7    1   19    4       -0.0000000010
    7    1    5    5        0.0007610282
    7    1    6    5        0.0000000619
    7    1    7    5        0.0000000083
    7    1    8    5       -0.0000000020
    7    1    9    5        0.0000000074
    7    1   10    5       -0.0000000094
    7    1   11    5       -0.0005121940
    7    1   12    5       -0.0000000213
    7    1   13    5       -0.0000000027
    7    1   14    5       -0.0000015587
    7    1   15    5       -0.0000117263
    7    1   16    5       -0.0000000291
    7    1   17    5        0.0000000155
    7    1   18    5       -0.0000000544
    7    1   19    5        0.0000000017
    7    1    6    6        0.0003457790
    7    1    7    6       -0.0000000000
    7    1    8    6       -0.0000000000
    7    1    9    6       -0.0000000000
    7    1   10    6       -0.0000000104
    7    1   11    6       -0.0000000520
    7    1   12    6        0.0000000000
    7    1   13    6        0.0000000003
    7    1   14    6       -0.0000000008
    7    1   15    6        0.0000000117
    7    1   16    6       -0.0000857180
    7    1   17    6        0.0004131648
    7    1   18    6       -0.0000000083
    7    1   19    6       -0.0000000002
    7    1    7    7        0.0001999057
    7    1    8    7        0.0000557948
    7    1    9    7        0.0000236466
    7    1   10    7        0.0000000141
    7    1   11    7       -0.0000000028
    7    1   12    7       -0.0000000000
    7    1   13    7       -0.0000623656
    7    1   14    7       -0.0000001101
    7    1   15    7       -0.0000000077
    7    1   16    7       -0.0000000008
    7    1   17    7        0.0000000017
    7    1   18    7        0.0000000065
    7    1   19    7       -0.0002032857
    7    1    8    8       -0.0001355736
    7    1    9    8       -0.0001994288
    7    1   10    8       -0.0000000161
    7    1   11    8        0.0000000032
    7    1   12    8       -0.0000000000
    7    1   13    8        0.0000770326
    7    1   14    8       -0.0000000312
    7    1   15    8       -0.0000000021
    7    1   16    8        0.0000000005
    7    1   17    8        0.0000000018
    7    1   18    8        0.0000001119
    7    1   19    8        0.0002715305
    7    1    9    9        0.0002839536
    7    1   10    9        0.0000000488
    7    1   11    9       -0.0000000098
    7    1   12    9        0.0000000000
    7    1   13    9       -0.0000341650
    7    1   14    9       -0.0000000190
    7    1   15    9       -0.0000000013
    7    1   16    9        0.0000000005
    7    1   17    9       -0.0000000004
    7    1   18    9        0.0000000200
    7    1   19    9        0.0004460288
    7    1   10   10        0.0005407952
    7    1   11   10        0.0000000000
    7    1   12   10        0.0000000542
    7    1   13   10       -0.0000000350
    7    1   14   10       -0.0000378794
    7    1   15   10        0.0000049057
    7    1   16   10        0.0000000074
    7    1   17   10       -0.0000000040
    7    1   18   10        0.0002232067
    7    1   19   10        0.0000000015
    7    1   11   11        0.0005408680
    7    1   12   11       -0.0000000110
    7    1   13   11        0.0000000070
    7    1   14   11        0.0000049248
    7    1   15   11        0.0000382595
    7    1   16   11        0.0000000367
    7    1   17   11       -0.0000000201
    7    1   18   11       -0.0000000384
    7    1   19   11        0.0000000009
    7    1   12   12        0.0005072499
    7    1   13   12        0.0000000001
    7    1   14   12        0.0000000525
    7    1   15   12        0.0000000036
    7    1   16   12       -0.0000000000
    7    1   17   12       -0.0000000000
    7    1   18   12        0.0000000243
    7    1   19   12        0.0000000000
    7    1   13   13        0.0002155550
    7    1   14   13       -0.0000000217
    7    1   15   13       -0.0000000015
    7    1   16   13        0.0000000009
    7    1   17   13       -0.0000000023
    7    1   18   13       -0.0000000230
    7    1   19   13       -0.0000188512
    7    1   14   14        0.0002799977
    7    1   15   14       -0.0000000095
    7    1   16   14       -0.0000000031
    7    1   17   14       -0.0000000008
    7    1   18   14        0.0000246594
    7    1   19   14        0.0000000127
    7    1   15   15        0.0002799072
    7    1   16   15        0.0000000444
    7    1   17   15        0.0000000117
    7    1   18   15       -0.0000031890
    7    1   19   15        0.0000000006
    7    1   16   16        0.0002412447
    7    1   17   16        0.0000083726
    7    1   18   16        0.0000000039
    7    1   19   16       -0.0000000006
    7    1   17   17       -0.0001100120
    7    1   18   17        0.0000000079
    7    1   19   17       -0.0000000031
    7    1   18   18       -0.0002642613
    7    1   19   18       -0.0000000063
    7    1   19   19       -0.0003547820
    8    1    8    1        0.0007036651
    8    1    9    1       -0.0002720350
    8    1   10    1        0.0000000042
    8    1   11    1       -0.0000000008
    8    1   12    1        0.0000000003
    8    1   13    1       -0.0008329736
    8    1   14    1        0.0000000055
    8    1   15    1       -0.0000000006
    8    1   16    1       -0.0000000011
    8    1   17    1       -0.0000000200
    8    1   18    1        0.0000000045
    8    1   19    1       -0.0011652666
    8    1    2    2       -0.0001813062
    8    1    3    2       -0.0000573487
    8    1    4    2        0.0000000082
    8    1    5    2        0.0000000017
    8    1    6    2       -0.0000000000
    8    1    7    2       -0.0001889166
    8    1    8    2       -0.0000845682
    8    1    9    2        0.0000152932
    8    1   10    2        0.0000000010
    8    1   11    2       -0.0000000002
    8    1   12    2       -0.0000000000
    8    1   13    2        0.0002100293
    8    1   14    2       -0.0000000128
    8    1   15    2       -0.0000000006
    8    1   16    2        0.0000000004
    8    1   17    2        0.0000000034
    8    1   18    2        0.0000000109
    8    1   19    2        0.0001945407
    8    1    3    3       -0.0000303633
    8    1    4    3       -0.0000000135
    8    1    5    3       -0.0000000027
    8    1    6    3       -0.0000000000
    8    1    7    3       -0.0000653306
    8    1    8    3       -0.0000370305
    8    1    9    3        0.0000186689
    8    1   10    3        0.0000000191
    8    1   11    3       -0.0000000038
    8    1   12    3       -0.0000000000
    8    1   13    3        0.0000888678
    8    1   14    3        0.0000000138
    8    1   15    3        0.0000000011
    8    1   16    3        0.0000000001
    8    1   17    3        0.0000000013
    8    1   18    3       -0.0000000358
    8    1   19    3        0.0000603775
    8    1    4    4       -0.0000801209
    8    1    5    4       -0.0000000000
    8    1    6    4       -0.0000000010
    8    1    7    4        0.0000000147
    8    1    8    4        0.0000000259
    8    1    9    4        0.0000000039
    8    1   10    4       -0.0000817406
    8    1   11    4        0.0000000014
    8    1   12    4       -0.0000000147
    8    1   13    4       -0.0000000023
    8    1   14    4        0.0000995342
    8    1   15    4       -0.0000128848
    8    1   16    4        0.0000000022
    8    1   17    4        0.0000000035
    8    1   18    4       -0.0000525632
    8    1   19    4       -0.0000000099
    8    1    5    5       -0.0000801903
    8    1    6    5        0.0000000052
    8    1    7    5        0.0000000030
    8    1    8    5        0.0000000052
    8    1    9    5        0.0000000008
    8    1   10    5        0.0000000015
    8    1   11    5        0.0000818183
    8    1   12    5       -0.0000000030
    8    1   13    5       -0.0000000006
    8    1   14    5        0.0000128896
    8    1   15    5        0.0000996436
    8    1   16    5       -0.0000000109
    8    1   17    5       -0.0000000175
    8    1   18    5       -0.0000000081
    8    1   19    5       -0.0000000017
    8    1    6    6       -0.0000211281
    8    1    7    6       -0.0000000000
    8    1    8    6       -0.0000000000
    8    1    9    6       -0.0000000000
    8    1   10    6       -0.0000000008
    8    1   11    6       -0.0000000040
    8    1   12    6       -0.0000000000
    8    1   13    6        0.0000000000
    8    1   14    6        0.0000000004
    8    1   15    6       -0.0000000059
    8    1   16    6        0.0000243966
    8    1   17    6       -0.0000117425
    8    1   18    6       -0.0000000047
    8    1   19    6        0.0000000000
    8    1    7    7       -0.0000798952
    8    1    8    7       -0.0000526704
    8    1    9    7        0.0000155843
    8    1   10    7        0.0000000033
    8    1   11    7       -0.0000000007
    8    1   12    7       -0.0000000000
    8    1   13    7        0.0000684435
    8    1   14    7       -0.0000000294
    8    1   15    7       -0.0000000020
    8    1   16    7        0.0000000001
    8    1   17    7        0.0000000016
    8    1   18    7        0.0000000062
    8    1   19    7        0.0000891362
    8    1    8    8       -0.0000566994
    8    1    9    8       -0.0000032936
    8    1   10    8       -0.0000000196
    8    1   11    8        0.0000000039
    8    1   12    8       -0.0000000000
    8    1   13    8        0.0000595095
    8    1   14    8       -0.0000000111
    8    1   15    8       -0.0000000007
    8    1   16    8        0.0000000001
    8    1   17    8        0.0000000015
    8    1   18    8        0.0000000545
    8    1   19    8        0.0000988566
    8    1    9    9       -0.0000237610
    8    1   10    9        0.0000000096
    8    1   11    9       -0.0000000019
    8    1   12    9        0.0000000000
    8    1   13    9       -0.0000249959
    8    1   14    9       -0.0000000088
    8    1   15    9       -0.0000000006
    8    1   16    9        0.0000000000
    8    1   17    9       -0.0000000003
    8    1   18    9        0.0000000053
    8    1   19    9       -0.0000044144
    8    1   10   10       -0.0000996612
    8    1   11   10       -0.0000000001
    8    1   12   10        0.0000000129
    8    1   13   10       -0.0000000046
    8    1   14   10        0.0000851647
    8    1   15   10       -0.0000110266
    8    1   16   10        0.0000000022
    8    1   17   10        0.0000000004
    8    1   18   10       -0.0000684327
[...]
   16   13   16   16        0.0000000037
   16   13   17   16       -0.0000000016
   16   13   18   16       -0.0000103982
   16   13   19   16       -0.0001784880
   16   13   17   17       -0.0000000032
   16   13   18   17        0.0000083672
   16   13   19   17        0.0002619026
   16   13   18   18       -0.0001419043
   16   13   19   18        0.0000016196
   16   13   19   19        0.0000000003
   17   13   17   13        0.0021135688
   17   13   18   13        0.0000022969
   17   13   19   13        0.0000000041
   17   13   14   14        0.0000287115
   17   13   15   14       -0.0002082288
   17   13   16   14        0.0000025426
   17   13   17   14       -0.0000105403
   17   13   18   14       -0.0001023010
   17   13   19   14        0.0000006276
   17   13   15   15       -0.0000291599
   17   13   16   15        0.0000001747
   17   13   17   15       -0.0000007178
   17   13   18   15        0.0003733808
   17   13   19   15       -0.0000090957
   17   13   16   16       -0.0000000048
   17   13   17   16       -0.0000000050
   17   13   18   16       -0.0000003636
   17   13   19   16       -0.0000144463
   17   13   17   17        0.0000000090
   17   13   18   17       -0.0000296848
   17   13   19   17        0.0004224467
   17   13   18   18       -0.0003633476
   17   13   19   18        0.0000028532
   17   13   19   19        0.0000000012
   18   13   18   13        0.0011091677
   18   13   19   13        0.0000079026
   18   13   14   14       -0.0000219724
   18   13   15   14       -0.0000039591
   18   13   16   14        0.0001235315
   18   13   17   14       -0.0000013499
   18   13   18   14       -0.0000048463
   18   13   19   14       -0.0004938636
   18   13   15   15       -0.0000069824
   18   13   16   15       -0.0004532410
   18   13   17   15        0.0000035907
   18   13   18   15       -0.0000010780
   18   13   19   15        0.0000638407
   18   13   16   16       -0.0000424799
   18   13   17   16       -0.0000015391
   18   13   18   16       -0.0001515324
   18   13   19   16        0.0000006088
   18   13   17   17       -0.0000532939
   18   13   18   17       -0.0002889585
   18   13   19   17        0.0000012807
   18   13   18   18       -0.0000263583
   18   13   19   18        0.0001104777
   18   13   19   19       -0.0000419323
   19   13   19   13        0.0033851901
   19   13   14   14        0.0006969605
   19   13   15   14        0.0000005021
   19   13   16   14        0.0000009951
   19   13   17   14        0.0000008187
   19   13   18   14       -0.0015723132
   19   13   19   14       -0.0000280046
   19   13   15   15        0.0007016888
   19   13   16   15       -0.0000143728
   19   13   17   15       -0.0000118543
   19   13   18   15        0.0002032335
   19   13   19   15       -0.0000019206
   19   13   16   16        0.0000219129
   19   13   17   16        0.0004203453
   19   13   18   16        0.0000011556
   19   13   19   16       -0.0000000003
   19   13   17   17        0.0019139377
   19   13   18   17        0.0000021904
   19   13   19   17       -0.0000000005
   19   13   18   18        0.0009214234
   19   13   19   18       -0.0000057725
   19   13   19   19        0.0010299893
   14   14   14   14        0.0790689508
   14   14   15   14        0.0005197448
   14   14   16   14        0.0000043405
   14   14   17   14        0.0000011231
   14   14   18   14       -0.0022963081
   14   14   19   14       -0.0000126625
   14   14   15   15        0.0671929233
   14   14   16   15       -0.0000148448
   14   14   17   15       -0.0000051189
   14   14   18   15       -0.0002742926
   14   14   19   15       -0.0000003540
   14   14   16   16        0.0671025111
   14   14   17   16        0.0019770702
   14   14   18   16        0.0000003500
   14   14   19   16       -0.0000717185
   14   14   17   17        0.0632047265
   14   14   18   17       -0.0000058693
   14   14   19   17       -0.0000728240
   14   14   18   18        0.0693268712
   14   14   19   18        0.0000418414
   14   14   19   19        0.0626142946
   15   14   15   14        0.0022685538
   15   14   16   14       -0.0000233869
   15   14   17   14       -0.0000054299
   15   14   18   14       -0.0003099686
   15   14   19   14       -0.0000020308
   15   14   15   15       -0.0005199428
   15   14   16   15       -0.0000070699
   15   14   17   15       -0.0000018935
   15   14   18   15        0.0004502078
   15   14   19   15       -0.0000039716
   15   14   16   16        0.0000002972
   15   14   17   16        0.0000003420
   15   14   18   16        0.0000088579
   15   14   19   16        0.0005172638
   15   14   17   17        0.0000006129
   15   14   18   17        0.0000194241
   15   14   19   17        0.0005249252
   15   14   18   18        0.0004400432
   15   14   19   18        0.0000060546
   15   14   19   19        0.0000006724
   16   14   16   14        0.0040056725
   16   14   17   14        0.0008604530
   16   14   18   14        0.0000002954
   16   14   19   14       -0.0001601408
   16   14   15   15       -0.0000076532
   16   14   16   15       -0.0000000721
   16   14   17   15        0.0000004865
   16   14   18   15       -0.0000015003
   16   14   19   15        0.0011562853
   16   14   16   16       -0.0000073294
   16   14   17   16       -0.0000004465
   16   14   18   16        0.0000762635
   16   14   19   16        0.0000136085
   16   14   17   17       -0.0000060840
   16   14   18   17       -0.0020081857
   16   14   19   17        0.0000199390
   16   14   18   18        0.0000128577
   16   14   19   18        0.0002049629
   16   14   19   19       -0.0000039476
   17   14   17   14        0.0011845954
   17   14   18   14        0.0000003526
   17   14   19   14       -0.0001197984
   17   14   15   15       -0.0000018930
   17   14   16   15        0.0000003075
   17   14   17   15        0.0000000869
   17   14   18   15       -0.0000005711
   17   14   19   15        0.0008636076
   17   14   16   16       -0.0000015890
   17   14   17   16       -0.0000006201
   17   14   18   16       -0.0004817535
   17   14   19   16        0.0000043993
   17   14   17   17       -0.0000005150
   17   14   18   17       -0.0001420364
   17   14   19   17        0.0000071796
   17   14   18   18        0.0000039898
   17   14   19   18       -0.0000305903
   17   14   19   19       -0.0000007767
   18   14   18   14        0.0031561617
   18   14   19   14        0.0000135112
   18   14   15   15        0.0001575122
   18   14   16   15        0.0000124728
   18   14   17   15        0.0000096594
   18   14   18   15       -0.0001226218
   18   14   19   15        0.0000026088
   18   14   16   16       -0.0010716179
   18   14   17   16       -0.0010678397
   18   14   18   16        0.0000007861
   18   14   19   16        0.0000168182
   18   14   17   17       -0.0019861543
   18   14   18   17        0.0000022129
   18   14   19   17       -0.0000019932
   18   14   18   18       -0.0028042114
   18   14   19   18       -0.0000056246
   18   14   19   19       -0.0015992426
   19   14   19   14        0.0017786254
   19   14   15   15        0.0000203981
   19   14   16   15        0.0011554108
   19   14   17   15        0.0008640701
   19   14   18   15        0.0000016974
   19   14   19   15        0.0000001556
   19   14   16   16        0.0000350956
   19   14   17   16        0.0000046587
   19   14   18   16        0.0000547562
   19   14   19   16       -0.0000005556
   19   14   17   17        0.0000142192
   19   14   18   17        0.0000151676
   19   14   19   17       -0.0000008675
   19   14   18   18       -0.0000053252
   19   14   19   18       -0.0003276929
   19   14   19   19        0.0000002197
   15   15   15   15        0.0790837243
   15   15   16   15        0.0000628944
   15   15   17   15        0.0000164338
   15   15   18   15        0.0005515453
   15   15   19   15        0.0000009061
   15   15   16   16        0.0671062470
   15   15   17   16        0.0019805888
   15   15   18   16        0.0000032354
   15   15   19   16        0.0000718294
   15   15   17   17        0.0632115979
   15   15   18   17        0.0000141430
   15   15   19   17        0.0000728327
   15   15   18   18        0.0614489165
   15   15   19   18       -0.0000338136
   15   15   19   19        0.0626170809
   16   15   16   15        0.0040059470
   16   15   17   15        0.0008648403
   16   15   18   15        0.0000019369
   16   15   19   15        0.0001607069
   16   15   16   16        0.0001061799
   16   15   17   16        0.0000065061
   16   15   18   16       -0.0000098590
   16   15   19   16        0.0000009380
   16   15   17   17        0.0000881357
   16   15   18   17        0.0002596817
   16   15   19   17        0.0000013870
   16   15   18   18        0.0000027295
   16   15   19   18       -0.0007516915
   16   15   19   19        0.0000573157
   17   15   17   15        0.0011856111
   17   15   18   15        0.0000015015
   17   15   19   15        0.0001199015
   17   15   16   16        0.0000232410
   17   15   17   16        0.0000089908
   17   15   18   16        0.0000622850
   17   15   19   16        0.0000003077
   17   15   17   17        0.0000078112
   17   15   18   17        0.0000183847
   17   15   19   17        0.0000005020
   17   15   18   18       -0.0000037013
   17   15   19   18        0.0001085416
   17   15   19   19        0.0000113526
   18   15   18   15        0.0008631794
   18   15   19   15       -0.0000045911
   18   15   16   16        0.0001385572
   18   15   17   16        0.0001380524
   18   15   18   16        0.0000012271
   18   15   19   16       -0.0000614692
   18   15   17   17        0.0002568091
   18   15   18   17       -0.0000037620
   18   15   19   17        0.0000067729
   18   15   18   18       -0.0002773069
   18   15   19   18       -0.0000020970
   18   15   19   19        0.0002066514
   19   15   19   15        0.0017798935
   19   15   16   16        0.0000024323
   19   15   17   16        0.0000003279
   19   15   18   16       -0.0002010369
   19   15   19   16        0.0000080740
   19   15   17   17        0.0000010047
   19   15   18   17       -0.0000589093
   19   15   19   17        0.0000126079
   19   15   18   18        0.0000042256
   19   15   19   18        0.0000423105
   19   15   19   19        0.0000000100
   16   16   16   16        0.0695892625
   16   16   17   16        0.0018994441
   16   16   18   16        0.0000029784
   16   16   19   16       -0.0000000008
   16   16   17   17        0.0644701795
   16   16   18   17        0.0000139813
   16   16   19   17       -0.0000000105
   16   16   18   18        0.0629382740
   16   16   19   18       -0.0000090192
   16   16   19   19        0.0601124153
   17   16   17   16        0.0023800540
   17   16   18   16        0.0000023277
   17   16   19   16       -0.0000000037
   17   16   17   17        0.0010420941
   17   16   18   17        0.0000009216
   17   16   19   17       -0.0000000053
   17   16   18   18        0.0009779322
   17   16   19   18       -0.0000012105
   17   16   19   19        0.0012731587
   18   16   18   16        0.0012033746
   18   16   19   16        0.0000012311
   18   16   17   17        0.0000029423
   18   16   18   17        0.0002824124
   18   16   19   17       -0.0000025418
   18   16   18   18       -0.0000007796
   18   16   19   18       -0.0000967520
   18   16   19   19        0.0000014548
   19   16   19   16        0.0010926463
   19   16   17   17        0.0000000074
   19   16   18   17       -0.0000046925
   19   16   19   17        0.0009634130
   19   16   18   18        0.0000528541
   19   16   19   18        0.0000004358
   19   16   19   19        0.0000000046
   17   17   17   17        0.0731018740
   17   17   18   17        0.0000233153
   17   17   19   17       -0.0000000015
   17   17   18   18        0.0672435642
   17   17   19   18       -0.0000314412
   17   17   19   19        0.0626630234
   18   17   18   17        0.0042053173
   18   17   19   17       -0.0000154278
   18   17   18   18       -0.0000127670
   18   17   19   18       -0.0007306116
   18   17   19   19        0.0000074918
   19   17   19   17        0.0033113041
   19   17   18   18       -0.0000899183
   19   17   19   18        0.0000024233
   19   17   19   19       -0.0000000008
   18   18   18   18        0.0758858214
   18   18   19   18        0.0000558396
   18   18   19   19        0.0646705624
   19   18   19   18        0.0036175274
   19   18   19   19        0.0000597404
   19   19   19   19        0.0652388072
 end_two_electron_integrals


 output epsi filename:./pspw_hf_LiH.emovecs

 Total PSPW energy     :  -0.7345510884E+00


=== Spin Contamination ===

 <Sexact^2> =    0.0000000000000000     
 <S^2>      =    0.0000000000000000     



== Center of Charge ==

spin up     (    0.0000,    0.0000,    2.3655 )
spin down   (    0.0000,    0.0000,    2.3655 )
     total  (    0.0000,    0.0000,    2.3655 )
ionic       (    0.0000,    0.0000,    0.9449 )


== Molecular Dipole wrt Center of Mass ==

mu   =  (   -0.0000,   -0.0000,   -2.8412 ) au
|mu| =     2.8412 au,       7.2212 Debye

 output psi filename:./pspw_hf_LiH.movecs

 Writing Crystallographic Information File:./LiH.cif
   - cell not shifted (nwpw:cif_shift_cell .false.)


== Timing ==

cputime in seconds
  prologue    :   0.891018E+02
  main loop   :   0.108623E+04
  epilogue    :   0.794269E-01
  total       :   0.117541E+04
  cputime/step:   0.848614E+01       (     128 evalulations,      58 linesearches)


Time spent doing                        total          step       percent
  total time                 :   0.117542E+04  0.918295E+01       100.0 %
  i/o time                   :   0.236472E+01  0.184744E-01         0.2 %
  FFTs                       :   0.865885E+03  0.676473E+01        73.7 %
  dot products               :   0.540229E+01  0.422054E-01         0.5 %
  geodesic                   :   0.991878E-01  0.774904E-03         0.0 %
  ffm_dgemm                  :   0.226661E-01  0.177079E-03         0.0 %
  fmf_dgemm                  :   0.436500E-01  0.341015E-03         0.0 %
  mmm_dgemm                  :   0.321472E-02  0.251150E-04         0.0 %
  m_diagonalize              :   0.136508E-02  0.106647E-04         0.0 %
  local pseudopotentials     :   0.597810E-02  0.467039E-04         0.0 %
  non-local pseudopotentials :   0.287681E+01  0.224751E-01         0.2 %
  structure factors          :   0.512035E+00  0.400027E-02         0.0 %
  phase factors              :   0.230940E-04  0.180422E-06         0.0 %
  masking and packing        :   0.575875E+02  0.449902E+00         4.9 %
  queue fft                  :   0.149522E+01  0.116814E-01         0.1 %
  queue fft (serial)         :   0.547806E+00  0.427974E-02         0.0 %
  queue fft (message passing):   0.881007E+00  0.688287E-02         0.1 %
  HFX potential              :   0.685915E+03  0.535871E+01        58.4 %
  non-local psp FFM          :   0.231014E+01  0.180480E-01         0.2 %
  non-local psp FMF          :   0.141998E+00  0.110936E-02         0.0 %
  non-local psp FFM A        :   0.266211E+00  0.207978E-02         0.0 %
  non-local psp FFM B        :   0.227726E+00  0.177911E-02         0.0 %

== HFX Counters ==
  HFX Evalulations         =   128
  Lin ACE HFX Evalulations =     0


     >>>  JOB COMPLETED     AT Mon May  5 03:06:32 2025  <<<

 Task  times  cpu:     1102.6s     wall:     1175.4s


                                NWChem Input Module
                                -------------------


 Summary of allocated global arrays
-----------------------------------
  No active global arrays


MA_summarize_allocated_blocks: starting scan ...
MA_summarize_allocated_blocks: scan completed: 0 heap blocks, 0 stack blocks
MA usage statistics:

	allocation statistics:
					      heap	     stack
					      ----	     -----
	current number of blocks	         0	         0
	maximum number of blocks	       315	        19
	current total bytes		         0	         0
	maximum total bytes		 127233608	  29399000
	maximum total K-bytes		    127234	     29399
	maximum total M-bytes		       128	        30


                                     CITATION
                                     --------
                Please cite the following reference when publishing
                           results obtained with NWChem:

          E. Apra, E. J. Bylaska, W. A. de Jong, N. Govind, K. Kowalski,
       T. P. Straatsma, M. Valiev, H. J. J. van Dam, Y. Alexeev, J. Anchell,
       V. Anisimov, F. W. Aquino, R. Atta-Fynn, J. Autschbach, N. P. Bauman,
     J. C. Becca, D. E. Bernholdt, K. Bhaskaran-Nair, S. Bogatko, P. Borowski,
         J. Boschen, J. Brabec, A. Bruner, E. Cauet, Y. Chen, G. N. Chuev,
      C. J. Cramer, J. Daily, M. J. O. Deegan, T. H. Dunning Jr., M. Dupuis,
   K. G. Dyall, G. I. Fann, S. A. Fischer, A. Fonari, H. Fruchtl, L. Gagliardi,
      J. Garza, N. Gawande, S. Ghosh, K. Glaesemann, A. W. Gotz, J. Hammond,
       V. Helms, E. D. Hermes, K. Hirao, S. Hirata, M. Jacquelin, L. Jensen,
   B. G. Johnson, H. Jonsson, R. A. Kendall, M. Klemm, R. Kobayashi, V. Konkov,
      S. Krishnamoorthy, M. Krishnan, Z. Lin, R. D. Lins, R. J. Littlefield,
      A. J. Logsdail, K. Lopata, W. Ma, A. V. Marenich, J. Martin del Campo,
   D. Mejia-Rodriguez, J. E. Moore, J. M. Mullin, T. Nakajima, D. R. Nascimento,
    J. A. Nichols, P. J. Nichols, J. Nieplocha, A. Otero-de-la-Roza, B. Palmer,
    A. Panyala, T. Pirojsirikul, B. Peng, R. Peverati, J. Pittner, L. Pollack,
   R. M. Richard, P. Sadayappan, G. C. Schatz, W. A. Shelton, D. W. Silverstein,
   D. M. A. Smith, T. A. Soares, D. Song, M. Swart, H. L. Taylor, G. S. Thomas,
            V. Tipparaju, D. G. Truhlar, K. Tsemekhman, T. Van Voorhis,
      A. Vazquez-Mayagoitia, P. Verma, O. Villa, A. Vishnu, K. D. Vogiatzis,
        D. Wang, J. H. Weare, M. J. Williamson, T. L. Windus, K. Wolinski,
        A. T. Wong, Q. Wu, C. Yang, Q. Yu, M. Zacharias, Z. Zhang, Y. Zhao,
                                and R. J. Harrison
                        "NWChem: Past, present, and future
                         J. Chem. Phys. 152, 184102 (2020)
                               doi:10.1063/5.0004997

                                      AUTHORS
                                      -------
  E. Apra, E. J. Bylaska, N. Govind, K. Kowalski, M. Valiev, D. Mejia-Rodriguez,
       A. Kunitsa, N. P. Bauman, A. Panyala, W. A. de Jong, T. P. Straatsma,
   H. J. J. van Dam, D. Wang, T. L. Windus, J. Hammond, J. Autschbach, A. Woods,
    K. Bhaskaran-Nair, J. Brabec, K. Lopata, S. A. Fischer, S. Krishnamoorthy,
     M. Jacquelin, W. Ma, M. Klemm, O. Villa, Y. Chen, V. Anisimov, F. Aquino,
     S. Hirata, M. T. Hackler, E. Hermes, L. Jensen, J. E. Moore, J. C. Becca,
      V. Konjkov, T. Risthaus, M. Malagoli, A. Marenich, A. Otero-de-la-Roza,
        J. Mullin, P. Nichols, R. Peverati, J. Pittner, Y. Zhao, P.-D. Fan,
        A. Fonari, M. J. Williamson, R. J. Harrison, J. R. Rehr, M. Dupuis,
     D. Silverstein, D. M. A. Smith, J. Nieplocha, V. Tipparaju, M. Krishnan,
     B. E. Van Kuiken, A. Vazquez-Mayagoitia, M. Swart, Q. Wu, T. Van Voorhis,
     A. A. Auer, M. Nooijen, L. D. Crosby, E. Brown, G. Cisneros, G. I. Fann,
   H. Fruchtl, J. Garza, K. Hirao, R. A. Kendall, J. A. Nichols, K. Tsemekhman,
    K. Wolinski, J. Anchell, D. E. Bernholdt, P. Borowski, T. Clark, D. Clerc,
   H. Dachsel, M. J. O. Deegan, K. Dyall, D. Elwood, E. Glendening, M. Gutowski,
   A. C. Hess, J. Jaffe, B. G. Johnson, J. Ju, R. Kobayashi, R. Kutteh, Z. Lin,
   R. Littlefield, X. Long, B. Meng, T. Nakajima, S. Niu, L. Pollack, M. Rosing,
   K. Glaesemann, G. Sandrone, M. Stave, H. Taylor, G. Thomas, J. H. van Lenthe,
                               A. T. Wong, Z. Zhang.

 Total times  cpu:     1102.6s     wall:     1175.5s
