 argument  1 = ../data/PW_LiH_data/3x3_aperiodic/NWChem/18nocovo/H1Li1-1.8.nw



============================== echo of input deck ==============================
#title "swnc: e theory=pspw4 xc=pbe formula=LiH charge=0 mult=1"
#machinejob:expert

echo

start pspw_hf_LiH

memory heap 1200 mb stack 2400 mb global 400 mb

charge 0

geometry
Li    0.00000    0.00000   -0.90000
H     0.00000    0.00000    0.90000
end

nwpw
  ### pseudopotential block begin ###
  ### pseudopotential block end   ###
  simulation_cell
     SC 28.345889835
     boundary_conditions aperiodic
  end

  cutoff 50.0
  mult 1
  xc hf
  lmbfgs
  tolerances 1.0e-9 1.0e-9

  virtual 18
end
set nwpw:cif_filename LiH

#set nwpw:CI_maxit_orb 15
#set nwpw:CI_maxit_linesearch 15

set nwpw:2qintegrals .true.
#set nwpw:3x3_virtual .true.

task pspw energy
================================================================================


                                         
                                         


             Northwest Computational Chemistry Package (NWChem) 7.2.3
             --------------------------------------------------------


                    Environmental Molecular Sciences Laboratory
                       Pacific Northwest National Laboratory
                                Richland, WA 99352

                              Copyright (c) 1994-2022
                       Pacific Northwest National Laboratory
                            Battelle Memorial Institute

             NWChem is an open-source computational chemistry package
                        distributed under the terms of the
                      Educational Community License (ECL) 2.0
             A copy of the license is included with this distribution
                              in the LICENSE.TXT file

                                  ACKNOWLEDGMENT
                                  --------------

            This software and its documentation were developed at the
            EMSL at Pacific Northwest National Laboratory, a multiprogram
            national laboratory, operated for the U.S. Department of Energy
            by Battelle under Contract Number DE-AC05-76RL01830. Support
            for this work was provided by the Department of Energy Office
            of Biological and Environmental Research, Office of Basic
            Energy Sciences, and the Office of Advanced Scientific Computing.


           Job information
           ---------------

    hostname        = mqs-al
    program         = nwchem
    date            = Mon May  5 02:08:11 2025

    compiled        = Thu_Oct_31_08:55:15_2024
    source          = /home/conda/feedstock_root/build_artifacts/nwchem_1730356057992/work
    nwchem branch   = 7.2.3
    nwchem revision = c400b04
    ga revision     = 5.8.0
    use scalapack   = T
    input           = ../data/PW_LiH_data/3x3_aperiodic/NWChem/18nocovo/H1Li1-1.8.nw
    prefix          = pspw_hf_LiH.
    data base       = ./pspw_hf_LiH.db
    status          = startup
    nproc           =       24
    time left       =     -1s



           Memory information
           ------------------

    heap     =  157286396 doubles =   1200.0 Mbytes
    stack    =  314572801 doubles =   2400.0 Mbytes
    global   =   52428800 doubles =    400.0 Mbytes (distinct from heap & stack)
    total    =  524287997 doubles =   4000.0 Mbytes
    verify   = yes
    hardfail = no 


           Directory information
           ---------------------

  0 permanent = .
  0 scratch   = .




                                NWChem Input Module
                                -------------------



 Scaling coordinates for geometry "geometry" by  1.889725989
 (inverse scale =  0.529177249)

  zeroes
  zeroes
  zeroes
  zeroes
  zeroes
  zeroes
  zeroes
  zeroes
  zeroes
  zeroes
  zeroes
  zeroes
  zeroes
  zeroes
  zeroes
  zeroes
  zeroes
  zeroes
  zeroes
  zeroes
  zeroes
  zeroes
  zeroes
  zeroes
  zeroes
  zeroes
  zeroes
  zeroes
  zeroes
  zeroes
  zeroes
  zeroes
  zeroes
  zeroes
  zeroes
  zeroes
  zeroes
  zeroes
  zeroes
  zeroes
  zeroes
  zeroes
  zeroes
  zeroes
  zeroes
  zeroes
  zeroes
  zeroes
 ORDER OF PRIMARY AXIS IS BEING SET TO 4
 C4V symmetry detected

          ------
          auto-z
          ------
  no constraints, skipping    0.0000000000000000     
  no constraints, skipping    0.0000000000000000     


                             Geometry "geometry" -> ""
                             -------------------------

 Output coordinates in angstroms (scale by  1.889725989 to convert to a.u.)

  No.       Tag          Charge          X              Y              Z
 ---- ---------------- ---------- -------------- -------------- --------------
    1 Li                   3.0000     0.00000000     0.00000000    -0.45000000
    2 H                    1.0000     0.00000000     0.00000000     1.35000000

      Atomic Mass 
      ----------- 

      Li                 7.016000
      H                  1.007825


 Effective nuclear repulsion energy (a.u.)       0.8819620817

            Nuclear Dipole moment (a.u.) 
            ----------------------------
        X                 Y               Z
 ---------------- ---------------- ----------------
     0.0000000000     0.0000000000    -0.0000000000

      Symmetry information
      --------------------

 Group name             C4v       
 Group number             18
 Group order               8
 No. of unique centers     2

      Symmetry unique atoms

     1    2



                                Z-matrix (autoz)
                                -------- 

 Units are Angstrom for bonds and degrees for angles

      Type          Name      I     J     K     L     M      Value
      ----------- --------  ----- ----- ----- ----- ----- ----------
    1 Stretch                  1     2                       1.80000


            XYZ format geometry
            -------------------
     2
 geometry
 Li                    0.00000000     0.00000000    -0.45000000
 H                     0.00000000     0.00000000     1.35000000

          ****************************************************
          *                                                  *
          *               NWPW PSPW Calculation              *
          *                                                  *
          * [ (Grassmann/Stiefel manifold implementation)  ] *
          *                                                  *
          *      [ NorthWest Chemistry implementation ]      *
          *                                                  *
          *            version #5.10   06/12/02              *
          *                                                  *
          *    This code was developed by Eric J. Bylaska,   *
          *    and was based upon algorithms and code        *
          *    developed by the group of Prof. John H. Weare *
          *                                                  *
          ****************************************************
     >>>  JOB STARTED       AT Mon May  5 02:08:11 2025  <<<
          ================ input data ========================

 input psi filename:./pspw_hf_LiH.movecs

 number of processors used:        24
 processor grid           :  24 x   1
 parallel mapping         :2d-hilbert
 parallel mapping         :  balanced
 number of threads        :         1
 parallel io              :       off

 options:
      boundary conditions  = aperiodic   (version4)
      electron spin        = restricted
      exchange-correlation = Hartree-Fock
      - HFX relaxed
      - HFX restricted orbitals :    1
      - HFX free-space coulomb solver


 elements involved in the cluster:
      1: Li  valence charge:  1.0000  lmax=  1
             comment    : Hamann pseudopotential
             pseudpotential type            :   0
             highest angular component      :   1
             local potential used           :   1
             number of non-local projections:   1
             aperiodic cutoff radius        :  1.000
             semicore corrections included  :  1.000 (radius)  0.769 (charge)
             cutoff =   1.869   1.551

      2: H   valence charge:  1.0000  lmax=  1
             comment    : Parameterized (Chem.Phys.Lett., vol 322, page 447) Hamman psp
             pseudpotential type            :   0
             highest angular component      :   1
             local potential used           :   1
             number of non-local projections:   1
             aperiodic cutoff radius        :  1.000
             cutoff =   0.800   0.800


 total charge:   0.000

 atomic composition:
     Li  :    1     H   :    1

 number of electrons: spin up=     1 (   1 per task)  down=     1 (   1 per task) (Fourier space)
 number of orbitals : spin up=     1 (   1 per task)  down=     1 (   1 per task) (Fourier space)

 supercell:
      cell_name:  cell_default                                      
      lattice:    a1=<  28.346   0.000   0.000 >
                  a2=<   0.000  28.346   0.000 >
                  a3=<   0.000   0.000  28.346 >
      reciprocal: b1=<   0.222   0.000   0.000 >
                  b2=<   0.000   0.222   0.000 >
                  b3=<   0.000   0.000   0.222 >
      lattice:    a=      28.346 b=     28.346 c=      28.346
                  alpha=  90.000 beta=  90.000 gamma=  90.000
                  omega=     22775.6

      density cutoff=100.000  fft=140x140x140(   544264 waves    22677 per task)
      wavefnc cutoff= 50.000  fft=140x140x140(   192294 waves     8012 per task)

 technical parameters:
      time step=      5.80     fictitious mass=  400000.0
      tolerance=0.100E-08 (energy)   0.100E-08 (density)
      maximum iterations =      1000 (   10 inner    100 outer )





== Energy Calculation ==


          ============ Grassmann lmbfgs iteration ============
     >>>  ITERATION STARTED AT Mon May  5 02:09:41 2025  <<<
    iter.           Energy         DeltaE       DeltaRho 
    ------------------------------------------------------
      10   -0.7420366409E+00   -0.91385E-04    0.95684E-03
      20   -0.7422692337E+00   -0.46872E-05    0.47968E-05
      30   -0.7422855367E+00   -0.42028E-06    0.86055E-07
      40   -0.7422868940E+00   -0.37076E-07    0.30793E-08
      50   -0.7422870218E+00   -0.38752E-08    0.22344E-09
      60   -0.7422870363E+00   -0.87416E-09    0.44591E-10
  *** tolerance ok. iteration terminated
     >>>  ITERATION ENDED   AT Mon May  5 02:10:48 2025  <<<


==  Summary Of Results  ==

 number of electrons: spin up=    1.00000  down=    1.00000 (real space)

 total     energy    :  -0.7422870363E+00 (   -0.37114E+00/ion)
 total orbital energy:  -0.5740471007E+00 (   -0.57405E+00/electron)
 hartree   energy    :   0.9244545923E+00 (    0.92445E+00/electron)
 exc-corr  energy    :   0.0000000000E+00 (    0.00000E+00/electron)
 HF exchange energy  :  -0.4622272962E+00 (   -0.46223E+00/electron)
 ion-ion   energy    :   0.2939873606E+00 (    0.14699E+00/ion)

 kinetic (planewave) :   0.5765181670E+00 (    0.57652E+00/electron)
 V_local (planewave) :  -0.1984836508E+01 (   -0.19848E+01/electron)
 V_nl    (planewave) :  -0.9018335180E-01 (   -0.90183E-01/electron)
 V_Coul  (planewave) :   0.1848909185E+01 (    0.18489E+01/electron)
 V_xc.   (planewave) :   0.0000000000E+00 (    0.00000E+00/electron)
 K.S. HFX energy     :  -0.9244545923E+00 (   -0.92445E+00/electron)
 Virial Coefficient  :  -0.3922004342E+00

 orbital energies:
    -0.2870236E+00 (  -7.810eV)


== Virtual Orbital Calculation ==


 input epsi filename:./pspw_hf_LiH.emovecs
     orbital   1 current e=-0.120E-01 (error=0.946E-09) iterations  87(  21 preconditioned, Ep,Sp= 20.0  200.0)
     orbital   2 current e= 0.766E-02 (error=0.907E-09) iterations  69(  14 preconditioned, Ep,Sp= 20.0  200.0)
     orbital   3 current e= 0.185E-01 (error=0.920E-09) iterations  56(   9 preconditioned, Ep,Sp= 20.0  200.0)
     orbital   4 current e= 0.185E-01 (error=0.985E-09) iterations  67(  13 preconditioned, Ep,Sp= 20.0  200.0)
     orbital   5 current e= 0.226E-01 (error=0.861E-09) iterations  21(   1 preconditioned, Ep,Sp= 20.0  200.0)
     orbital   6 current e= 0.228E-01 (error=0.926E-09) iterations  74(  14 preconditioned, Ep,Sp= 20.0  200.0)
     orbital   7 current e= 0.297E-01 (error=0.998E-09) iterations  69(  13 preconditioned, Ep,Sp= 20.0  200.0)
     orbital   8 current e= 0.370E-01 (error=0.961E-09) iterations  77(  12 preconditioned, Ep,Sp= 20.0  200.0)
     orbital   9 current e= 0.407E-01 (error=0.868E-09) iterations  80(  19 preconditioned, Ep,Sp= 20.0  200.0)
     orbital  10 current e= 0.407E-01 (error=0.962E-09) iterations 119(  21 preconditioned, Ep,Sp= 20.0  200.0)
     orbital  11 current e= 0.457E-01 (error=0.880E-09) iterations  54(   5 preconditioned, Ep,Sp= 20.0  200.0)
     orbital  12 current e= 0.465E-01 (error=0.946E-09) iterations  99(  18 preconditioned, Ep,Sp= 20.0  200.0)
     orbital  13 current e= 0.467E-01 (error=0.987E-09) iterations  72(   1 preconditioned, Ep,Sp= 20.0  200.0)
     orbital  14 current e= 0.467E-01 (error=0.948E-09) iterations  72(   1 preconditioned, Ep,Sp= 20.0  200.0)
     orbital  15 current e= 0.482E-01 (error=0.953E-09) iterations  29(   1 preconditioned, Ep,Sp= 20.0  200.0)
     orbital  16 current e= 0.503E-01 (error=0.966E-09) iterations  39(   1 preconditioned, Ep,Sp= 20.0  200.0)
     orbital  17 current e= 0.527E-01 (error=0.919E-09) iterations  67(   1 preconditioned, Ep,Sp= 20.0  200.0)
     orbital  18 current e= 0.600E-01 (error=0.554E-08) iterations 121(  33 preconditioned, Ep,Sp= 20.0  200.0)
     orbital  18 current e= 0.600E-01 (error=0.993E-09) iterations  40(   1 preconditioned, Ep,Sp= 20.0  200.0)

 virtual orbital energies:
     0.5999280E-01 (   1.633eV)
     0.5274391E-01 (   1.435eV)
     0.5025710E-01 (   1.368eV)
     0.4817412E-01 (   1.311eV)
     0.4667236E-01 (   1.270eV)
     0.4667236E-01 (   1.270eV)
     0.4646484E-01 (   1.264eV)
     0.4571837E-01 (   1.244eV)
     0.4068703E-01 (   1.107eV)
     0.4068703E-01 (   1.107eV)
     0.3702310E-01 (   1.007eV)
     0.2965892E-01 (   0.807eV)
     0.2283267E-01 (   0.621eV)
     0.2260186E-01 (   0.615eV)
     0.1849472E-01 (   0.503eV)
     0.1849472E-01 (   0.503eV)
     0.7657270E-02 (   0.208eV)
    -0.1196041E-01 (  -0.325eV)


 == Generating One-Electron and Two-Electron Integrals ==

 begin_one_electron_integrals
    1    1        -0.7492508465
    2    1         0.0345110895
    3    1         0.0152023478
    4    1        -0.0000000347
    5    1        -0.0000000072
    6    1         0.0000000081
    7    1         0.0155883684
    8    1        -0.0144828026
    9    1        -0.0043585694
   10    1        -0.0000000031
   11    1         0.0000000030
   12    1        -0.0000000069
   13    1        -0.0153635502
   14    1        -0.0000002590
   15    1         0.0000002299
   16    1        -0.0000002727
   17    1        -0.0000000907
   18    1        -0.0000000806
   19    1         0.0235119126
    2    2        -0.2455986063
    3    2        -0.0600503696
    4    2         0.0000000896
    5    2         0.0000000150
    6    2        -0.0000000124
    7    2        -0.0290058949
    8    2         0.0212024086
    9    2         0.0271861618
   10    2        -0.0000000617
   11    2         0.0000000214
   12    2         0.0000000088
   13    2         0.0227550975
   14    2         0.0000002287
   15    2        -0.0000003044
   16    2         0.0000002353
   17    2        -0.0000000017
   18    2        -0.0000000027
   19    2        -0.0222616726
    3    3        -0.1604368580
    4    3        -0.0000000335
    5    3        -0.0000000040
    6    3        -0.0000000036
    7    3        -0.0089064538
    8    3         0.0002639665
    9    3         0.0447512242
   10    3        -0.0000000466
   11    3         0.0000000333
   12    3         0.0000000061
   13    3         0.0130191327
   14    3         0.0000000645
   15    3        -0.0000001742
   16    3         0.0000000476
   17    3         0.0000000082
   18    3        -0.0000000112
   19    3        -0.0059383082
    4    4        -0.1630387016
    5    4         0.0000000370
    6    4         0.0000000123
    7    4        -0.0000000112
    8    4        -0.0000000387
    9    4         0.0000000459
   10    4         0.0478707431
   11    4         0.0001157756
   12    4         0.0000000231
   13    4        -0.0000004924
   14    4        -0.0150122381
   15    4        -0.0215344893
   16    4        -0.0000000107
   17    4        -0.0000000048
   18    4        -0.0161509459
   19    4        -0.0000000206
    5    5        -0.1630647153
    6    5        -0.0000000678
    7    5         0.0000000000
    8    5        -0.0000000361
    9    5         0.0000000115
   10    5         0.0001158104
   11    5        -0.0478823922
   12    5        -0.0000000237
   13    5        -0.0000001427
   14    5        -0.0215458098
   15    5         0.0150280238
   16    5         0.0000001397
   17    5         0.0000000312
   18    5        -0.0000411039
   19    5        -0.0000000651
    6    6        -0.1200024558
    7    6        -0.0000000059
    8    6         0.0000000001
    9    6         0.0000000040
   10    6        -0.0000000131
   11    6        -0.0000000754
   12    6         0.0000000000
   13    6         0.0000000898
   14    6         0.0000000659
   15    6        -0.0000000716
   16    6         0.0224394451
   17    6         0.0015619686
   18    6         0.0000000164
   19    6        -0.0000000241
    7    7        -0.1315638216
    8    7         0.0059554332
    9    7         0.0061316452
   10    7         0.0000000465
   11    7        -0.0000000124
   12    7         0.0000000085
   13    7         0.0280015764
   14    7        -0.0000001832
   15    7        -0.0000003741
   16    7         0.0000000534
   17    7         0.0000000028
   18    7        -0.0000000258
   19    7        -0.0089686170
    8    8        -0.1175795276
    9    8        -0.0011262301
   10    8         0.0000000115
   11    8        -0.0000000182
   12    8        -0.0000000027
   13    8        -0.0054448553
   14    8        -0.0000003157
   15    8         0.0000000999
   16    8        -0.0000001237
   17    8         0.0000000011
   18    8        -0.0000000155
   19    8         0.0321949689
    9    9        -0.1134727084
   10    9        -0.0000000181
   11    9        -0.0000000058
   12    9        -0.0000000061
   13    9        -0.0065660959
   14    9        -0.0000001589
   15    9         0.0000001144
   16    9        -0.0000000065
   17    9        -0.0000000067
   18    9         0.0000000145
   19    9        -0.0056244910
   10   10        -0.1329792536
   11   10        -0.0000000016
   12   10        -0.0000000104
   13   10         0.0000002408
   14   10         0.0086855089
   15   10         0.0123953329
   16   10        -0.0000000106
   17   10         0.0000000055
   18   10         0.0026728211
   19   10         0.0000000565
   11   11        -0.1330137793
   12   11        -0.0000000023
   13   11        -0.0000000660
   14   11        -0.0123934305
   15   11         0.0086863283
   16   11         0.0000001299
   17   11         0.0000000129
   18   11        -0.0000003222
   19   11        -0.0000000544
   12   12        -0.1119289931
   13   12         0.0000000017
   14   12        -0.0000000180
   15   12         0.0000000158
   16   12        -0.0000000030
   17   12         0.0000000004
   18   12         0.0000000085
   19   12         0.0000000036
   13   13        -0.1022334503
   14   13        -0.0000004356
   15   13        -0.0000000853
   16   13        -0.0000001845
   17   13        -0.0000000045
   18   13        -0.0000002450
   19   13         0.0110873345
   14   14        -0.1124834288
   15   14         0.0000133253
   16   14         0.0000000599
   17   14        -0.0000000124
   18   14        -0.0075938695
   19   14         0.0000002958
   15   15        -0.1124848805
   16   15        -0.0000000419
   17   15         0.0000000150
   18   15        -0.0108344048
   19   15        -0.0000001892
   16   16        -0.0976377634
   17   16        -0.0040133408
   18   16        -0.0000000027
   19   16         0.0000004597
   17   17        -0.0983613100
   18   17        -0.0000000011
   19   17        -0.0000000320
   18   18        -0.1069125166
   19   18        -0.0000000279
   19   19        -0.0962647555
 end_one_electron_integrals

 begin_two_electron_integrals
    1    1    1    1        0.4622272962
    1    1    2    1       -0.0345224712
    1    1    3    1       -0.0152063337
    1    1    4    1        0.0000000347
    1    1    5    1        0.0000000072
    1    1    6    1       -0.0000000081
    1    1    7    1       -0.0155893216
    1    1    8    1        0.0144834353
    1    1    9    1        0.0043615518
    1    1   10    1        0.0000000031
    1    1   11    1       -0.0000000030
    1    1   12    1        0.0000000069
    1    1   13    1        0.0153649133
    1    1   14    1        0.0000002590
    1    1   15    1       -0.0000002299
    1    1   16    1        0.0000002727
    1    1   17    1        0.0000000907
    1    1   18    1        0.0000000806
    1    1   19    1       -0.0235097384
    1    1    2    2        0.1192608186
    1    1    3    2        0.0312910143
    1    1    4    2       -0.0000000497
    1    1    5    2       -0.0000000085
    1    1    6    2        0.0000000068
    1    1    7    2        0.0156065603
    1    1    8    2       -0.0114694452
    1    1    9    2       -0.0141980284
    1    1   10    2        0.0000000337
    1    1   11    2       -0.0000000114
    1    1   12    2       -0.0000000049
    1    1   13    2       -0.0125059627
    1    1   14    2       -0.0000001263
    1    1   15    2        0.0000001668
    1    1   16    2       -0.0000001334
    1    1   17    2       -0.0000000061
    1    1   18    2       -0.0000000045
    1    1   19    2        0.0125322471
    1    1    3    3        0.0847519246
    1    1    4    3        0.0000000204
    1    1    5    3        0.0000000027
    1    1    6    3        0.0000000021
    1    1    7    3        0.0050162169
    1    1    8    3       -0.0005361702
    1    1    9    3       -0.0227568381
    1    1   10    3        0.0000000192
    1    1   11    3       -0.0000000157
    1    1   12    3       -0.0000000033
    1    1   13    3       -0.0070969360
    1    1   14    3       -0.0000000396
    1    1   15    3        0.0000000982
    1    1   16    3       -0.0000000307
    1    1   17    3       -0.0000000076
    1    1   18    3        0.0000000065
    1    1   19    3        0.0036200420
    1    1    4    4        0.0911921422
    1    1    5    4       -0.0000000191
    1    1    6    4       -0.0000000047
    1    1    7    4        0.0000000001
    1    1    8    4        0.0000000221
    1    1    9    4       -0.0000000279
    1    1   10    4       -0.0244183672
    1    1   11    4       -0.0000590565
    1    1   12    4       -0.0000000120
    1    1   13    4        0.0000002548
    1    1   14    4        0.0076881117
    1    1   15    4        0.0110283024
    1    1   16    4        0.0000000038
    1    1   17    4        0.0000000020
    1    1   18    4        0.0083038051
    1    1   19    4        0.0000000098
    1    1    5    5        0.0912054870
    1    1    6    5        0.0000000272
    1    1    7    5       -0.0000000012
    1    1    8    5        0.0000000190
    1    1    9    5       -0.0000000067
    1    1   10    5       -0.0000590738
    1    1   11    5        0.0244251708
    1    1   12    5        0.0000000121
    1    1   13    5        0.0000000734
    1    1   14    5        0.0110342725
    1    1   15    5       -0.0076963207
    1    1   16    5       -0.0000000639
    1    1   17    5       -0.0000000136
    1    1   18    5        0.0000211341
    1    1   19    5        0.0000000331
    1    1    6    6        0.0713110451
    1    1    7    6        0.0000000033
    1    1    8    6       -0.0000000003
    1    1    9    6       -0.0000000021
    1    1   10    6        0.0000000052
    1    1   11    6        0.0000000312
    1    1   12    6       -0.0000000000
    1    1   13    6       -0.0000000453
    1    1   14    6       -0.0000000364
    1    1   15    6        0.0000000394
    1    1   16    6       -0.0112314298
    1    1   17    6       -0.0007816061
    1    1   18    6       -0.0000000074
    1    1   19    6        0.0000000124
    1    1    7    7        0.0777098318
    1    1    8    7       -0.0033672968
    1    1    9    7       -0.0033292650
    1    1   10    7       -0.0000000184
    1    1   11    7        0.0000000055
    1    1   12    7       -0.0000000045
    1    1   13    7       -0.0145216688
    1    1   14    7        0.0000000800
    1    1   15    7        0.0000001924
    1    1   16    7       -0.0000000344
    1    1   17    7       -0.0000000045
    1    1   18    7        0.0000000080
    1    1   19    7        0.0051265327
    1    1    8    8        0.0739779393
    1    1    9    8        0.0007054605
    1    1   10    8       -0.0000000080
    1    1   11    8        0.0000000097
    1    1   12    8        0.0000000016
    1    1   13    8        0.0031174609
    1    1   14    8        0.0000001786
    1    1   15    8       -0.0000000560
    1    1   16    8        0.0000000673
    1    1   17    8        0.0000000026
    1    1   18    8        0.0000000115
    1    1   19    8       -0.0166843361
    1    1    9    9        0.0755068871
    1    1   10    9        0.0000000135
    1    1   11    9        0.0000000013
    1    1   12    9        0.0000000032
    1    1   13    9        0.0035631467
    1    1   14    9        0.0000000834
    1    1   15    9       -0.0000000642
    1    1   16    9        0.0000000059
    1    1   17    9        0.0000000047
    1    1   18    9       -0.0000000099
    1    1   19    9        0.0025905974
    1    1   10   10        0.0873912244
    1    1   11   10        0.0000000004
    1    1   12   10        0.0000000051
    1    1   13   10       -0.0000001289
    1    1   14   10       -0.0045489654
    1    1   15   10       -0.0064919351
    1    1   16   10        0.0000000070
    1    1   17   10       -0.0000000024
    1    1   18   10       -0.0015886023
    1    1   19   10       -0.0000000289
    1    1   11   11        0.0874085877
    1    1   12   11        0.0000000017
    1    1   13   11        0.0000000344
    1    1   14   11        0.0064915467
    1    1   15   11       -0.0045498900
    1    1   16   11       -0.0000000594
    1    1   17   11       -0.0000000046
    1    1   18   11        0.0000001930
    1    1   19   11        0.0000000283
    1    1   12   12        0.0788494173
    1    1   13   12       -0.0000000005
    1    1   14   12        0.0000000088
    1    1   15   12       -0.0000000085
    1    1   16   12        0.0000000015
    1    1   17   12       -0.0000000002
    1    1   18   12       -0.0000000043
    1    1   19   12       -0.0000000022
    1    1   13   13        0.0748880404
    1    1   14   13        0.0000002294
    1    1   15   13        0.0000000390
    1    1   16   13        0.0000001025
    1    1   17   13        0.0000000048
    1    1   18   13        0.0000001295
    1    1   19   13       -0.0061879924
    1    1   14   14        0.0798250347
    1    1   15   14       -0.0000068236
    1    1   16   14       -0.0000000269
    1    1   17   14        0.0000000074
    1    1   18   14        0.0039023868
    1    1   19   14       -0.0000001798
    1    1   15   15        0.0798257979
    1    1   16   15        0.0000000174
    1    1   17   15       -0.0000000088
    1    1   18   15        0.0055676516
    1    1   19   15        0.0000001062
    1    1   16   16        0.0729218212
    1    1   17   16        0.0020079776
    1    1   18   16        0.0000000004
    1    1   19   16       -0.0000002358
    1    1   17   17        0.0743118676
    1    1   18   17        0.0000000002
    1    1   19   17        0.0000000103
    1    1   18   18        0.0799808247
    1    1   19   18        0.0000000103
    1    1   19   19        0.0791029451
    2    1    2    1        0.0048834417
    2    1    3    1        0.0025410170
    2    1    4    1       -0.0000000097
    2    1    5    1       -0.0000000019
    2    1    6    1        0.0000000012
    2    1    7    1        0.0022052466
    2    1    8    1       -0.0017332630
    2    1    9    1       -0.0012073937
    2    1   10    1        0.0000000060
    2    1   11    1       -0.0000000012
    2    1   12    1       -0.0000000010
    2    1   13    1       -0.0022529009
    2    1   14    1       -0.0000000324
    2    1   15    1        0.0000000299
    2    1   16    1       -0.0000000310
    2    1   17    1       -0.0000000139
    2    1   18    1       -0.0000000118
    2    1   19    1        0.0027991873
    2    1    2    2        0.0033600369
    2    1    3    2        0.0017708048
    2    1    4    2       -0.0000000407
    2    1    5    2       -0.0000000082
    2    1    6    2       -0.0000000002
    2    1    7    2       -0.0001566076
    2    1    8    2        0.0001353658
    2    1    9    2       -0.0009186317
    2    1   10    2        0.0000000168
    2    1   11    2       -0.0000000039
    2    1   12    2        0.0000000001
    2    1   13    2        0.0002911681
    2    1   14    2        0.0000000023
    2    1   15    2       -0.0000000060
    2    1   16    2        0.0000000080
    2    1   17    2        0.0000000019
    2    1   18    2        0.0000000017
    2    1   19    2       -0.0004056951
    2    1    3    3        0.0013220057
    2    1    4    3        0.0000000257
    2    1    5    3        0.0000000053
    2    1    6    3        0.0000000000
    2    1    7    3        0.0001246479
    2    1    8    3       -0.0010117434
    2    1    9    3       -0.0008190548
    2    1   10    3        0.0000000221
    2    1   11    3       -0.0000000049
    2    1   12    3       -0.0000000000
    2    1   13    3        0.0000460337
    2    1   14    3        0.0000000013
    2    1   15    3        0.0000000031
    2    1   16    3        0.0000000009
    2    1   17    3        0.0000000011
    2    1   18    3        0.0000000067
    2    1   19    3        0.0003655910
    2    1    4    4        0.0015208872
    2    1    5    4        0.0000000019
    2    1    6    4        0.0000000050
    2    1    7    4       -0.0000000119
    2    1    8    4       -0.0000000063
    2    1    9    4       -0.0000000146
    2    1   10    4       -0.0010717199
    2    1   11    4       -0.0000025901
    2    1   12    4       -0.0000000447
    2    1   13    4       -0.0000000018
    2    1   14    4       -0.0002448222
    2    1   15    4       -0.0003511782
    2    1   16    4       -0.0000000017
    2    1   17    4        0.0000000026
    2    1   18    4       -0.0008771695
    2    1   19    4       -0.0000000003
    2    1    5    5        0.0015207194
    2    1    6    5       -0.0000000247
    2    1    7    5       -0.0000000022
    2    1    8    5       -0.0000000018
    2    1    9    5       -0.0000000038
    2    1   10    5       -0.0000025879
    2    1   11    5        0.0010720685
    2    1   12    5       -0.0000000108
    2    1   13    5       -0.0000000010
    2    1   14    5       -0.0003520814
    2    1   15    5        0.0002458405
    2    1   16    5        0.0000000072
    2    1   17    5       -0.0000000116
    2    1   18    5       -0.0000022318
    2    1   19    5       -0.0000000008
    2    1    6    6        0.0006178711
    2    1    7    6       -0.0000000000
    2    1    8    6        0.0000000001
    2    1    9    6       -0.0000000001
    2    1   10    6       -0.0000000041
    2    1   11    6       -0.0000000199
    2    1   12    6       -0.0000000000
    2    1   13    6       -0.0000000002
    2    1   14    6        0.0000000056
    2    1   15    6       -0.0000000059
    2    1   16    6        0.0001314040
    2    1   17    6        0.0009604171
    2    1   18    6        0.0000000040
    2    1   19    6        0.0000000001
    2    1    7    7        0.0004480980
    2    1    8    7       -0.0000278198
    2    1    9    7       -0.0002146214
    2    1   10    7        0.0000000068
    2    1   11    7       -0.0000000014
    2    1   12    7       -0.0000000001
    2    1   13    7       -0.0003477133
    2    1   14    7       -0.0000000401
    2    1   15    7       -0.0000000264
    2    1   16    7       -0.0000000083
    2    1   17    7        0.0000000021
    2    1   18    7       -0.0000000004
    2    1   19    7        0.0003803412
    2    1    8    8       -0.0003574274
    2    1    9    8        0.0004885503
    2    1   10    8        0.0000000044
    2    1   11    8       -0.0000000006
    2    1   12    8       -0.0000000001
    2    1   13    8       -0.0002413478
    2    1   14    8        0.0000000020
    2    1   15    8        0.0000000128
    2    1   16    8       -0.0000000071
    2    1   17    8       -0.0000000005
    2    1   18    8        0.0000000432
    2    1   19    8        0.0005490287
    2    1    9    9        0.0007149333
    2    1   10    9        0.0000000203
    2    1   11    9       -0.0000000042
    2    1   12    9        0.0000000001
    2    1   13    9        0.0001239090
    2    1   14    9        0.0000000085
    2    1   15    9       -0.0000000063
    2    1   16    9        0.0000000036
    2    1   17    9       -0.0000000010
    2    1   18    9       -0.0000000071
    2    1   19    9       -0.0010417023
    2    1   10   10        0.0010752080
    2    1   11   10       -0.0000000003
    2    1   12   10       -0.0000000214
    2    1   13   10       -0.0000000127
    2    1   14   10        0.0000143775
    2    1   15   10        0.0000205111
    2    1   16   10        0.0000000029
    2    1   17   10       -0.0000000021
    2    1   18   10       -0.0003614602
    2    1   19   10       -0.0000000008
    2    1   11   11        0.0010750734
    2    1   12   11        0.0000000050
    2    1   13   11        0.0000000025
    2    1   14   11       -0.0000200509
    2    1   15   11        0.0000138946
    2    1   16   11        0.0000000134
    2    1   17   11       -0.0000000108
    2    1   18   11        0.0000000465
    2    1   19   11       -0.0000000006
    2    1   12   12        0.0009988290
    2    1   13   12       -0.0000000001
    2    1   14   12       -0.0000000126
    2    1   15   12       -0.0000000115
    2    1   16   12       -0.0000000000
    2    1   17   12        0.0000000000
    2    1   18   12        0.0000000133
    2    1   19   12        0.0000000001
    2    1   13   13        0.0006217663
    2    1   14   13        0.0000000101
    2    1   15   13       -0.0000000088
    2    1   16   13        0.0000000118
    2    1   17   13       -0.0000000031
    2    1   18   13        0.0000000035
    2    1   19   13        0.0000804233
    2    1   14   14        0.0004523881
    2    1   15   14        0.0000002333
    2    1   16   14        0.0000000125
    2    1   17   14        0.0000000030
    2    1   18   14       -0.0001140693
    2    1   19   14        0.0000000102
    2    1   15   15        0.0004524374
    2    1   16   15       -0.0000000134
    2    1   17   15       -0.0000000031
    2    1   18   15       -0.0001627483
    2    1   19   15       -0.0000000077
    2    1   16   16        0.0002715640
    2    1   17   16       -0.0000482926
    2    1   18   16       -0.0000000010
    2    1   19   16        0.0000000105
    2    1   17   17       -0.0003236537
    2    1   18   17       -0.0000000030
    2    1   19   17        0.0000000011
    2    1   18   18       -0.0006479637
    2    1   19   18       -0.0000000017
    2    1   19   19       -0.0007364183
    3    1    3    1        0.0014097213
    3    1    4    1        0.0000000071
    3    1    5    1        0.0000000014
    3    1    6    1        0.0000000006
    3    1    7    1        0.0011385170
    3    1    8    1       -0.0008160730
    3    1    9    1       -0.0007664568
    3    1   10    1       -0.0000000087
    3    1   11    1        0.0000000015
    3    1   12    1       -0.0000000005
    3    1   13    1       -0.0011778152
    3    1   14    1       -0.0000000083
    3    1   15    1        0.0000000216
    3    1   16    1       -0.0000000140
    3    1   17    1       -0.0000000069
    3    1   18    1        0.0000000019
    3    1   19    1        0.0013026061
    3    1    2    2        0.0031575928
    3    1    3    2        0.0017522671
    3    1    4    2        0.0000000756
    3    1    5    2        0.0000000152
    3    1    6    2       -0.0000000000
    3    1    7    2        0.0000973116
    3    1    8    2       -0.0000816636
    3    1    9    2       -0.0009770262
    3    1   10    2       -0.0000000232
    3    1   11    2        0.0000000040
    3    1   12    2       -0.0000000000
    3    1   13    2        0.0000026251
    3    1   14    2        0.0000000034
    3    1   15    2        0.0000000033
    3    1   16    2        0.0000000035
    3    1   17    2        0.0000000009
    3    1   18    2        0.0000000013
    3    1   19    2       -0.0000580318
    3    1    3    3        0.0012824318
    3    1    4    3       -0.0000000507
    3    1    5    3       -0.0000000102
    3    1    6    3        0.0000000001
    3    1    7    3        0.0002342568
    3    1    8    3       -0.0008271557
    3    1    9    3       -0.0008324623
    3    1   10    3       -0.0000000451
    3    1   11    3        0.0000000084
    3    1   12    3       -0.0000000001
    3    1   13    3       -0.0001004054
    3    1   14    3       -0.0000000140
    3    1   15    3       -0.0000000085
    3    1   16    3       -0.0000000005
    3    1   17    3        0.0000000006
    3    1   18    3       -0.0000000193
    3    1   19    3        0.0003892977
    3    1    4    4        0.0013047952
    3    1    5    4        0.0000000011
    3    1    6    4       -0.0000000108
    3    1    7    4        0.0000000297
    3    1    8    4        0.0000000072
    3    1    9    4        0.0000000255
    3    1   10    4       -0.0010017812
    3    1   11    4       -0.0000024215
    3    1   12    4        0.0000000874
    3    1   13    4       -0.0000000160
    3    1   14    4       -0.0001213391
    3    1   15    4       -0.0001740462
    3    1   16    4        0.0000000041
    3    1   17    4       -0.0000000014
    3    1   18    4       -0.0005665407
    3    1   19    4       -0.0000000008
    3    1    5    5        0.0013048043
    3    1    6    5        0.0000000531
    3    1    7    5        0.0000000060
    3    1    8    5        0.0000000012
    3    1    9    5        0.0000000045
    3    1   10    5       -0.0000024199
    3    1   11    5        0.0010021160
    3    1   12    5        0.0000000167
    3    1   13    5       -0.0000000035
    3    1   14    5       -0.0001746528
    3    1   15    5        0.0001220066
    3    1   16    5       -0.0000000216
    3    1   17    5        0.0000000076
    3    1   18    5       -0.0000014414
    3    1   19    5       -0.0000000006
    3    1    6    6        0.0004592189
    3    1    7    6        0.0000000000
    3    1    8    6        0.0000000000
    3    1    9    6       -0.0000000001
    3    1   10    6        0.0000000096
    3    1   11    6        0.0000000478
    3    1   12    6       -0.0000000000
    3    1   13    6       -0.0000000002
    3    1   14    6       -0.0000000091
    3    1   15    6        0.0000000095
    3    1   16    6        0.0000859261
    3    1   17    6        0.0006916878
    3    1   18    6       -0.0000000062
    3    1   19    6        0.0000000001
    3    1    7    7        0.0004348423
    3    1    8    7       -0.0000773254
    3    1    9    7       -0.0002549193
    3    1   10    7       -0.0000000154
    3    1   11    7        0.0000000030
    3    1   12    7       -0.0000000001
    3    1   13    7       -0.0003742946
    3    1   14    7        0.0000000583
    3    1   15    7        0.0000000671
    3    1   16    7       -0.0000000072
    3    1   17    7        0.0000000013
    3    1   18    7        0.0000000003
    3    1   19    7        0.0003688828
    3    1    8    8       -0.0001883695
    3    1    9    8        0.0004073900
    3    1   10    8       -0.0000000149
    3    1   11    8        0.0000000033
    3    1   12    8       -0.0000000000
    3    1   13    8       -0.0001167395
    3    1   14    8       -0.0000000211
    3    1   15    8       -0.0000000146
    3    1   16    8       -0.0000000040
    3    1   17    8       -0.0000000002
    3    1   18    8       -0.0000000920
    3    1   19    8        0.0002870095
    3    1    9    9        0.0007118555
    3    1   10    9       -0.0000000398
    3    1   11    9        0.0000000080
    3    1   12    9        0.0000000001
    3    1   13    9        0.0001909087
    3    1   14    9        0.0000000176
    3    1   15    9        0.0000000041
    3    1   16    9        0.0000000030
    3    1   17    9       -0.0000000006
    3    1   18    9        0.0000000117
    3    1   19    9       -0.0008141629
    3    1   10   10        0.0010413769
    3    1   11   10       -0.0000000003
    3    1   12   10        0.0000000433
    3    1   13   10        0.0000000243
    3    1   14   10       -0.0000598779
    3    1   15   10       -0.0000854591
    3    1   16   10       -0.0000000056
    3    1   17   10        0.0000000038
    3    1   18   10       -0.0003175112
    3    1   19   10        0.0000000047
    3    1   11   11        0.0010413426
    3    1   12   11       -0.0000000081
    3    1   13   11       -0.0000000046
    3    1   14   11        0.0000858103
    3    1   15   11       -0.0000602724
    3    1   16   11       -0.0000000293
    3    1   17   11        0.0000000187
    3    1   18   11        0.0000000408
    3    1   19   11       -0.0000000012
    3    1   12   12        0.0007657156
    3    1   13   12       -0.0000000000
    3    1   14   12        0.0000000261
    3    1   15   12        0.0000000251
    3    1   16   12       -0.0000000000
    3    1   17   12        0.0000000000
    3    1   18   12       -0.0000000196
    3    1   19   12       -0.0000000000
    3    1   13   13        0.0005772318
    3    1   14   13        0.0000000255
    3    1   15   13        0.0000000078
    3    1   16   13        0.0000000100
    3    1   17   13       -0.0000000020
    3    1   18   13       -0.0000000227
    3    1   19   13       -0.0000396934
    3    1   14   14        0.0004172363
    3    1   15   14        0.0000001274
    3    1   16   14       -0.0000000270
    3    1   17   14       -0.0000000058
    3    1   18   14       -0.0000527823
    3    1   19   14        0.0000000160
    3    1   15   15        0.0004172884
    3    1   16   15        0.0000000280
    3    1   17   15        0.0000000062
    3    1   18   15       -0.0000753080
    3    1   19   15        0.0000000062
    3    1   16   16        0.0002140029
    3    1   17   16       -0.0000356199
    3    1   18   16        0.0000000030
    3    1   19   16        0.0000000054
    3    1   17   17       -0.0002194409
    3    1   18   17        0.0000000068
    3    1   19   17        0.0000000005
    3    1   18   18       -0.0004042281
    3    1   19   18        0.0000000061
    3    1   19   19       -0.0003632422
    4    1    4    1        0.0008508596
    4    1    5    1       -0.0000000012
    4    1    6    1        0.0000000028
    4    1    7    1       -0.0000000111
    4    1    8    1        0.0000000056
    4    1    9    1       -0.0000000096
    4    1   10    1       -0.0009687702
    4    1   11    1       -0.0000023438
    4    1   12    1       -0.0000000010
    4    1   13    1        0.0000000177
    4    1   14    1        0.0003643148
    4    1   15    1        0.0005225971
    4    1   16    1       -0.0000000032
    4    1   17    1       -0.0000000009
    4    1   18    1        0.0004570933
    4    1   19    1       -0.0000000010
    4    1    2    2       -0.0000020758
    4    1    3    2        0.0000045602
    4    1    4    2        0.0019381408
    4    1    5    2       -0.0000000015
    4    1    6    2        0.0000011124
    4    1    7    2       -0.0000021815
    4    1    8    2       -0.0000013523
    4    1    9    2       -0.0000006160
    4    1   10    2       -0.0014844457
    4    1   11    2       -0.0000035902
    4    1   12    2       -0.0000000123
    4    1   13    2        0.0000006614
    4    1   14    2        0.0002426769
    4    1   15    2        0.0003481219
    4    1   16    2       -0.0000003180
    4    1   17    2        0.0000001139
    4    1   18    2        0.0000630204
    4    1   19    2        0.0000007953
    4    1    3    3       -0.0000119137
    4    1    4    3        0.0001162176
    4    1    5    3        0.0000000002
    4    1    6    3       -0.0000022150
    4    1    7    3        0.0000052218
    4    1    8    3        0.0000007262
    4    1    9    3       -0.0000029288
    4    1   10    3       -0.0010363842
    4    1   11    3       -0.0000025052
    4    1   12    3        0.0000000159
    4    1   13    3        0.0000009281
    4    1   14    3        0.0000054234
    4    1   15    3        0.0000077965
    4    1   16    3        0.0000004720
    4    1   17    3        0.0000004473
    4    1   18    3       -0.0001668833
    4    1   19    3       -0.0000015807
    4    1    4    4       -0.0000023841
    4    1    5    4       -0.0000004845
    4    1    6    4       -0.0002480486
    4    1    7    4        0.0006931273
    4    1    8    4       -0.0001128731
    4    1    9    4        0.0001384471
    4    1   10    4       -0.0000040305
    4    1   11    4        0.0000008090
    4    1   12    4        0.0012548008
    4    1   13    4       -0.0005117131
    4    1   14    4       -0.0000018298
    4    1   15    4       -0.0000017361
    4    1   16    4        0.0001395077
    4    1   17    4       -0.0000835533
    4    1   18    4        0.0000018920
    4    1   19    4        0.0002782252
    4    1    5    5       -0.0000027592
    4    1    6    5        0.0005867270
    4    1    7    5       -0.0000000004
    4    1    8    5        0.0000000009
    4    1    9    5       -0.0000000005
    4    1   10    5       -0.0000008308
    4    1   11    5        0.0000047047
    4    1   12    5        0.0005306445
    4    1   13    5       -0.0000000008
    4    1   14    5       -0.0000026501
    4    1   15    5        0.0000012336
    4    1   16    5       -0.0003301725
    4    1   17    5        0.0001977269
    4    1   18    5        0.0000003896
    4    1   19    5       -0.0000000003
    4    1    6    6       -0.0000170993
    4    1    7    6        0.0000008968
    4    1    8    6        0.0000003022
    4    1    9    6        0.0000012110
    4    1   10    6        0.0002699455
    4    1   11    6        0.0006429802
    4    1   12    6        0.0000000002
    4    1   13    6       -0.0000013422
    4    1   14    6       -0.0000436981
    4    1   15    6        0.0000694035
    4    1   16    6        0.0000047339
    4    1   17    6        0.0000003999
    4    1   18    6       -0.0001443612
    4    1   19    6       -0.0000006558
    4    1    7    7       -0.0000099662
    4    1    8    7        0.0000008955
    4    1    9    7       -0.0000026681
    4    1   10    7       -0.0005909820
    4    1   11    7       -0.0000014333
    4    1   12    7       -0.0000000076
    4    1   13    7       -0.0000068624
    4    1   14    7        0.0006743810
    4    1   15    7        0.0009673490
    4    1   16    7       -0.0000021524
    4    1   17    7       -0.0000001168
    4    1   18    7        0.0001128842
    4    1   19    7        0.0000012712
    4    1    8    8       -0.0000136315
    4    1    9    8       -0.0000006922
    4    1   10    8        0.0000509603
    4    1   11    8        0.0000001233
    4    1   12    8       -0.0000000030
    4    1   13    8       -0.0000006839
    4    1   14    8       -0.0002085884
    4    1   15    8       -0.0002992193
    4    1   16    8        0.0000005438
    4    1   17    8        0.0000025109
    4    1   18    8       -0.0009811590
    4    1   19    8       -0.0000055968
    4    1    9    9       -0.0000144161
    4    1   10    9        0.0000222095
    4    1   11    9        0.0000000531
    4    1   12    9       -0.0000000022
    4    1   13    9        0.0000050546
    4    1   14    9        0.0000446299
    4    1   15    9        0.0000640083
    4    1   16    9       -0.0000014526
    4    1   17    9        0.0000004419
    4    1   18    9        0.0001803097
    4    1   19    9        0.0000010199
    4    1   10   10       -0.0000074952
    4    1   11   10        0.0000015219
    4    1   12   10       -0.0000559951
    4    1   13   10        0.0006679445
    4    1   14   10       -0.0000027022
    4    1   15   10       -0.0000025698
    4    1   16   10       -0.0001963405
    4    1   17   10        0.0001121986
    4    1   18   10        0.0000019465
    4    1   19   10       -0.0002068906
    4    1   11   11       -0.0000087502
    4    1   12   11        0.0000234676
    4    1   13   11        0.0000016148
    4    1   14   11        0.0000039170
    4    1   15   11       -0.0000018383
    4    1   16   11       -0.0004680258
    4    1   17   11        0.0002672528
    4    1   18   11       -0.0000003940
    4    1   19   11       -0.0000005008
    4    1   12   12       -0.0000000020
    4    1   13   12        0.0000000079
    4    1   14   12        0.0004814609
    4    1   15   12        0.0003032144
    4    1   16   12       -0.0000000008
    4    1   17   12       -0.0000000007
    4    1   18   12       -0.0001195145
    4    1   19   12        0.0000000003
    4    1   13   13       -0.0000151890
    4    1   14   13       -0.0001599978
    4    1   15   13       -0.0002295198
    4    1   16   13       -0.0000004306
    4    1   17   13        0.0000002393
    4    1   18   13       -0.0002539359
    4    1   19   13       -0.0000001835
    4    1   14   14       -0.0000073022
    4    1   15   14        0.0000000427
    4    1   16   14       -0.0002009999
    4    1   17   14       -0.0000432113
    4    1   18   14        0.0000005101
    4    1   19   14        0.0002321250
    4    1   15   15       -0.0000048335
    4    1   16   15        0.0003192610
    4    1   17   15        0.0000685588
    4    1   18   15        0.0000004915
    4    1   19   15        0.0003329868
    4    1   16   16       -0.0000179338
    4    1   17   16       -0.0000016452
    4    1   18   16        0.0000894877
    4    1   19   16       -0.0000001641
    4    1   17   17       -0.0000178424
    4    1   18   17        0.0000984830
    4    1   19   17       -0.0000004957
    4    1   18   18       -0.0000063105
    4    1   19   18        0.0004126276
    4    1   19   19       -0.0000151921
    5    1    5    1        0.0008515341
    5    1    6    1       -0.0000000134
    5    1    7    1       -0.0000000023
    5    1    8    1        0.0000000018
    5    1    9    1       -0.0000000019
    5    1   10    1       -0.0000023439
    5    1   11    1        0.0009692362
    5    1   12    1        0.0000000006
    5    1   13    1        0.0000000045
    5    1   14    1        0.0005229844
    5    1   15    1       -0.0003648066
    5    1   16    1        0.0000000118
    5    1   17    1        0.0000000041
    5    1   18    1        0.0000011637
    5    1   19    1        0.0000000012
    5    1    2    2       -0.0000004209
    5    1    3    2        0.0000009249
    5    1    4    2       -0.0000000006
    5    1    5    2        0.0019390652
    5    1    6    2       -0.0000054884
    5    1    7    2       -0.0000004423
    5    1    8    2       -0.0000002739
    5    1    9    2       -0.0000001253
    5    1   10    2       -0.0000035894
    5    1   11    2        0.0014851126
    5    1   12    2       -0.0000000025
    5    1   13    2        0.0000001348
    5    1   14    2        0.0003480491
    5    1   15    2       -0.0002426803
    5    1   16    2        0.0000015656
    5    1   17    2       -0.0000005617
    5    1   18    2        0.0000001606
    5    1   19    2        0.0000001624
    5    1    3    3       -0.0000024163
    5    1    4    3        0.0000000001
    5    1    5    3        0.0001164254
    5    1    6    3        0.0000109286
    5    1    7    3        0.0000010590
    5    1    8    3        0.0000001472
    5    1    9    3       -0.0000005945
    5    1   10    3       -0.0000025046
    5    1   11    3        0.0010367654
    5    1   12    3        0.0000000030
    5    1   13    3        0.0000001883
    5    1   14    3        0.0000075002
    5    1   15    3       -0.0000051633
    5    1   16    3       -0.0000023313
    5    1   17    3       -0.0000022065
    5    1   18    3       -0.0000004246
    5    1   19    3       -0.0000003206
    5    1    4    4       -0.0000015239
    5    1    5    4        0.0000023608
    5    1    6    4        0.0005867590
    5    1    7    4       -0.0000000004
    5    1    8    4        0.0000000020
    5    1    9    4       -0.0000000001
    5    1   10    4       -0.0000025811
    5    1   11    4       -0.0000040317
    5    1   12    4        0.0005308145
    5    1   13    4       -0.0000000008
    5    1   14    4        0.0000011103
    5    1   15    4       -0.0000027081
    5    1   16    4       -0.0003300330
    5    1   17    4        0.0001976369
    5    1   18    4        0.0000012099
    5    1   19    4       -0.0000000006
    5    1    5    5        0.0000004798
    5    1    6    5        0.0002482053
    5    1    7    5        0.0006935439
    5    1    8    5       -0.0001132401
    5    1    9    5        0.0001385032
    5    1   10    5        0.0000040323
    5    1   11    5       -0.0000008088
    5    1   12    5       -0.0012552205
    5    1   13    5       -0.0005122119
    5    1   14    5        0.0000018173
    5    1   15    5        0.0000017445
    5    1   16    5       -0.0001396864
    5    1   17    5        0.0000836412
    5    1   18    5       -0.0000018874
    5    1   19    5        0.0002784478
    5    1    6    6       -0.0000034681
    5    1    7    6       -0.0000044246
    5    1    8    6       -0.0000014917
    5    1    9    6       -0.0000059770
    5    1   10    6       -0.0006428825
    5    1   11    6        0.0002701699
    5    1   12    6        0.0000000021
    5    1   13    6        0.0000066224
    5    1   14    6       -0.0000696093
    5    1   15    6       -0.0000439761
    5    1   16    6        0.0000009600
    5    1   17    6        0.0000000811
    5    1   18    6        0.0003439305
    5    1   19    6        0.0000032339
    5    1    7    7       -0.0000020217
    5    1    8    7        0.0000001830
    5    1    9    7       -0.0000005405
    5    1   10    7       -0.0000014316
    5    1   11    7        0.0005916486
    5    1   12    7       -0.0000000013
    5    1   13    7       -0.0000013903
    5    1   14    7        0.0009676649
    5    1   15    7       -0.0006746659
    5    1   16    7        0.0000106183
    5    1   17    7        0.0000005763
    5    1   18    7        0.0000002876
    5    1   19    7        0.0000002607
    5    1    8    8       -0.0000027656
    5    1    9    8       -0.0000001406
    5    1   10    8        0.0000001256
    5    1   11    8       -0.0000507290
    5    1   12    8       -0.0000000031
    5    1   13    8       -0.0000001397
    5    1   14    8       -0.0003000510
    5    1   15    8        0.0002096163
    5    1   16    8       -0.0000026847
    5    1   17    8       -0.0000123883
    5    1   18    8       -0.0000024972
    5    1   19    8       -0.0000011353
    5    1    9    9       -0.0000029238
    5    1   10    9        0.0000000526
    5    1   11    9       -0.0000223257
    5    1   12    9       -0.0000000005
    5    1   13    9        0.0000010257
    5    1   14    9        0.0000641837
    5    1   15    9       -0.0000448168
    5    1   16    9        0.0000071686
    5    1   17    9       -0.0000021815
    5    1   18    9        0.0000004588
    5    1   19    9        0.0000002072
    5    1   10   10       -0.0000047769
    5    1   11   10       -0.0000074970
    5    1   12   10       -0.0000235221
    5    1   13   10        0.0000016176
    5    1   14   10        0.0000016573
    5    1   15   10       -0.0000040011
    5    1   16   10        0.0004676166
    5    1   17   10       -0.0002671911
    5    1   18   10        0.0000012430
    5    1   19   10       -0.0000005022
    5    1   11   11        0.0000014820
    5    1   12   11       -0.0000558806
    5    1   13   11       -0.0006686137
    5    1   14   11       -0.0000026866
    5    1   15   11       -0.0000025687
    5    1   16   11       -0.0001966664
    5    1   17   11        0.0001122912
    5    1   18   11        0.0000019516
    5    1   19   11        0.0002070576
    5    1   12   12        0.0000000001
    5    1   13   12        0.0000000005
    5    1   14   12       -0.0003031624
    5    1   15   12        0.0004815644
    5    1   16   12        0.0000000018
    5    1   17   12        0.0000000014
    5    1   18   12       -0.0000501852
    5    1   19   12       -0.0000000007
    5    1   13   13       -0.0000030813
    5    1   14   13       -0.0002296750
    5    1   15   13        0.0001602367
    5    1   16   13        0.0000021255
    5    1   17   13       -0.0000011824
    5    1   18   13       -0.0000006471
    5    1   19   13       -0.0000000371
    5    1   14   14        0.0000048235
    5    1   15   14       -0.0000002819
    5    1   16   14       -0.0003192578
    5    1   17   14       -0.0000683977
    5    1   18   14       -0.0000003139
    5    1   19   14        0.0003333583
    5    1   15   15       -0.0000072949
    5    1   16   15       -0.0002009197
    5    1   17   15       -0.0000429098
    5    1   18   15        0.0000007585
    5    1   19   15       -0.0002325958
    5    1   16   16       -0.0000036362
    5    1   17   16       -0.0000003336
    5    1   18   16       -0.0002132094
    5    1   19   16        0.0000008036
    5    1   17   17       -0.0000036188
    5    1   18   17       -0.0002346425
    5    1   19   17        0.0000024449
    5    1   18   18       -0.0000040171
    5    1   19   18        0.0000010504
    5    1   19   19       -0.0000030795
    6    1    6    1        0.0000177794
    6    1    7    1        0.0000000005
    6    1    8    1       -0.0000000004
    6    1    9    1       -0.0000000003
    6    1   10    1       -0.0000000027
    6    1   11    1       -0.0000000131
    6    1   12    1       -0.0000000000
    6    1   13    1       -0.0000000006
    6    1   14    1       -0.0000000069
    6    1   15    1        0.0000000073
    6    1   16    1       -0.0000234445
    6    1   17    1       -0.0000010607
    6    1   18    1        0.0000000016
    6    1   19    1        0.0000000007
    6    1    2    2        0.0000000004
    6    1    3    2        0.0000000002
    6    1    4    2        0.0000000251
    6    1    5    2       -0.0000001234
    6    1    6    2        0.0001172393
    6    1    7    2       -0.0000000000
    6    1    8    2        0.0000000001
    6    1    9    2       -0.0000000001
    6    1   10    2       -0.0000000087
    6    1   11    2       -0.0000000430
    6    1   12    2       -0.0000000000
    6    1   13    2       -0.0000000003
    6    1   14    2       -0.0000000040
    6    1   15    2        0.0000000042
    6    1   16    2       -0.0000739318
    6    1   17    2        0.0000466365
    6    1   18    2        0.0000000000
    6    1   19    2       -0.0000000000
    6    1    3    3        0.0000000002
    6    1    4    3       -0.0000000165
    6    1    5    3        0.0000000815
    6    1    6    3       -0.0000617302
    6    1    7    3        0.0000000000
    6    1    8    3       -0.0000000001
    6    1    9    3       -0.0000000001
    6    1   10    3       -0.0000000130
    6    1   11    3       -0.0000000648
    6    1   12    3        0.0000000000
    6    1   13    3        0.0000000001
    6    1   14    3        0.0000000131
    6    1   15    3       -0.0000000137
    6    1   16    3        0.0000235825
    6    1   17    3        0.0000330584
    6    1   18    3       -0.0000000056
    6    1   19    3        0.0000000000
    6    1    4    4       -0.0000441279
    6    1    5    4        0.0001043866
    6    1    6    4       -0.0000000881
    6    1    7    4        0.0000000088
    6    1    8    4        0.0000000032
    6    1    9    4        0.0000000096
    6    1   10    4        0.0000580298
    6    1   11    4        0.0001382197
    6    1   12    4       -0.0000000279
    6    1   13    4       -0.0000000046
    6    1   14    4        0.0000051679
    6    1   15    4       -0.0000082145
    6    1   16    4        0.0000000332
    6    1   17    4       -0.0000000214
    6    1   18    4       -0.0000213969
    6    1   19    4       -0.0000000006
    6    1    5    5        0.0000441599
    6    1    6    5       -0.0000000178
    6    1    7    5       -0.0000000433
    6    1    8    5       -0.0000000158
    6    1    9    5       -0.0000000478
    6    1   10    5       -0.0001381881
    6    1   11    5        0.0000580729
    6    1   12    5        0.0000001384
    6    1   13    5        0.0000000227
    6    1   14    5        0.0000082115
    6    1   15    5        0.0000051518
    6    1   16    5        0.0000000067
    6    1   17    5       -0.0000000043
    6    1   18    5        0.0000509523
    6    1   19    5        0.0000000030
    6    1    6    6        0.0000000002
    6    1    7    6        0.0000706852
    6    1    8    6       -0.0000062847
    6    1    9    6        0.0000988974
    6    1   10    6        0.0000000742
    6    1   11    6       -0.0000000148
    6    1   12    6       -0.0000000000
    6    1   13    6       -0.0000899804
    6    1   14    6        0.0000000179
    6    1   15    6        0.0000000163
    6    1   16    6        0.0000000004
    6    1   17    6        0.0000000001
    6    1   18    6       -0.0000000527
    6    1   19    6       -0.0000018167
    6    1    7    7        0.0000000000
    6    1    8    7        0.0000000000
    6    1    9    7       -0.0000000000
    6    1   10    7       -0.0000000052
    6    1   11    7       -0.0000000260
    6    1   12    7       -0.0000000000
    6    1   13    7       -0.0000000005
    6    1   14    7       -0.0000000973
    6    1   15    7        0.0000001021
    6    1   16    7       -0.0001353804
    6    1   17    7        0.0000009170
    6    1   18    7        0.0000000003
    6    1   19    7        0.0000000002
    6    1    8    8       -0.0000000001
    6    1    9    8        0.0000000001
    6    1   10    8       -0.0000000042
    6    1   11    8       -0.0000000204
    6    1   12    8        0.0000000000
    6    1   13    8        0.0000000000
    6    1   14    8        0.0000000271
    6    1   15    8       -0.0000000284
    6    1   16    8        0.0000394509
    6    1   17    8        0.0001109200
    6    1   18    8       -0.0000000279
    6    1   19    8        0.0000000001
    6    1    9    9        0.0000000001
    6    1   10    9       -0.0000000131
    6    1   11    9       -0.0000000652
    6    1   12    9       -0.0000000000
    6    1   13    9       -0.0000000003
    6    1   14    9       -0.0000000127
    6    1   15    9        0.0000000133
    6    1   16    9       -0.0000850201
    6    1   17    9        0.0000037670
    6    1   18    9        0.0000000044
    6    1   19    9       -0.0000000001
    6    1   10   10       -0.0000410287
    6    1   11   10       -0.0000983952
    6    1   12   10       -0.0000000137
    6    1   13   10        0.0000000084
    6    1   14   10       -0.0000356433
    6    1   15   10        0.0000563188
    6    1   16   10       -0.0000000457
    6    1   17   10        0.0000000335
    6    1   18   10        0.0000082455
    6    1   19   10        0.0000000017
    6    1   11   11        0.0000410718
    6    1   12   11       -0.0000000684
    6    1   13   11        0.0000000422
    6    1   14   11        0.0000563759
    6    1   15   11        0.0000356823
    6    1   16   11        0.0000000090
    6    1   17   11       -0.0000000067
    6    1   18   11        0.0000197795
    6    1   19   11        0.0000000094
    6    1   12   12        0.0000000002
    6    1   13   12        0.0000000000
    6    1   14   12        0.0000000379
    6    1   15   12       -0.0000000396
    6    1   16   12        0.0000000000
    6    1   17   12        0.0000000000
    6    1   18   12        0.0000000074
    6    1   19   12       -0.0000000000
    6    1   13   13        0.0000000005
    6    1   14   13       -0.0000000145
    6    1   15   13        0.0000000152
    6    1   16   13        0.0000662209
    6    1   17   13       -0.0000016081
    6    1   18   13       -0.0000000061
    6    1   19   13       -0.0000000002
    6    1   14   14        0.0000169757
    6    1   15   14       -0.0000008082
    6    1   16   14        0.0000000442
    6    1   17   14        0.0000000104
    6    1   18   14        0.0000174345
    6    1   19   14       -0.0000000141
    6    1   15   15       -0.0000169803
    6    1   16   15        0.0000000439
    6    1   17   15        0.0000000106
    6    1   18   15       -0.0000275357
    6    1   19   15        0.0000000148
    6    1   16   16       -0.0000000012
    6    1   17   16       -0.0000000009
    6    1   18   16        0.0000000226
    6    1   19   16       -0.0000468482
    6    1   17   17        0.0000000002
    6    1   18   17        0.0000000540
    6    1   19   17       -0.0000800157
    6    1   18   18       -0.0000089800
    6    1   19   18        0.0000000023
    6    1   19   19       -0.0000000001
    7    1    7    1        0.0010231696
    7    1    8    1       -0.0007923102
    7    1    9    1       -0.0005326512
    7    1   10    1        0.0000000092
    7    1   11    1       -0.0000000019
    7    1   12    1       -0.0000000005
    7    1   13    1       -0.0010479185
    7    1   14    1       -0.0000000182
    7    1   15    1        0.0000000104
    7    1   16    1       -0.0000000143
    7    1   17    1       -0.0000000066
    7    1   18    1       -0.0000000097
    7    1   19    1        0.0012864088
    7    1    2    2        0.0009337991
    7    1    3    2        0.0004499282
    7    1    4    2       -0.0000000753
    7    1    5    2       -0.0000000154
    7    1    6    2       -0.0000000001
    7    1    7    2        0.0000283282
    7    1    8    2        0.0001181563
    7    1    9    2       -0.0002228225
    7    1   10    2        0.0000000263
    7    1   11    2       -0.0000000055
    7    1   12    2        0.0000000000
    7    1   13    2        0.0000317442
    7    1   14    2       -0.0000000051
    7    1   15    2       -0.0000000073
    7    1   16    2        0.0000000021
    7    1   17    2        0.0000000011
    7    1   18    2        0.0000000003
    7    1   19    2       -0.0001786877
    7    1    3    3        0.0003796223
    7    1    4    3        0.0000000510
    7    1    5    3        0.0000000103
    7    1    6    3       -0.0000000000
    7    1    7    3       -0.0000387650
    7    1    8    3       -0.0003419807
    7    1    9    3       -0.0002289541
    7    1   10    3        0.0000000426
    7    1   11    3       -0.0000000087
    7    1   12    3       -0.0000000000
    7    1   13    3        0.0000063862
    7    1   14    3        0.0000000128
    7    1   15    3        0.0000000137
    7    1   16    3       -0.0000000007
    7    1   17    3        0.0000000007
    7    1   18    3        0.0000000179
    7    1   19    3        0.0001272418
    7    1    4    4        0.0005739888
    7    1    5    4        0.0000000008
    7    1    6    4        0.0000000101
    7    1    7    4       -0.0000000338
    7    1    8    4       -0.0000000065
    7    1    9    4       -0.0000000287
    7    1   10    4       -0.0004033293
    7    1   11    4       -0.0000009755
    7    1   12    4       -0.0000000866
    7    1   13    4        0.0000000102
    7    1   14    4       -0.0000012889
    7    1   15    4       -0.0000018498
    7    1   16    4       -0.0000000048
    7    1   17    4        0.0000000025
    7    1   18    4       -0.0003216290
    7    1   19    4       -0.0000000011
    7    1    5    5        0.0005739458
    7    1    6    5       -0.0000000499
    7    1    7    5       -0.0000000069
    7    1    8    5       -0.0000000013
    7    1    9    5       -0.0000000060
    7    1   10    5       -0.0000009744
    7    1   11    5        0.0004035664
    7    1   12    5       -0.0000000181
    7    1   13    5        0.0000000021
    7    1   14    5       -0.0000021788
    7    1   15    5        0.0000016600
    7    1   16    5        0.0000000232
    7    1   17    5       -0.0000000122
    7    1   18    5       -0.0000008182
    7    1   19    5       -0.0000000002
    7    1    6    6        0.0002792285
    7    1    7    6       -0.0000000000
    7    1    8    6        0.0000000000
    7    1    9    6       -0.0000000000
    7    1   10    6       -0.0000000090
    7    1   11    6       -0.0000000452
    7    1   12    6       -0.0000000000
    7    1   13    6       -0.0000000004
    7    1   14    6        0.0000000055
    7    1   15    6       -0.0000000057
    7    1   16    6       -0.0000667380
    7    1   17    6        0.0003578336
    7    1   18    6        0.0000000069
    7    1   19    6        0.0000000001
    7    1    7    7        0.0001505650
    7    1    8    7       -0.0000536956
    7    1    9    7        0.0000350857
    7    1   10    7        0.0000000134
    7    1   11    7       -0.0000000027
    7    1   12    7       -0.0000000000
    7    1   13    7       -0.0000379531
    7    1   14    7       -0.0000000685
    7    1   15    7       -0.0000000613
    7    1   16    7       -0.0000000034
    7    1   17    7        0.0000000010
    7    1   18    7       -0.0000000036
    7    1   19    7        0.0001672427
    7    1    8    8       -0.0001327417
    7    1    9    8        0.0001730786
    7    1   10    8        0.0000000124
    7    1   11    8       -0.0000000024
    7    1   12    8       -0.0000000000
    7    1   13    8       -0.0000556068
    7    1   14    8        0.0000000143
    7    1   15    8        0.0000000187
    7    1   16    8       -0.0000000036
    7    1   17    8       -0.0000000002
    7    1   18    8        0.0000000898
    7    1   19    8        0.0002676086
    7    1    9    9        0.0002173192
    7    1   10    9        0.0000000403
    7    1   11    9       -0.0000000081
    7    1   12    9        0.0000000000
    7    1   13    9       -0.0000466862
    7    1   14    9       -0.0000000037
    7    1   15    9       -0.0000000096
    7    1   16    9        0.0000000024
    7    1   17    9       -0.0000000006
    7    1   18    9       -0.0000000136
    7    1   19    9       -0.0003826390
    7    1   10   10        0.0004173969
    7    1   11   10       -0.0000000002
    7    1   12   10       -0.0000000414
    7    1   13   10       -0.0000000285
    7    1   14   10       -0.0000077386
    7    1   15   10       -0.0000110464
    7    1   16   10        0.0000000062
    7    1   17   10       -0.0000000036
    7    1   18   10       -0.0001727868
    7    1   19   10       -0.0000000014
    7    1   11   11        0.0004174622
    7    1   12   11        0.0000000086
    7    1   13   11        0.0000000057
    7    1   14   11        0.0000111781
    7    1   15   11       -0.0000079086
    7    1   16   11        0.0000000304
    7    1   17   11       -0.0000000180
    7    1   18   11        0.0000000221
    7    1   19   11        0.0000000000
    7    1   12   12        0.0004084823
    7    1   13   12       -0.0000000001
    7    1   14   12       -0.0000000304
    7    1   15   12       -0.0000000290
    7    1   16   12        0.0000000000
    7    1   17   12       -0.0000000000
    7    1   18   12        0.0000000201
    7    1   19   12        0.0000000000
    7    1   13   13        0.0001621786
    7    1   14   13       -0.0000000065
    7    1   15   13       -0.0000000114
    7    1   16   13        0.0000000043
    7    1   17   13       -0.0000000012
    7    1   18   13        0.0000000181
    7    1   19   13       -0.0000005583
    7    1   14   14        0.0002167685
    7    1   15   14        0.0000000304
    7    1   16   14        0.0000000254
    7    1   17   14        0.0000000061
    7    1   18   14       -0.0000133190
    7    1   19   14        0.0000000014
    7    1   15   15        0.0002167834
    7    1   16   15       -0.0000000266
    7    1   17   15       -0.0000000063
    7    1   18   15       -0.0000190057
    7    1   19   15       -0.0000000075
    7    1   16   16        0.0001971078
    7    1   17   16        0.0000048123
    7    1   18   16       -0.0000000033
    7    1   19   16        0.0000000055
    7    1   17   17       -0.0000909138
    7    1   18   17       -0.0000000063
    7    1   19   17        0.0000000005
    7    1   18   18       -0.0002347527
    7    1   19   18       -0.0000000047
    7    1   19   19       -0.0003375537
    8    1    8    1        0.0007174344
    8    1    9    1        0.0002918418
    8    1   10    1       -0.0000000038
    8    1   11    1        0.0000000015
    8    1   12    1        0.0000000004
    8    1   13    1        0.0007984251
    8    1   14    1        0.0000000161
    8    1   15    1       -0.0000000099
    8    1   16    1        0.0000000132
    8    1   17    1        0.0000000058
    8    1   18    1        0.0000000074
    8    1   19    1       -0.0011796965
    8    1    2    2        0.0002826614
    8    1    3    2        0.0001388155
    8    1    4    2        0.0000000096
    8    1    5    2        0.0000000032
    8    1    6    2        0.0000000001
    8    1    7    2        0.0001773561
    8    1    8    2       -0.0000988165
    8    1    9    2       -0.0000696794
    8    1   10    2       -0.0000000010
    8    1   11    2        0.0000000012
    8    1   12    2       -0.0000000001
    8    1   13    2       -0.0001927311
    8    1   14    2        0.0000000047
    8    1   15    2        0.0000000091
    8    1   16    2       -0.0000000027
    8    1   17    2       -0.0000000009
    8    1   18    2        0.0000000102
    8    1   19    2        0.0001969683
    8    1    3    3        0.0000903593
    8    1    4    3       -0.0000000122
    8    1    5    3       -0.0000000025
    8    1    6    3        0.0000000000
    8    1    7    3        0.0000836867
    8    1    8    3       -0.0000649062
    8    1    9    3       -0.0000609723
    8    1   10    3       -0.0000000164
    8    1   11    3        0.0000000040
    8    1   12    3       -0.0000000000
    8    1   13    3       -0.0001020734
    8    1   14    3       -0.0000000092
    8    1   15    3       -0.0000000063
    8    1   16    3       -0.0000000011
    8    1   17    3       -0.0000000005
    8    1   18    3       -0.0000000284
    8    1   19    3        0.0000869523
    8    1    4    4        0.0001092007
    8    1    5    4       -0.0000000001
    8    1    6    4       -0.0000000008
    8    1    7    4        0.0000000123
    8    1    8    4       -0.0000000212
    8    1    9    4        0.0000000031
    8    1   10    4       -0.0001096834
    8    1   11    4       -0.0000002655
    8    1   12    4        0.0000000148
    8    1   13    4       -0.0000000017
    8    1   14    4        0.0000519780
    8    1   15    4        0.0000745603
    8    1   16    4        0.0000000016
    8    1   17    4        0.0000000029
    8    1   18    4        0.0000415824
    8    1   19    4        0.0000000079
    8    1    5    5        0.0001092714
    8    1    6    5        0.0000000062
    8    1    7    5        0.0000000031
    8    1    8    5       -0.0000000043
    8    1    9    5        0.0000000008
    8    1   10    5       -0.0000002655
    8    1   11    5        0.0001097603
    8    1   12    5        0.0000000021
    8    1   13    5       -0.0000000006
    8    1   14    5        0.0000745960
    8    1   15    5       -0.0000520241
    8    1   16    5       -0.0000000096
    8    1   17    5       -0.0000000138
    8    1   18    5        0.0000001059
    8    1   19    5        0.0000000021
    8    1    6    6        0.0000256433
    8    1    7    6        0.0000000000
    8    1    8    6       -0.0000000000
    8    1    9    6       -0.0000000000
    8    1   10    6        0.0000000004
    8    1   11    6        0.0000000047
    8    1   12    6       -0.0000000000
    8    1   13    6       -0.0000000001
    8    1   14    6        0.0000000032
    8    1   15    6       -0.0000000034
    8    1   16    6       -0.0000184003
    8    1   17    6        0.0000226373
    8    1   18    6       -0.0000000037
    8    1   19    6        0.0000000001
    8    1    7    7        0.0000861033
    8    1    8    7       -0.0000561719
    8    1    9    7       -0.0000337293
    8    1   10    7       -0.0000000040
    8    1   11    7        0.0000000012
    8    1   12    7       -0.0000000000
    8    1   13    7       -0.0000770795
    8    1   14    7        0.0000000179
    8    1   15    7        0.0000000177
    8    1   16    7       -0.0000000011
    8    1   17    7       -0.0000000005
    8    1   18    7        0.0000000038
    8    1   19    7        0.0000967149
    8    1    8    8        0.0000588336
    8    1    9    8        0.0000144919
    8    1   10    8       -0.0000000144
    8    1   11    8        0.0000000030
    8    1   12    8        0.0000000000
    8    1   13    8        0.0000584004
    8    1   14    8       -0.0000000052
    8    1   15    8       -0.0000000068
    8    1   16    8        0.0000000013
    8    1   17    8        0.0000000004
    8    1   18    8       -0.0000000433
    8    1   19    8       -0.0001003390
    8    1    9    9        0.0000565564
    8    1   10    9       -0.0000000091
    8    1   11    9        0.0000000019
    8    1   12    9        0.0000000000
    8    1   13    9        0.0000417606
    8    1   14    9        0.0000000054
    8    1   15    9        0.0000000040
    8    1   16    9        0.0000000002
    8    1   17    9        0.0000000002
    8    1   18    9        0.0000000040
    8    1   19    9       -0.0000321143
    8    1   10   10        0.0001313224
    8    1   11   10       -0.0000000002
    8    1   12   10        0.0000000115
    8    1   13   10        0.0000000036
    8    1   14   10       -0.0000523058
    8    1   15   10       -0.0000746450
    8    1   16   10       -0.0000000015
    8    1   17   10       -0.0000000005
    8    1   18   10       -0.0000724798
    8    1   19   10       -0.0000000106
    8    1   11   11        0.0001313687
    8    1   12   11       -0.0000000022
[...]
   16   13   16   16        0.0000000246
   16   13   17   16       -0.0000000021
   16   13   18   16        0.0000102130
   16   13   19   16        0.0002045851
   16   13   17   17       -0.0000000067
   16   13   18   17       -0.0000079394
   16   13   19   17       -0.0002994399
   16   13   18   18       -0.0001508101
   16   13   19   18        0.0000017241
   16   13   19   19       -0.0000000051
   17   13   17   13        0.0020624902
   17   13   18   13       -0.0000022392
   17   13   19   13       -0.0000000022
   17   13   14   14       -0.0002012058
   17   13   15   14        0.0000095687
   17   13   16   14        0.0000018326
   17   13   17   14       -0.0000077007
   17   13   18   14       -0.0001897952
   17   13   19   14        0.0000062168
   17   13   15   15        0.0002010501
   17   13   16   15        0.0000017453
   17   13   17   15       -0.0000073347
   17   13   18   15        0.0002998797
   17   13   19   15       -0.0000065139
   17   13   16   16       -0.0000000132
   17   13   17   16       -0.0000000217
   17   13   18   16        0.0000006100
   17   13   19   16        0.0000165122
   17   13   17   17        0.0000000095
   17   13   18   17        0.0000299377
   17   13   19   17       -0.0002490571
   17   13   18   18       -0.0003816676
   17   13   19   18        0.0000027999
   17   13   19   19        0.0000000038
   18   13   18   13        0.0011018976
   18   13   19   13        0.0000069950
   18   13   14   14        0.0000177327
   18   13   15   14        0.0000085059
   18   13   16   14        0.0002352658
   18   13   17   14       -0.0000004873
   18   13   18   14       -0.0000039545
   18   13   19   14       -0.0002697859
   18   13   15   15        0.0000111579
   18   13   16   15       -0.0003716106
   18   13   17   15        0.0000009084
   18   13   18   15       -0.0000027756
   18   13   19   15       -0.0003848988
   18   13   16   16        0.0000418165
   18   13   17   16        0.0000016021
   18   13   18   16       -0.0001675338
   18   13   19   16        0.0000005075
   18   13   17   17        0.0000520190
   18   13   18   17       -0.0002804056
   18   13   19   17        0.0000009684
   18   13   18   18        0.0000265360
   18   13   19   18       -0.0000417415
   18   13   19   19        0.0000413543
   19   13   19   13        0.0032364982
   19   13   14   14       -0.0009305817
   19   13   15   14        0.0000016787
   19   13   16   14        0.0000099095
   19   13   17   14        0.0000075585
   19   13   18   14       -0.0008397001
   19   13   19   14       -0.0000194016
   19   13   15   15       -0.0009303068
   19   13   16   15       -0.0000103851
   19   13   17   15       -0.0000079184
   19   13   18   15       -0.0011978916
   19   13   19   15       -0.0000185105
   19   13   16   16       -0.0001163244
   19   13   17   16       -0.0004452921
   19   13   18   16        0.0000011520
   19   13   19   16       -0.0000000149
   19   13   17   17       -0.0015355206
   19   13   18   17        0.0000019734
   19   13   19   17        0.0000000048
   19   13   18   18       -0.0006381375
   19   13   19   18        0.0000059546
   19   13   19   19       -0.0007736258
   14   14   14   14        0.0747986117
   14   14   15   14        0.0001915785
   14   14   16   14       -0.0000021162
   14   14   17   14       -0.0000004523
   14   14   18   14        0.0004349307
   14   14   19   14        0.0000005423
   14   14   15   15        0.0706640188
   14   14   16   15       -0.0000328833
   14   14   17   15       -0.0000068323
   14   14   18   15        0.0014281192
   14   14   19   15       -0.0000039659
   14   14   16   16        0.0669594626
   14   14   17   16        0.0019068265
   14   14   18   16       -0.0000111150
   14   14   19   16       -0.0005770256
   14   14   17   17        0.0632609018
   14   14   18   17       -0.0000243012
   14   14   19   17       -0.0005296644
   14   14   18   18        0.0655878101
   14   14   19   18        0.0000064411
   14   14   19   19        0.0628075604
   15   14   15   14        0.0061865719
   15   14   16   14       -0.0000272983
   15   14   17   14       -0.0000068574
   15   14   18   14        0.0011168033
   15   14   19   14        0.0000133114
   15   14   15   15       -0.0001973128
   15   14   16   15        0.0000302640
   15   14   17   15        0.0000075297
   15   14   18   15        0.0006744511
   15   14   19   15        0.0000129103
   15   14   16   16       -0.0000013450
   15   14   17   16       -0.0000013987
   15   14   18   16        0.0000006605
   15   14   19   16        0.0000271004
   15   14   17   17       -0.0000022521
   15   14   18   17        0.0000082749
   15   14   19   17        0.0000248695
   15   14   18   18        0.0039915784
   15   14   19   18        0.0000380606
   15   14   19   19       -0.0000005782
   16   14   16   14        0.0040217299
   16   14   17   14        0.0008059831
   16   14   18   14       -0.0000065975
   16   14   19   14       -0.0012181617
   16   14   15   15        0.0000355841
   16   14   16   15        0.0000000160
   16   14   17   15       -0.0000019867
   16   14   18   15       -0.0000063459
   16   14   19   15        0.0000576927
   16   14   16   16        0.0000740341
   16   14   17   16        0.0000044819
   16   14   18   16       -0.0000166643
   16   14   19   16       -0.0000097705
   16   14   17   17        0.0000617629
   16   14   18   17        0.0011789075
   16   14   19   17       -0.0000134995
   16   14   18   18        0.0000109187
   16   14   19   18       -0.0004097951
   16   14   19   19        0.0000399220
   17   14   17   14        0.0011346995
   17   14   18   14       -0.0000050638
   17   14   19   14       -0.0008394672
   17   14   15   15        0.0000075048
   17   14   16   15       -0.0000014310
   17   14   17   15       -0.0000002760
   17   14   18   15       -0.0000043090
   17   14   19   15        0.0000391782
   17   14   16   16        0.0000148687
   17   14   17   16        0.0000061357
   17   14   18   16        0.0002808875
   17   14   19   16       -0.0000029563
   17   14   17   17        0.0000045337
   17   14   18   17        0.0000386236
   17   14   19   17       -0.0000051493
   17   14   18   18        0.0000008978
   17   14   19   18        0.0000757908
   17   14   19   19        0.0000079840
   18   14   18   14        0.0017484987
   18   14   19   14        0.0000056635
   18   14   15   15        0.0008948552
   18   14   16   15        0.0000070390
   18   14   17   15        0.0000046744
   18   14   18   15        0.0010892308
   18   14   19   15        0.0000080027
   18   14   16   16        0.0006604397
   18   14   17   16        0.0006183873
   18   14   18   16        0.0000017847
   18   14   19   16       -0.0000205773
   18   14   17   17        0.0010267002
   18   14   18   17       -0.0000008805
   18   14   19   17       -0.0000062642
   18   14   18   18        0.0019569453
   18   14   19   18        0.0000049942
   18   14   19   19        0.0008843688
   19   14   19   14        0.0017914655
   19   14   15   15       -0.0000051896
   19   14   16   15        0.0000570186
   19   14   17   15        0.0000396174
   19   14   18   15        0.0000086601
   19   14   19   15       -0.0000004443
   19   14   16   16       -0.0000249439
   19   14   17   16       -0.0000031723
   19   14   18   16       -0.0001084645
   19   14   19   16        0.0000057934
   19   14   17   17       -0.0000107124
   19   14   18   17       -0.0000384605
   19   14   19   17        0.0000088469
   19   14   18   18        0.0000007620
   19   14   19   18        0.0002021671
   19   14   19   19       -0.0000001600
   15   15   15   15        0.0747989667
   15   15   16   15       -0.0000022248
   15   15   17   15       -0.0000005623
   15   15   18   15        0.0004705134
   15   15   19   15       -0.0000004966
   15   15   16   16        0.0669594984
   15   15   17   16        0.0019066140
   15   15   18   16        0.0000074095
   15   15   19   16        0.0005769676
   15   15   17   17        0.0632606768
   15   15   18   17        0.0000160572
   15   15   19   17        0.0005297714
   15   15   18   18        0.0654198697
   15   15   19   18        0.0000013149
   15   15   19   19        0.0628072432
   16   15   16   15        0.0040218947
   16   15   17   15        0.0008057534
   16   15   18   15        0.0000043971
   16   15   19   15        0.0012180615
   16   15   16   16       -0.0000776048
   16   15   17   16       -0.0000046994
   16   15   18   16       -0.0000237766
   16   15   19   16       -0.0000093697
   16   15   17   17       -0.0000647401
   16   15   18   17        0.0016820161
   16   15   19   17       -0.0000129358
   16   15   18   18        0.0000075911
   16   15   19   18        0.0006471109
   16   15   19   19       -0.0000418534
   17   15   17   15        0.0011345921
   17   15   18   15        0.0000033622
   17   15   19   15        0.0008393878
   17   15   16   16       -0.0000155965
   17   15   17   16       -0.0000064325
   17   15   18   16        0.0004007529
   17   15   19   16       -0.0000028392
   17   15   17   17       -0.0000047730
   17   15   18   17        0.0000551621
   17   15   19   17       -0.0000049396
   17   15   18   18        0.0000043784
   17   15   19   18       -0.0001201450
   17   15   19   19       -0.0000083813
   18   15   18   15        0.0021781120
   18   15   19   15        0.0000031306
   18   15   16   16        0.0009422739
   18   15   17   16        0.0008822266
   18   15   18   16       -0.0000005334
   18   15   19   16        0.0000325394
   18   15   17   17        0.0014648305
   18   15   18   17        0.0000036044
   18   15   19   17        0.0000098511
   18   15   18   18        0.0017343899
   18   15   19   18        0.0000025795
   18   15   19   19        0.0012615465
   19   15   19   15        0.0017913076
   19   15   16   16       -0.0000238328
   19   15   17   16       -0.0000030494
   19   15   18   16        0.0001713032
   19   15   19   16       -0.0000060789
   19   15   17   17       -0.0000101771
   19   15   18   17        0.0000604342
   19   15   19   17       -0.0000092784
   19   15   18   18        0.0000071531
   19   15   19   18        0.0002883450
   19   15   19   19       -0.0000001326
   16   16   16   16        0.0695318553
   16   16   17   16        0.0018445666
   16   16   18   16       -0.0000033222
   16   16   19   16       -0.0000000044
   16   16   17   17        0.0645587527
   16   16   18   17       -0.0000141077
   16   16   19   17        0.0000000489
   16   16   18   18        0.0630759056
   16   16   19   18       -0.0000082110
   16   16   19   19        0.0602991938
   17   16   17   16        0.0023555758
   17   16   18   16       -0.0000022719
   17   16   19   16        0.0000000225
   17   16   17   17        0.0009658108
   17   16   18   17       -0.0000008644
   17   16   19   17        0.0000000294
   17   16   18   18        0.0009510571
   17   16   19   18       -0.0000011279
   17   16   19   19        0.0012838443
   18   16   18   16        0.0012373864
   18   16   19   16        0.0000020049
   18   16   17   17       -0.0000031898
   18   16   18   17        0.0003147304
   18   16   19   17       -0.0000023839
   18   16   18   18        0.0000008792
   18   16   19   18        0.0001131185
   18   16   19   19       -0.0000015200
   19   16   19   16        0.0011498163
   19   16   17   17       -0.0000000380
   19   16   18   17       -0.0000042750
   19   16   19   17        0.0009944652
   19   16   18   18       -0.0000498249
   19   16   19   18       -0.0000003971
   19   16   19   19       -0.0000000372
   17   17   17   17        0.0729193399
   17   17   18   17       -0.0000231970
   17   17   19   17       -0.0000000044
   17   17   18   18        0.0671908416
   17   17   19   18       -0.0000299908
   17   17   19   19        0.0625281814
   18   17   18   17        0.0042217204
   18   17   19   17       -0.0000120987
   18   17   18   18        0.0000122300
   18   17   19   18        0.0007393744
   18   17   19   19       -0.0000071642
   19   17   19   17        0.0030755819
   19   17   18   18        0.0000907361
   19   17   19   18       -0.0000020394
   19   17   19   19        0.0000000029
   18   18   18   18        0.0758415729
   18   18   19   18        0.0000549009
   18   18   19   19        0.0648164228
   19   18   19   18        0.0036518489
   19   18   19   19        0.0000595768
   19   19   19   19        0.0654388942
 end_two_electron_integrals


 output epsi filename:./pspw_hf_LiH.emovecs

 Total PSPW energy     :  -0.7422870363E+00


=== Spin Contamination ===

 <Sexact^2> =    0.0000000000000000     
 <S^2>      =    0.0000000000000000     



== Center of Charge ==

spin up     (    0.0000,    0.0000,    2.1654 )
spin down   (    0.0000,    0.0000,    2.1654 )
     total  (    0.0000,    0.0000,    2.1654 )
ionic       (    0.0000,    0.0000,    0.8504 )


== Molecular Dipole wrt Center of Mass ==

mu   =  (   -0.0000,   -0.0000,   -2.6301 ) au
|mu| =     2.6301 au,       6.6846 Debye

 output psi filename:./pspw_hf_LiH.movecs

 Writing Crystallographic Information File:./LiH.cif
   - cell not shifted (nwpw:cif_shift_cell .false.)


== Timing ==

cputime in seconds
  prologue    :   0.891939E+02
  main loop   :   0.106757E+04
  epilogue    :   0.790413E-01
  total       :   0.115684E+04
  cputime/step:   0.834039E+01       (     128 evalulations,      58 linesearches)


Time spent doing                        total          step       percent
  total time                 :   0.115687E+04  0.903801E+01       100.0 %
  i/o time                   :   0.237860E+01  0.185828E-01         0.2 %
  FFTs                       :   0.845347E+03  0.660427E+01        73.1 %
  dot products               :   0.503732E+01  0.393541E-01         0.4 %
  geodesic                   :   0.989471E-01  0.773024E-03         0.0 %
  ffm_dgemm                  :   0.223610E-01  0.174695E-03         0.0 %
  fmf_dgemm                  :   0.438886E-01  0.342880E-03         0.0 %
  mmm_dgemm                  :   0.296953E-02  0.231995E-04         0.0 %
  m_diagonalize              :   0.133768E-02  0.104506E-04         0.0 %
  local pseudopotentials     :   0.590430E-02  0.461273E-04         0.0 %
  non-local pseudopotentials :   0.273886E+01  0.213973E-01         0.2 %
  structure factors          :   0.515370E+00  0.402633E-02         0.0 %
  phase factors              :   0.179640E-04  0.140344E-06         0.0 %
  masking and packing        :   0.579245E+02  0.452535E+00         5.0 %
  queue fft                  :   0.148075E+01  0.115684E-01         0.1 %
  queue fft (serial)         :   0.543766E+00  0.424817E-02         0.0 %
  queue fft (message passing):   0.881082E+00  0.688345E-02         0.1 %
  HFX potential              :   0.668492E+03  0.522259E+01        57.8 %
  non-local psp FFM          :   0.217482E+01  0.169908E-01         0.2 %
  non-local psp FMF          :   0.138576E+00  0.108263E-02         0.0 %
  non-local psp FFM A        :   0.247856E+00  0.193638E-02         0.0 %
  non-local psp FFM B        :   0.221626E+00  0.173145E-02         0.0 %

== HFX Counters ==
  HFX Evalulations         =   128
  Lin ACE HFX Evalulations =     0


     >>>  JOB COMPLETED     AT Mon May  5 02:27:28 2025  <<<

 Task  times  cpu:     1086.0s     wall:     1156.9s


                                NWChem Input Module
                                -------------------


 Summary of allocated global arrays
-----------------------------------
  No active global arrays


MA_summarize_allocated_blocks: starting scan ...
MA_summarize_allocated_blocks: scan completed: 0 heap blocks, 0 stack blocks
MA usage statistics:

	allocation statistics:
					      heap	     stack
					      ----	     -----
	current number of blocks	         0	         0
	maximum number of blocks	       315	        19
	current total bytes		         0	         0
	maximum total bytes		 127233592	  29398952
	maximum total K-bytes		    127234	     29399
	maximum total M-bytes		       128	        30


                                     CITATION
                                     --------
                Please cite the following reference when publishing
                           results obtained with NWChem:

          E. Apra, E. J. Bylaska, W. A. de Jong, N. Govind, K. Kowalski,
       T. P. Straatsma, M. Valiev, H. J. J. van Dam, Y. Alexeev, J. Anchell,
       V. Anisimov, F. W. Aquino, R. Atta-Fynn, J. Autschbach, N. P. Bauman,
     J. C. Becca, D. E. Bernholdt, K. Bhaskaran-Nair, S. Bogatko, P. Borowski,
         J. Boschen, J. Brabec, A. Bruner, E. Cauet, Y. Chen, G. N. Chuev,
      C. J. Cramer, J. Daily, M. J. O. Deegan, T. H. Dunning Jr., M. Dupuis,
   K. G. Dyall, G. I. Fann, S. A. Fischer, A. Fonari, H. Fruchtl, L. Gagliardi,
      J. Garza, N. Gawande, S. Ghosh, K. Glaesemann, A. W. Gotz, J. Hammond,
       V. Helms, E. D. Hermes, K. Hirao, S. Hirata, M. Jacquelin, L. Jensen,
   B. G. Johnson, H. Jonsson, R. A. Kendall, M. Klemm, R. Kobayashi, V. Konkov,
      S. Krishnamoorthy, M. Krishnan, Z. Lin, R. D. Lins, R. J. Littlefield,
      A. J. Logsdail, K. Lopata, W. Ma, A. V. Marenich, J. Martin del Campo,
   D. Mejia-Rodriguez, J. E. Moore, J. M. Mullin, T. Nakajima, D. R. Nascimento,
    J. A. Nichols, P. J. Nichols, J. Nieplocha, A. Otero-de-la-Roza, B. Palmer,
    A. Panyala, T. Pirojsirikul, B. Peng, R. Peverati, J. Pittner, L. Pollack,
   R. M. Richard, P. Sadayappan, G. C. Schatz, W. A. Shelton, D. W. Silverstein,
   D. M. A. Smith, T. A. Soares, D. Song, M. Swart, H. L. Taylor, G. S. Thomas,
            V. Tipparaju, D. G. Truhlar, K. Tsemekhman, T. Van Voorhis,
      A. Vazquez-Mayagoitia, P. Verma, O. Villa, A. Vishnu, K. D. Vogiatzis,
        D. Wang, J. H. Weare, M. J. Williamson, T. L. Windus, K. Wolinski,
        A. T. Wong, Q. Wu, C. Yang, Q. Yu, M. Zacharias, Z. Zhang, Y. Zhao,
                                and R. J. Harrison
                        "NWChem: Past, present, and future
                         J. Chem. Phys. 152, 184102 (2020)
                               doi:10.1063/5.0004997

                                      AUTHORS
                                      -------
  E. Apra, E. J. Bylaska, N. Govind, K. Kowalski, M. Valiev, D. Mejia-Rodriguez,
       A. Kunitsa, N. P. Bauman, A. Panyala, W. A. de Jong, T. P. Straatsma,
   H. J. J. van Dam, D. Wang, T. L. Windus, J. Hammond, J. Autschbach, A. Woods,
    K. Bhaskaran-Nair, J. Brabec, K. Lopata, S. A. Fischer, S. Krishnamoorthy,
     M. Jacquelin, W. Ma, M. Klemm, O. Villa, Y. Chen, V. Anisimov, F. Aquino,
     S. Hirata, M. T. Hackler, E. Hermes, L. Jensen, J. E. Moore, J. C. Becca,
      V. Konjkov, T. Risthaus, M. Malagoli, A. Marenich, A. Otero-de-la-Roza,
        J. Mullin, P. Nichols, R. Peverati, J. Pittner, Y. Zhao, P.-D. Fan,
        A. Fonari, M. J. Williamson, R. J. Harrison, J. R. Rehr, M. Dupuis,
     D. Silverstein, D. M. A. Smith, J. Nieplocha, V. Tipparaju, M. Krishnan,
     B. E. Van Kuiken, A. Vazquez-Mayagoitia, M. Swart, Q. Wu, T. Van Voorhis,
     A. A. Auer, M. Nooijen, L. D. Crosby, E. Brown, G. Cisneros, G. I. Fann,
   H. Fruchtl, J. Garza, K. Hirao, R. A. Kendall, J. A. Nichols, K. Tsemekhman,
    K. Wolinski, J. Anchell, D. E. Bernholdt, P. Borowski, T. Clark, D. Clerc,
   H. Dachsel, M. J. O. Deegan, K. Dyall, D. Elwood, E. Glendening, M. Gutowski,
   A. C. Hess, J. Jaffe, B. G. Johnson, J. Ju, R. Kobayashi, R. Kutteh, Z. Lin,
   R. Littlefield, X. Long, B. Meng, T. Nakajima, S. Niu, L. Pollack, M. Rosing,
   K. Glaesemann, G. Sandrone, M. Stave, H. Taylor, G. Thomas, J. H. van Lenthe,
                               A. T. Wong, Z. Zhang.

 Total times  cpu:     1086.0s     wall:     1157.0s
