 argument  1 = ../data/PW_LiH_data/3x3_aperiodic/NWChem/18nocovo/H1Li1-1.4.nw



============================== echo of input deck ==============================
title "swnc: e theory=pspw4 xc=pbe formula=LiH charge=0 mult=1"
#machinejob:expert

echo

start pspw_hf_LiH

memory heap 1200 mb stack 2400 mb global 400 mb

charge 0

geometry
Li    0.00000    0.00000   -0.70000
H     0.00000    0.00000    0.70000
end

nwpw
  ### pseudopotential block begin ###
  ### pseudopotential block end   ###
  simulation_cell
     SC 28.345889835
     boundary_conditions aperiodic
  end

  cutoff 50.0
  mult 1
  xc hf
  lmbfgs
  tolerances 1.0e-9 1.0e-9

  virtual 18
end
set nwpw:cif_filename LiH

#set nwpw:CI_maxit_orb 15
#set nwpw:CI_maxit_linesearch 15

set nwpw:2qintegrals .true.
#set nwpw:3x3_virtual .true.

task pspw energy
================================================================================


                                         
                                         


             Northwest Computational Chemistry Package (NWChem) 7.2.3
             --------------------------------------------------------


                    Environmental Molecular Sciences Laboratory
                       Pacific Northwest National Laboratory
                                Richland, WA 99352

                              Copyright (c) 1994-2022
                       Pacific Northwest National Laboratory
                            Battelle Memorial Institute

             NWChem is an open-source computational chemistry package
                        distributed under the terms of the
                      Educational Community License (ECL) 2.0
             A copy of the license is included with this distribution
                              in the LICENSE.TXT file

                                  ACKNOWLEDGMENT
                                  --------------

            This software and its documentation were developed at the
            EMSL at Pacific Northwest National Laboratory, a multiprogram
            national laboratory, operated for the U.S. Department of Energy
            by Battelle under Contract Number DE-AC05-76RL01830. Support
            for this work was provided by the Department of Energy Office
            of Biological and Environmental Research, Office of Basic
            Energy Sciences, and the Office of Advanced Scientific Computing.


           Job information
           ---------------

    hostname        = mqs-al
    program         = nwchem
    date            = Mon May  5 00:43:15 2025

    compiled        = Thu_Oct_31_08:55:15_2024
    source          = /home/conda/feedstock_root/build_artifacts/nwchem_1730356057992/work
    nwchem branch   = 7.2.3
    nwchem revision = c400b04
    ga revision     = 5.8.0
    use scalapack   = T
    input           = ../data/PW_LiH_data/3x3_aperiodic/NWChem/18nocovo/H1Li1-1.4.nw
    prefix          = pspw_hf_LiH.
    data base       = ./pspw_hf_LiH.db
    status          = startup
    nproc           =       24
    time left       =     -1s



           Memory information
           ------------------

    heap     =  157286398 doubles =   1200.0 Mbytes
    stack    =  314572795 doubles =   2400.0 Mbytes
    global   =   52428800 doubles =    400.0 Mbytes (distinct from heap & stack)
    total    =  524287993 doubles =   4000.0 Mbytes
    verify   = yes
    hardfail = no 


           Directory information
           ---------------------

  0 permanent = .
  0 scratch   = .




                                NWChem Input Module
                                -------------------


              swnc: e theory=pspw4 xc=pbe formula=LiH charge=0 mult=1
              -------------------------------------------------------

 Scaling coordinates for geometry "geometry" by  1.889725989
 (inverse scale =  0.529177249)

  zeroes
  zeroes
  zeroes
  zeroes
  zeroes
  zeroes
  zeroes
  zeroes
  zeroes
  zeroes
  zeroes
  zeroes
  zeroes
  zeroes
  zeroes
  zeroes
  zeroes
  zeroes
  zeroes
  zeroes
  zeroes
  zeroes
  zeroes
  zeroes
  zeroes
  zeroes
  zeroes
  zeroes
  zeroes
  zeroes
  zeroes
  zeroes
  zeroes
  zeroes
  zeroes
  zeroes
  zeroes
  zeroes
  zeroes
  zeroes
  zeroes
  zeroes
  zeroes
  zeroes
  zeroes
  zeroes
  zeroes
  zeroes
 ORDER OF PRIMARY AXIS IS BEING SET TO 4
 C4V symmetry detected

          ------
          auto-z
          ------
  no constraints, skipping    0.0000000000000000     
  no constraints, skipping    0.0000000000000000     


                             Geometry "geometry" -> ""
                             -------------------------

 Output coordinates in angstroms (scale by  1.889725989 to convert to a.u.)

  No.       Tag          Charge          X              Y              Z
 ---- ---------------- ---------- -------------- -------------- --------------
    1 Li                   3.0000     0.00000000     0.00000000    -0.35000000
    2 H                    1.0000     0.00000000     0.00000000     1.05000000

      Atomic Mass 
      ----------- 

      Li                 7.016000
      H                  1.007825


 Effective nuclear repulsion energy (a.u.)       1.1339512479

            Nuclear Dipole moment (a.u.) 
            ----------------------------
        X                 Y               Z
 ---------------- ---------------- ----------------
     0.0000000000     0.0000000000     0.0000000000

      Symmetry information
      --------------------

 Group name             C4v       
 Group number             18
 Group order               8
 No. of unique centers     2

      Symmetry unique atoms

     1    2



                                Z-matrix (autoz)
                                -------- 

 Units are Angstrom for bonds and degrees for angles

      Type          Name      I     J     K     L     M      Value
      ----------- --------  ----- ----- ----- ----- ----- ----------
    1 Stretch                  1     2                       1.40000


            XYZ format geometry
            -------------------
     2
 geometry
 Li                    0.00000000     0.00000000    -0.35000000
 H                     0.00000000     0.00000000     1.05000000

 ==============================================================================
                                internuclear distances
 ------------------------------------------------------------------------------
       center one      |      center two      | atomic units |  angstroms
 ------------------------------------------------------------------------------
    2 H                |   1 Li               |     2.64562  |     1.40000
 ------------------------------------------------------------------------------
                         number of included internuclear distances:          1
 ==============================================================================



          ****************************************************
          *                                                  *
          *               NWPW PSPW Calculation              *
          *                                                  *
          * [ (Grassmann/Stiefel manifold implementation)  ] *
          *                                                  *
          *      [ NorthWest Chemistry implementation ]      *
          *                                                  *
          *            version #5.10   06/12/02              *
          *                                                  *
          *    This code was developed by Eric J. Bylaska,   *
          *    and was based upon algorithms and code        *
          *    developed by the group of Prof. John H. Weare *
          *                                                  *
          ****************************************************
     >>>  JOB STARTED       AT Mon May  5 00:43:15 2025  <<<
          ================ input data ========================

 input psi filename:./pspw_hf_LiH.movecs

 number of processors used:        24
 processor grid           :  24 x   1
 parallel mapping         :2d-hilbert
 parallel mapping         :  balanced
 number of threads        :         1
 parallel io              :       off

 options:
      boundary conditions  = aperiodic   (version4)
      electron spin        = restricted
      exchange-correlation = Hartree-Fock
      - HFX relaxed
      - HFX restricted orbitals :    1
      - HFX free-space coulomb solver


 elements involved in the cluster:
      1: Li  valence charge:  1.0000  lmax=  1
             comment    : Hamann pseudopotential
             pseudpotential type            :   0
             highest angular component      :   1
             local potential used           :   1
             number of non-local projections:   1
             aperiodic cutoff radius        :  1.000
             semicore corrections included  :  1.000 (radius)  0.769 (charge)
             cutoff =   1.869   1.551

      2: H   valence charge:  1.0000  lmax=  1
             comment    : Parameterized (Chem.Phys.Lett., vol 322, page 447) Hamman psp
             pseudpotential type            :   0
             highest angular component      :   1
             local potential used           :   1
             number of non-local projections:   1
             aperiodic cutoff radius        :  1.000
             cutoff =   0.800   0.800


 total charge:   0.000

 atomic composition:
     Li  :    1     H   :    1

 number of electrons: spin up=     1 (   1 per task)  down=     1 (   1 per task) (Fourier space)
 number of orbitals : spin up=     1 (   1 per task)  down=     1 (   1 per task) (Fourier space)

 supercell:
      cell_name:  cell_default                                      
      lattice:    a1=<  28.346   0.000   0.000 >
                  a2=<   0.000  28.346   0.000 >
                  a3=<   0.000   0.000  28.346 >
      reciprocal: b1=<   0.222   0.000   0.000 >
                  b2=<   0.000   0.222   0.000 >
                  b3=<   0.000   0.000   0.222 >
      lattice:    a=      28.346 b=     28.346 c=      28.346
                  alpha=  90.000 beta=  90.000 gamma=  90.000
                  omega=     22775.6

      density cutoff=100.000  fft=140x140x140(   544264 waves    22677 per task)
      wavefnc cutoff= 50.000  fft=140x140x140(   192294 waves     8012 per task)

 technical parameters:
      time step=      5.80     fictitious mass=  400000.0
      tolerance=0.100E-08 (energy)   0.100E-08 (density)
      maximum iterations =      1000 (   10 inner    100 outer )





== Energy Calculation ==


          ============ Grassmann lmbfgs iteration ============
     >>>  ITERATION STARTED AT Mon May  5 00:44:45 2025  <<<
    iter.           Energy         DeltaE       DeltaRho 
    ------------------------------------------------------
      10   -0.7361877618E+00   -0.81373E-04    0.12134E-02
      20   -0.7363822123E+00   -0.38331E-05    0.41484E-05
      30   -0.7363954851E+00   -0.36296E-06    0.10322E-06
      40   -0.7363967504E+00   -0.42076E-07    0.56514E-08
      50   -0.7363969215E+00   -0.63059E-08    0.93820E-09
      60   -0.7363969455E+00   -0.96646E-09    0.84139E-10
  *** tolerance ok. iteration terminated
     >>>  ITERATION ENDED   AT Mon May  5 00:45:53 2025  <<<


==  Summary Of Results  ==

 number of electrons: spin up=    1.00000  down=    1.00000 (real space)

 total     energy    :  -0.7363969455E+00 (   -0.36820E+00/ion)
 total orbital energy:  -0.6132172521E+00 (   -0.61322E+00/electron)
 hartree   energy    :   0.1002326885E+01 (    0.10023E+01/electron)
 exc-corr  energy    :   0.0000000000E+00 (    0.00000E+00/electron)
 HF exchange energy  :  -0.5011634427E+00 (   -0.50116E+00/electron)
 ion-ion   energy    :   0.3779837493E+00 (    0.18899E+00/ion)

 kinetic (planewave) :   0.6703939010E+00 (    0.67039E+00/electron)
 V_local (planewave) :  -0.2203740101E+01 (   -0.22037E+01/electron)
 V_nl    (planewave) :  -0.8219793739E-01 (   -0.82198E-01/electron)
 V_Coul  (planewave) :   0.2004653771E+01 (    0.20047E+01/electron)
 V_xc.   (planewave) :   0.0000000000E+00 (    0.00000E+00/electron)
 K.S. HFX energy     :  -0.1002326885E+01 (   -0.10023E+01/electron)
 Virial Coefficient  :  -0.4195805888E+00

 orbital energies:
    -0.3066086E+00 (  -8.343eV)


== Virtual Orbital Calculation ==


 input epsi filename:./pspw_hf_LiH.emovecs
     orbital   1 current e=-0.795E-02 (error=0.984E-09) iterations  83(  17 preconditioned, Ep,Sp= 20.0  200.0)
     orbital   2 current e= 0.987E-02 (error=0.965E-09) iterations  78(  14 preconditioned, Ep,Sp= 20.0  200.0)
     orbital   3 current e= 0.200E-01 (error=0.976E-09) iterations  51(   2 preconditioned, Ep,Sp= 20.0  200.0)
     orbital   4 current e= 0.200E-01 (error=0.940E-09) iterations  65(   2 preconditioned, Ep,Sp= 20.0  200.0)
     orbital   5 current e= 0.231E-01 (error=0.992E-09) iterations  22(   1 preconditioned, Ep,Sp= 20.0  200.0)
     orbital   6 current e= 0.234E-01 (error=0.987E-09) iterations  73(  11 preconditioned, Ep,Sp= 20.0  200.0)
     orbital   7 current e= 0.294E-01 (error=0.906E-09) iterations  62(  11 preconditioned, Ep,Sp= 20.0  200.0)
     orbital   8 current e= 0.382E-01 (error=0.932E-09) iterations  58(   9 preconditioned, Ep,Sp= 20.0  200.0)
     orbital   9 current e= 0.421E-01 (error=0.967E-09) iterations  77(  10 preconditioned, Ep,Sp= 20.0  200.0)
     orbital  10 current e= 0.421E-01 (error=0.137E-08) iterations 121(  12 preconditioned, Ep,Sp= 20.0  200.0)
     orbital  10 current e= 0.421E-01 (error=0.656E-09) iterations   2(   1 preconditioned, Ep,Sp= 20.0  200.0)
     orbital  11 current e= 0.465E-01 (error=0.905E-09) iterations  54(   1 preconditioned, Ep,Sp= 20.0  200.0)
     orbital  12 current e= 0.472E-01 (error=0.914E-09) iterations  96(  32 preconditioned, Ep,Sp= 20.0  200.0)
     orbital  13 current e= 0.472E-01 (error=0.999E-09) iterations  79(  13 preconditioned, Ep,Sp= 20.0  200.0)
     orbital  14 current e= 0.484E-01 (error=0.984E-09) iterations  64(   9 preconditioned, Ep,Sp= 20.0  200.0)
     orbital  15 current e= 0.500E-01 (error=0.893E-09) iterations  49(   1 preconditioned, Ep,Sp= 20.0  200.0)
     orbital  16 current e= 0.523E-01 (error=0.963E-09) iterations  67(   1 preconditioned, Ep,Sp= 20.0  200.0)
     orbital  17 current e= 0.592E-01 (error=0.957E-09) iterations  99(  25 preconditioned, Ep,Sp= 20.0  200.0)
     orbital  18 current e= 0.687E-01 (error=0.199E-08) iterations 121(   6 preconditioned, Ep,Sp= 20.0  200.0)
     orbital  18 current e= 0.687E-01 (error=0.957E-09) iterations  52(   4 preconditioned, Ep,Sp= 20.0  200.0)

 virtual orbital energies:
     0.6870102E-01 (   1.869eV)
     0.5924614E-01 (   1.612eV)
     0.5234343E-01 (   1.424eV)
     0.5001786E-01 (   1.361eV)
     0.4839084E-01 (   1.317eV)
     0.4724938E-01 (   1.286eV)
     0.4718224E-01 (   1.284eV)
     0.4651232E-01 (   1.266eV)
     0.4210762E-01 (   1.146eV)
     0.4210762E-01 (   1.146eV)
     0.3817638E-01 (   1.039eV)
     0.2935741E-01 (   0.799eV)
     0.2339990E-01 (   0.637eV)
     0.2307148E-01 (   0.628eV)
     0.2002599E-01 (   0.545eV)
     0.2002599E-01 (   0.545eV)
     0.9867072E-02 (   0.268eV)
    -0.7947542E-02 (  -0.216eV)


 == Generating One-Electron and Two-Electron Integrals ==

 begin_one_electron_integrals
    1    1        -0.8077720687
    2    1        -0.0302266650
    3    1        -0.0177086195
    4    1        -0.0000001223
    5    1         0.0000000038
    6    1         0.0000000641
    7    1         0.0152782882
    8    1        -0.0155615625
    9    1         0.0057811675
   10    1         0.0000004001
   11    1        -0.0000001551
   12    1         0.0000000007
   13    1         0.0000539714
   14    1         0.0153290214
   15    1         0.0000127463
   16    1        -0.0000086229
   17    1         0.0000008667
   18    1         0.0251540493
   19    1        -0.0026455507
    2    2        -0.2271164588
    3    2        -0.0659484567
    4    2        -0.0000002194
    5    2        -0.0000001485
    6    2         0.0000001303
    7    2         0.0285274224
    8    2        -0.0236257535
    9    2         0.0273862327
   10    2         0.0000002141
   11    2        -0.0000003718
   12    2        -0.0000000160
   13    2         0.0000859737
   14    2         0.0219587814
   15    2         0.0000131239
   16    2        -0.0000065669
   17    2         0.0000002836
   18    2         0.0235776144
   19    2        -0.0178062337
    3    3        -0.1734388869
    4    3        -0.0000000621
    5    3        -0.0000000417
    6    3         0.0000000761
    7    3         0.0119162691
    8    3        -0.0029984419
    9    3         0.0516645327
   10    3         0.0000003094
   11    3        -0.0000001291
   12    3        -0.0000000507
   13    3         0.0000734437
   14    3         0.0168417685
   15    3         0.0000106264
   16    3        -0.0000018104
   17    3         0.0000004567
   18    3         0.0099663377
   19    3        -0.0273426905
    4    4        -0.1585399265
    5    4         0.0000068679
    6    4         0.0000000076
    7    4         0.0000000962
    8    4         0.0000024765
    9    4        -0.0000046052
   10    4        -0.0465903469
   11    4         0.0047139362
   12    4         0.0000043414
   13    4         0.0234458626
   14    4        -0.0000909245
   15    4         0.0001995646
   16    4        -0.0000227468
   17    4         0.0164250966
   18    4         0.0000043115
   19    4         0.0000006797
    5    5        -0.1585651441
    6    5         0.0000000094
    7    5        -0.0000000019
    8    5         0.0000013392
    9    5        -0.0000025156
   10    5        -0.0047670676
   11    5        -0.0465888758
   12    5        -0.0000063923
   13    5         0.0124128810
   14    5        -0.0000478758
   15    5         0.0001059185
   16    5        -0.0000114860
   17    5        -0.0005366320
   18    5         0.0000023153
   19    5        -0.0000007950
    6    6        -0.1207427528
    7    6         0.0000000389
    8    6        -0.0000005308
    9    6         0.0000016987
   10    6        -0.0000000841
   11    6        -0.0000000502
   12    6        -0.0000000760
   13    6         0.0001921200
   14    6         0.0000036257
   15    6        -0.0225368314
   16    6        -0.0001444914
   17    6        -0.0000006068
   18    6        -0.0000020437
   19    6         0.0000002752
    7    7        -0.1310098070
    8    7         0.0067286251
    9    7        -0.0080980312
   10    7        -0.0000000760
   11    7         0.0000001054
   12    7         0.0000000068
   13    7        -0.0001084668
   14    7        -0.0287478300
   15    7        -0.0000117814
   16    7         0.0000053679
   17    7        -0.0000002565
   18    7        -0.0102032278
   19    7         0.0030176193
    8    8        -0.1196604781
    9    8         0.0026245033
   10    8         0.0000016632
   11    8         0.0000004959
   12    8         0.0000000024
   13    8         0.0000191023
   14    8         0.0063135531
   15    8         0.0000039526
   16    8        -0.0000021906
   17    8        -0.0000006805
   18    8         0.0348041583
   19    8        -0.0038574721
    9    9        -0.1186064932
   10    9        -0.0000028213
   11    9        -0.0000011764
   12    9         0.0000000264
   13    9        -0.0000364471
   14    9        -0.0087589941
   15    9        -0.0000029025
   16    9         0.0000002086
   17    9         0.0000023273
   18    9         0.0030147562
   19    9         0.0397775393
   10   10        -0.1338310454
   11   10        -0.0000342949
   12   10         0.0000021607
   13   10         0.0142821344
   14   10        -0.0000557455
   15   10         0.0001216000
   16   10        -0.0000138914
   17   10         0.0034965357
   18   10         0.0000022516
   19   10         0.0000005722
   11   11        -0.1338311072
   12   11        -0.0000040245
   13   11         0.0058000915
   14   11        -0.0000223164
   15   11         0.0000495084
   16   11        -0.0000052979
   17   11        -0.0004392746
   18   11         0.0000014270
   19   11        -0.0000006347
   12   12        -0.1127156242
   13   12        -0.0000000749
   14   12         0.0000000070
   15   12         0.0000000788
   16   12        -0.0000000315
   17   12        -0.0000022502
   18   12        -0.0000000036
   19   12        -0.0000000333
   13   13        -0.1129696063
   14   13         0.0000411010
   15   13        -0.0001302051
   16   13         0.0000447663
   17   13        -0.0113102581
   18   13        -0.0000478816
   19   13         0.0000494532
   14   14        -0.1031920888
   15   14        -0.0000076264
   16   14         0.0000066696
   17   14         0.0000435859
   18   14        -0.0112679445
   19   14         0.0106689945
   15   15        -0.0980679345
   16   15        -0.0035701194
   17   15        -0.0000960775
   18   15        -0.0000167578
   19   15         0.0000050182
   16   16        -0.0980346588
   17   16         0.0000108442
   18   16         0.0000134627
   19   16         0.0000001658
   17   17        -0.1075504337
   18   17        -0.0000023638
   19   17        -0.0000004235
   18   18        -0.1007052165
   19   18         0.0039179888
   19   19        -0.0781850170
 end_one_electron_integrals

 begin_two_electron_integrals
    1    1    1    1        0.5011634427
    1    1    2    1        0.0302310579
    1    1    3    1        0.0177128512
    1    1    4    1        0.0000001223
    1    1    5    1       -0.0000000038
    1    1    6    1       -0.0000000641
    1    1    7    1       -0.0152798145
    1    1    8    1        0.0155573634
    1    1    9    1       -0.0057850035
    1    1   10    1       -0.0000004001
    1    1   11    1        0.0000001551
    1    1   12    1       -0.0000000007
    1    1   13    1       -0.0000539800
    1    1   14    1       -0.0153310262
    1    1   15    1       -0.0000127462
    1    1   16    1        0.0000086222
    1    1   17    1       -0.0000008668
    1    1   18    1       -0.0251478547
    1    1   19    1        0.0026478613
    1    1    2    2        0.1111618465
    1    1    3    2        0.0340070069
    1    1    4    2        0.0000001202
    1    1    5    2        0.0000000751
    1    1    6    2       -0.0000000684
    1    1    7    2       -0.0150646489
    1    1    8    2        0.0125399624
    1    1    9    2       -0.0141646309
    1    1   10    2       -0.0000001196
    1    1   11    2        0.0000001964
    1    1   12    2        0.0000000086
    1    1   13    2       -0.0000463327
    1    1   14    2       -0.0118135703
    1    1   15    2       -0.0000073309
    1    1   16    2        0.0000037487
    1    1   17    2       -0.0000001839
    1    1   18    2       -0.0129662984
    1    1   19    2        0.0091999529
    1    1    3    3        0.0923692077
    1    1    4    3        0.0000000383
    1    1    5    3        0.0000000220
    1    1    6    3       -0.0000000399
    1    1    7    3       -0.0064763972
    1    1    8    3        0.0019394841
    1    1    9    3       -0.0261924827
    1    1   10    3       -0.0000001684
    1    1   11    3        0.0000000703
    1    1   12    3        0.0000000258
    1    1   13    3       -0.0000388199
    1    1   14    3       -0.0089725165
    1    1   15    3       -0.0000057823
    1    1   16    3        0.0000011822
    1    1   17    3       -0.0000002506
    1    1   18    3       -0.0056977903
    1    1   19    3        0.0139163973
    1    1    4    4        0.0896136909
    1    1    5    4       -0.0000035024
    1    1    6    4       -0.0000000025
    1    1    7    4       -0.0000000513
    1    1    8    4       -0.0000012628
    1    1    9    4        0.0000023420
    1    1   10    4        0.0236915828
    1    1   11    4       -0.0023970856
    1    1   12    4       -0.0000022154
    1    1   13    4       -0.0119617279
    1    1   14    4        0.0000463844
    1    1   15    4       -0.0001018125
    1    1   16    4        0.0000116041
    1    1   17    4       -0.0084059384
    1    1   18    4       -0.0000022031
    1    1   19    4       -0.0000003446
    1    1    5    5        0.0896265396
    1    1    6    5       -0.0000000003
    1    1    7    5        0.0000000011
    1    1    8    5       -0.0000006820
    1    1    9    5        0.0000012827
    1    1   10    5        0.0024241783
    1    1   11    5        0.0236914091
    1    1   12    5        0.0000032612
    1    1   13    5       -0.0063329314
    1    1   14    5        0.0000244259
    1    1   15    5       -0.0000540344
    1    1   16    5        0.0000058612
    1    1   17    5        0.0002747328
    1    1   18    5       -0.0000011811
    1    1   19    5        0.0000004061
    1    1    6    6        0.0719139931
    1    1    7    6       -0.0000000178
    1    1    8    6        0.0000002650
    1    1    9    6       -0.0000008490
    1    1   10    6        0.0000000441
    1    1   11    6        0.0000000297
    1    1   12    6        0.0000000381
    1    1   13    6       -0.0000961421
    1    1   14    6       -0.0000018123
    1    1   15    6        0.0112775919
    1    1   16    6        0.0000723726
    1    1   17    6        0.0000003029
    1    1   18    6        0.0000010233
    1    1   19    6       -0.0000001392
    1    1    7    7        0.0776167416
    1    1    8    7       -0.0037278733
    1    1    9    7        0.0042806542
    1    1   10    7        0.0000000416
    1    1   11    7       -0.0000000615
    1    1   12    7       -0.0000000036
    1    1   13    7        0.0000557376
    1    1   14    7        0.0148002208
    1    1   15    7        0.0000062026
    1    1   16    7       -0.0000028935
    1    1   17    7        0.0000001528
    1    1   18    7        0.0057018717
    1    1   19    7       -0.0016553731
    1    1    8    8        0.0748829570
    1    1    9    8       -0.0014711385
    1    1   10    8       -0.0000008822
    1    1   11    8       -0.0000002669
    1    1   12    8       -0.0000000017
    1    1   13    8       -0.0000099539
    1    1   14    8       -0.0035311749
    1    1   15    8       -0.0000020396
    1    1   16    8        0.0000011887
    1    1   17    8        0.0000003324
    1    1   18    8       -0.0180112221
    1    1   19    8        0.0020154514
    1    1    9    9        0.0786114712
    1    1   10    9        0.0000014648
    1    1   11    9        0.0000006153
    1    1   12    9       -0.0000000129
    1    1   13    9        0.0000182299
    1    1   14    9        0.0046287686
    1    1   15    9        0.0000012388
    1    1   16    9       -0.0000001226
    1    1   17    9       -0.0000011867
    1    1   18    9       -0.0012558118
    1    1   19    9       -0.0200524284
    1    1   10   10        0.0884567811
    1    1   11   10        0.0000177973
    1    1   12   10       -0.0000011259
    1    1   13   10       -0.0074414544
    1    1   14   10        0.0000290312
    1    1   15   10       -0.0000633444
    1    1   16   10        0.0000072323
    1    1   17   10       -0.0019740143
    1    1   18   10       -0.0000011526
    1    1   19   10       -0.0000002933
    1    1   11   11        0.0884564418
    1    1   12   11        0.0000020953
    1    1   13   11       -0.0030221600
    1    1   14   11        0.0000116174
    1    1   15   11       -0.0000257828
    1    1   16   11        0.0000027607
    1    1   17   11        0.0002500508
    1    1   18   11       -0.0000007477
    1    1   19   11        0.0000003272
    1    1   12   12        0.0796344396
    1    1   13   12        0.0000000539
    1    1   14   12       -0.0000000038
    1    1   15   12       -0.0000000362
    1    1   16   12        0.0000000149
    1    1   17   12        0.0000011537
    1    1   18   12        0.0000000026
    1    1   19   12        0.0000000169
    1    1   13   13        0.0803018139
    1    1   14   13       -0.0000196848
    1    1   15   13        0.0000617631
    1    1   16   13       -0.0000212348
    1    1   17   13        0.0057988389
    1    1   18   13        0.0000250107
    1    1   19   13       -0.0000253357
    1    1   14   14        0.0756684204
    1    1   15   14        0.0000040663
    1    1   16   14       -0.0000035492
    1    1   17   14       -0.0000223187
    1    1   18   14        0.0062415629
    1    1   19   14       -0.0054962919
    1    1   15   15        0.0732418956
    1    1   16   15        0.0017861320
    1    1   17   15        0.0000492092
    1    1   18   15        0.0000084119
    1    1   19   15       -0.0000024994
    1    1   16   16        0.0740279177
    1    1   17   16       -0.0000055439
    1    1   18   16       -0.0000067381
    1    1   19   16       -0.0000000128
    1    1   17   17        0.0800791098
    1    1   18   17        0.0000012480
    1    1   19   17        0.0000002127
    1    1   18   18        0.0809850822
    1    1   19   18       -0.0020902600
    1    1   19   19        0.0735729539
    2    1    2    1        0.0031547758
    2    1    3    1        0.0020752530
    2    1    4    1        0.0000000212
    2    1    5    1        0.0000000018
    2    1    6    1       -0.0000000064
    2    1    7    1       -0.0015993962
    2    1    8    1        0.0014497904
    2    1    9    1       -0.0009390374
    2    1   10    1       -0.0000000301
    2    1   11    1        0.0000000160
    2    1   12    1        0.0000000007
    2    1   13    1       -0.0000059814
    2    1   14    1       -0.0016625650
    2    1   15    1       -0.0000013214
    2    1   16    1        0.0000008394
    2    1   17    1       -0.0000000862
    2    1   18    1       -0.0023475962
    2    1   19    1        0.0005923021
    2    1    2    2       -0.0013647449
    2    1    3    2       -0.0009036336
    2    1    4    2       -0.0000000414
    2    1    5    2        0.0000000040
    2    1    6    2       -0.0000000000
    2    1    7    2       -0.0001297524
    2    1    8    2        0.0002693563
    2    1    9    2        0.0003879669
    2    1   10    2       -0.0000000257
    2    1   11    2        0.0000000029
    2    1   12    2       -0.0000000001
    2    1   13    2       -0.0000005649
    2    1   14    2       -0.0001936641
    2    1   15    2       -0.0000002046
    2    1   16    2        0.0000001833
    2    1   17    2       -0.0000000098
    2    1   18    2       -0.0004131312
    2    1   19    2       -0.0001360720
    2    1    3    3       -0.0007485923
    2    1    4    3        0.0000000207
    2    1    5    3       -0.0000000042
    2    1    6    3       -0.0000000002
    2    1    7    3       -0.0000240260
    2    1    8    3       -0.0005203135
    2    1    9    3        0.0004462654
    2    1   10    3       -0.0000000283
    2    1   11    3        0.0000000005
    2    1   12    3       -0.0000000002
    2    1   13    3       -0.0000001808
    2    1   14    3       -0.0000973129
    2    1   15    3       -0.0000000920
    2    1   16    3        0.0000001144
    2    1   17    3       -0.0000000158
    2    1   18    3        0.0000759774
    2    1   19    3       -0.0002282328
    2    1    4    4       -0.0007190020
    2    1    5    4       -0.0000000457
    2    1    6    4       -0.0000000092
    2    1    7    4        0.0000000169
    2    1    8    4       -0.0000000227
    2    1    9    4        0.0000000329
    2    1   10    4       -0.0005581507
    2    1   11    4        0.0000568555
    2    1   12    4        0.0000000002
    2    1   13    4       -0.0002378341
    2    1   14    4        0.0000009205
    2    1   15    4       -0.0000020158
    2    1   16    4        0.0000002268
    2    1   17    4       -0.0005826440
    2    1   18    4       -0.0000000400
    2    1   19    4        0.0000000061
    2    1    5    5       -0.0007188748
    2    1    6    5       -0.0000000242
    2    1    7    5        0.0000000006
    2    1    8    5       -0.0000000131
    2    1    9    5        0.0000000255
    2    1   10    5       -0.0000565305
    2    1   11    5       -0.0005582469
    2    1   12    5        0.0000000430
    2    1   13    5       -0.0001261053
    2    1   14    5        0.0000004837
    2    1   15    5       -0.0000010805
    2    1   16    5        0.0000001250
    2    1   17    5        0.0000205223
    2    1   18    5       -0.0000000226
    2    1   19    5        0.0000000078
    2    1    6    6       -0.0003349260
    2    1    7    6       -0.0000000008
    2    1    8    6       -0.0000000057
    2    1    9    6        0.0000000019
    2    1   10    6       -0.0000000124
    2    1   11    6       -0.0000000223
    2    1   12    6       -0.0000000001
    2    1   13    6       -0.0000001480
    2    1   14    6       -0.0000000116
    2    1   15    6        0.0000841023
    2    1   16    6        0.0005913971
    2    1   17    6       -0.0000000002
    2    1   18    6       -0.0000000340
    2    1   19    6       -0.0000000010
    2    1    7    7       -0.0001843211
    2    1    8    7        0.0000126778
    2    1    9    7       -0.0000414723
    2    1   10    7        0.0000000088
    2    1   11    7        0.0000000082
    2    1   12    7       -0.0000000000
    2    1   13    7       -0.0000005366
    2    1   14    7       -0.0001251253
    2    1   15    7       -0.0000001134
    2    1   16    7        0.0000000699
    2    1   17    7        0.0000000153
    2    1   18    7       -0.0001833722
    2    1   19    7        0.0001195979
    2    1    8    8        0.0002774463
    2    1    9    8        0.0002913068
    2    1   10    8       -0.0000000074
    2    1   11    8        0.0000000028
    2    1   12    8       -0.0000000007
    2    1   13    8       -0.0000004146
    2    1   14    8       -0.0001420033
    2    1   15    8       -0.0000001248
    2    1   16    8        0.0000001490
    2    1   17    8        0.0000000566
    2    1   18    8       -0.0004665040
    2    1   19    8       -0.0000934122
    2    1    9    9       -0.0003243516
    2    1   10    9       -0.0000000042
    2    1   11    9        0.0000000143
    2    1   12    9        0.0000000001
    2    1   13    9        0.0000000675
    2    1   14    9        0.0000165116
    2    1   15    9        0.0000000110
    2    1   16    9       -0.0000000410
    2    1   17    9       -0.0000000215
    2    1   18    9       -0.0005939023
    2    1   19    9        0.0002783159
    2    1   10   10       -0.0005256723
    2    1   11   10        0.0000002566
    2    1   12   10       -0.0000000254
    2    1   13   10       -0.0000716465
    2    1   14   10        0.0000002851
    2    1   15   10       -0.0000006215
    2    1   16   10        0.0000000770
    2    1   17   10        0.0001662127
    2    1   18   10       -0.0000000056
    2    1   19   10        0.0000000139
    2    1   11   11       -0.0005259787
    2    1   12   11        0.0000000266
    2    1   13   11       -0.0000290202
    2    1   14   11        0.0000001185
    2    1   15   11       -0.0000002586
    2    1   16   11        0.0000000368
    2    1   17   11       -0.0000232442
    2    1   18   11       -0.0000000112
    2    1   19   11       -0.0000000052
    2    1   12   12       -0.0005367918
    2    1   13   12       -0.0000000017
    2    1   14   12       -0.0000000000
    2    1   15   12        0.0000000011
    2    1   16   12       -0.0000000002
    2    1   17   12        0.0000000322
    2    1   18   12        0.0000000007
    2    1   19   12       -0.0000000002
    2    1   13   13       -0.0002054236
    2    1   14   13       -0.0000002762
    2    1   15   13       -0.0000004124
    2    1   16   13        0.0000001184
    2    1   17   13        0.0001076542
    2    1   18   13       -0.0000000916
    2    1   19   13        0.0000003483
    2    1   14   14       -0.0002756370
    2    1   15   14       -0.0000002109
    2    1   16   14        0.0000001585
    2    1   17   14       -0.0000004131
    2    1   18   14        0.0000372317
    2    1   19   14        0.0000732489
    2    1   15   15       -0.0001525124
    2    1   16   15        0.0000299329
    2    1   17   15        0.0000009047
    2    1   18   15        0.0000001403
    2    1   19   15        0.0000001451
    2    1   16   16        0.0001752258
    2    1   17   16       -0.0000000966
    2    1   18   16       -0.0000001992
    2    1   19   16       -0.0000000933
    2    1   17   17        0.0004144029
    2    1   18   17        0.0000000241
    2    1   19   17        0.0000000022
    2    1   18   18        0.0005931138
    2    1   19   18        0.0001889092
    2    1   19   19       -0.0002145979
    3    1    3    1        0.0014324563
    3    1    4    1        0.0000000053
    3    1    5    1        0.0000000020
    3    1    6    1       -0.0000000040
    3    1    7    1       -0.0010465469
    3    1    8    1        0.0008860892
    3    1    9    1       -0.0007213899
    3    1   10    1       -0.0000000275
    3    1   11    1        0.0000000117
    3    1   12    1        0.0000000007
    3    1   13    1       -0.0000039993
    3    1   14    1       -0.0011018847
    3    1   15    1       -0.0000008529
    3    1   16    1        0.0000005234
    3    1   17    1       -0.0000000456
    3    1   18    1       -0.0014248219
    3    1   19    1        0.0004886478
    3    1    2    2       -0.0018572840
    3    1    3    2       -0.0013184600
    3    1    4    2        0.0000000491
    3    1    5    2       -0.0000000128
    3    1    6    2        0.0000000003
    3    1    7    2        0.0000411988
    3    1    8    2        0.0000995333
    3    1    9    2        0.0006622227
    3    1   10    2        0.0000000081
    3    1   11    2       -0.0000000060
    3    1   12    2       -0.0000000004
    3    1   13    2        0.0000001510
    3    1   14    2       -0.0000107319
    3    1   15    2       -0.0000000791
    3    1   16    2        0.0000001213
    3    1   17    2       -0.0000000075
    3    1   18    2       -0.0001829589
    3    1   19    2       -0.0003453567
    3    1    3    3       -0.0011131680
    3    1    4    3       -0.0000000206
    3    1    5    3        0.0000000063
    3    1    6    3        0.0000000002
    3    1    7    3        0.0001284684
    3    1    8    3       -0.0006211944
    3    1    9    3        0.0007080860
    3    1   10    3        0.0000000256
    3    1   11    3       -0.0000000150
    3    1   12    3       -0.0000000005
    3    1   13    3        0.0000004432
    3    1   14    3        0.0000534516
    3    1   15    3        0.0000000009
    3    1   16    3        0.0000000761
    3    1   17    3        0.0000000085
    3    1   18    3        0.0002251307
    3    1   19    3       -0.0004344176
    3    1    4    4       -0.0008583205
    3    1    5    4       -0.0000000252
    3    1    6    4        0.0000000049
    3    1    7    4       -0.0000000148
    3    1    8    4       -0.0000000193
    3    1    9    4        0.0000000437
    3    1   10    4       -0.0007279184
    3    1   11    4        0.0000740511
    3    1   12    4       -0.0000000802
    3    1   13    4       -0.0001628412
    3    1   14    4        0.0000006171
    3    1   15    4       -0.0000013728
    3    1   16    4        0.0000001514
    3    1   17    4       -0.0005061274
    3    1   18    4       -0.0000000276
    3    1   19    4       -0.0000000053
    3    1    5    5       -0.0008582938
    3    1    6    5        0.0000000284
    3    1    7    5        0.0000000059
    3    1    8    5       -0.0000000069
    3    1    9    5        0.0000000116
    3    1   10    5       -0.0000738703
    3    1   11    5       -0.0007280405
    3    1   12    5        0.0000000492
    3    1   13    5       -0.0000863915
    3    1   14    5        0.0000003318
    3    1   15    5       -0.0000007220
    3    1   16    5        0.0000000770
    3    1   17    5        0.0000179365
    3    1   18    5       -0.0000000162
    3    1   19    5        0.0000000083
    3    1    6    6       -0.0003350362
    3    1    7    6       -0.0000000010
    3    1    8    6       -0.0000000053
    3    1    9    6        0.0000000017
    3    1   10    6        0.0000000072
    3    1   11    6        0.0000000280
    3    1   12    6       -0.0000000001
    3    1   13    6       -0.0000001232
    3    1   14    6       -0.0000000112
    3    1   15    6        0.0000802237
    3    1   16    6        0.0005750881
    3    1   17    6       -0.0000000089
    3    1   18    6       -0.0000000337
    3    1   19    6       -0.0000000007
    3    1    7    7       -0.0002771443
    3    1    8    7        0.0000699683
    3    1    9    7       -0.0001458000
    3    1   10    7       -0.0000000123
    3    1   11    7        0.0000000135
    3    1   12    7        0.0000000001
    3    1   13    7       -0.0000008882
    3    1   14    7       -0.0002369499
    3    1   15    7       -0.0000001810
    3    1   16    7        0.0000001077
    3    1   17    7        0.0000000114
    3    1   18    7       -0.0002752279
    3    1   19    7        0.0001969925
    3    1    8    8        0.0001948683
    3    1    9    8        0.0003455277
    3    1   10    8       -0.0000000063
    3    1   11    8        0.0000000108
    3    1   12    8       -0.0000000007
    3    1   13    8       -0.0000002106
    3    1   14    8       -0.0000785309
    3    1   15    8       -0.0000000713
    3    1   16    8        0.0000001133
    3    1   17    8       -0.0000000412
    3    1   18    8       -0.0003318221
    3    1   19    8       -0.0001397862
    3    1    9    9       -0.0005291329
    3    1   10    9        0.0000000142
    3    1   11    9       -0.0000000079
    3    1   12    9        0.0000000004
    3    1   13    9       -0.0000004010
    3    1   14    9       -0.0000971857
    3    1   15    9       -0.0000000450
    3    1   16    9       -0.0000000241
    3    1   17    9       -0.0000000243
    3    1   18    9       -0.0006556821
    3    1   19    9        0.0004461053
    3    1   10   10       -0.0007401687
    3    1   11   10        0.0000000154
    3    1   12   10        0.0000000287
    3    1   13   10        0.0000327628
    3    1   14   10       -0.0000001508
    3    1   15   10        0.0000002788
    3    1   16   10       -0.0000000327
    3    1   17   10        0.0002166332
    3    1   18   10        0.0000000126
    3    1   19   10       -0.0000000013
    3    1   11   11       -0.0007403237
    3    1   12   11       -0.0000000156
    3    1   13   11        0.0000133758
    3    1   14   11       -0.0000000363
    3    1   15   11        0.0000001315
    3    1   16   11       -0.0000000242
    3    1   17   11       -0.0000299230
    3    1   18   11       -0.0000000036
    3    1   19   11       -0.0000000030
    3    1   12   12       -0.0005583894
    3    1   13   12        0.0000000238
    3    1   14   12       -0.0000000000
    3    1   15   12        0.0000000014
    3    1   16   12       -0.0000000002
    3    1   17   12        0.0000000019
    3    1   18   12        0.0000000008
    3    1   19   12       -0.0000000004
    3    1   13   13       -0.0002813825
    3    1   14   13       -0.0000004326
    3    1   15   13       -0.0000010285
    3    1   16   13        0.0000001684
    3    1   17   13        0.0000637359
    3    1   18   13       -0.0000004663
    3    1   19   13        0.0000007624
    3    1   14   14       -0.0003915895
    3    1   15   14       -0.0000002807
    3    1   16   14        0.0000002001
    3    1   17   14       -0.0000002249
    3    1   18   14       -0.0000648671
    3    1   19   14        0.0001707041
    3    1   15   15       -0.0001592758
    3    1   16   15        0.0000304969
    3    1   17   15        0.0000005278
    3    1   18   15        0.0000000461
    3    1   19   15        0.0000001900
    3    1   16   16        0.0001614737
    3    1   17   16       -0.0000000622
    3    1   18   16       -0.0000001337
    3    1   19   16       -0.0000001060
    3    1   17   17        0.0003454170
    3    1   18   17        0.0000000175
    3    1   19   17        0.0000000046
    3    1   18   18        0.0003874283
    3    1   19   18        0.0002443987
    3    1   19   19       -0.0003626453
    4    1    4    1        0.0006614693
    4    1    5    1       -0.0000001362
    4    1    6    1        0.0000000022
    4    1    7    1       -0.0000000116
    4    1    8    1       -0.0000000408
    4    1    9    1        0.0000000929
    4    1   10    1        0.0007944681
    4    1   11    1       -0.0000803801
    4    1   12    1       -0.0000000893
    4    1   13    1       -0.0004779194
    4    1   14    1        0.0000018440
    4    1   15    1       -0.0000040619
    4    1   16    1        0.0000004628
    4    1   17    1       -0.0003870997
    4    1   18    1       -0.0000000982
    4    1   19    1       -0.0000000118
    4    1    2    2       -0.0000028633
    4    1    3    2        0.0000046575
    4    1    4    2       -0.0014907906
    4    1    5    2        0.0000002150
    4    1    6    2       -0.0000013767
    4    1    7    2        0.0000022962
    4    1    8    2        0.0000014259
    4    1    9    2       -0.0000006990
    4    1   10    2       -0.0011090452
    4    1   11    2        0.0001124756
    4    1   12    2        0.0000000762
    4    1   13    2        0.0003390058
    4    1   14    2       -0.0000007551
    4    1   15    2        0.0000024979
    4    1   16    2       -0.0000002176
    4    1   17    2        0.0000999715
    4    1   18    2       -0.0000009067
    4    1   19    2       -0.0000006461
    4    1    3    3       -0.0000091365
    4    1    4    3       -0.0002207132
    4    1    5    3        0.0000000267
    4    1    6    3        0.0000019658
    4    1    7    3       -0.0000039080
    4    1    8    3       -0.0000005055
    4    1    9    3       -0.0000026679
    4    1   10    3       -0.0009574570
    4    1   11    3        0.0000973120
    4    1   12    3       -0.0000000017
    4    1   13    3        0.0000292110
    4    1   14    3        0.0000008521
    4    1   15    3        0.0000006927
    4    1   16    3        0.0000004888
    4    1   17    3       -0.0001487140
    4    1   18    3        0.0000014993
    4    1   19    3        0.0000017062
    4    1    4    4       -0.0000022328
    4    1    5    4        0.0000005317
    4    1    6    4       -0.0002234661
    4    1    7    4        0.0005687156
    4    1    8    4       -0.0001589415
    4    1    9    4       -0.0000770487
    4    1   10    4        0.0000033336
    4    1   11    4       -0.0000011705
    4    1   12    4        0.0009947839
    4    1   13    4        0.0000040436
    4    1   14    4        0.0003995041
    4    1   15    4       -0.0001249736
    4    1   16    4        0.0000710793
    4    1   17    4       -0.0000017546
    4    1   18    4        0.0002739944
    4    1   19    4        0.0001096592
    4    1    5    5       -0.0000027402
    4    1    6    5       -0.0004430197
    4    1    7    5       -0.0000001662
    4    1    8    5        0.0000000386
    4    1    9    5        0.0000000353
    4    1   10    5       -0.0000003911
    4    1   11    5        0.0000043133
    4    1   12    5       -0.0005018954
    4    1   13    5        0.0000030106
    4    1   14    5       -0.0000000358
    4    1   15    5       -0.0002485120
    4    1   16    5        0.0001415167
    4    1   17    5        0.0000004857
    4    1   18    5       -0.0000001008
    4    1   19    5       -0.0000000192
    4    1    6    6       -0.0000141810
    4    1    7    6        0.0000008535
    4    1    8    6        0.0000002419
    4    1    9    6       -0.0000012795
    4    1   10    6       -0.0003232607
    4    1   11    6       -0.0005068302
    4    1   12    6        0.0000000077
    4    1   13    6       -0.0000310481
    4    1   14    6        0.0000013950
    4    1   15    6       -0.0000042951
    4    1   16    6       -0.0000001847
    4    1   17    6        0.0001392711
    4    1   18    6       -0.0000007628
    4    1   19    6       -0.0000003053
    4    1    7    7       -0.0000083620
    4    1    8    7        0.0000005110
    4    1    9    7        0.0000023599
    4    1   10    7        0.0004967067
    4    1   11    7       -0.0000497857
    4    1   12    7       -0.0000001656
    4    1   13    7       -0.0008639351
    4    1   14    7        0.0000090057
    4    1   15    7       -0.0000052397
    4    1   16    7        0.0000008236
    4    1   17    7       -0.0000823988
    4    1   18    7        0.0000011550
    4    1   19    7       -0.0000000274
    4    1    8    8       -0.0000109414
    4    1    9    8        0.0000006700
    4    1   10    8       -0.0000681945
    4    1   11    8        0.0000066584
    4    1   12    8        0.0000000265
    4    1   13    8        0.0003028535
    4    1   14    8       -0.0000002499
    4    1   15    8        0.0000019333
    4    1   16    8       -0.0000026364
    4    1   17    8        0.0008443101
    4    1   18    8       -0.0000047487
    4    1   19    8        0.0000005406
    4    1    9    9       -0.0000120818
    4    1   10    9        0.0000434477
    4    1   11    9       -0.0000044157
    4    1   12    9        0.0000000636
    4    1   13    9        0.0000361351
    4    1   14    9        0.0000041491
    4    1   15    9       -0.0000010168
    4    1   16    9        0.0000005860
    4    1   17    9        0.0001306898
    4    1   18    9       -0.0000007123
    4    1   19    9       -0.0000013149
    4    1   10   10       -0.0000056100
    4    1   11   10        0.0000012332
    4    1   12   10        0.0000702523
    4    1   13   10        0.0000018746
    4    1   14   10        0.0005520853
    4    1   15   10       -0.0002239445
    4    1   16   10        0.0001379487
    4    1   17   10        0.0000014995
    4    1   18   10        0.0002040088
    4    1   19   10        0.0000245128
    4    1   11   11       -0.0000075630
    4    1   12   11       -0.0000445272
    4    1   13   11        0.0000022284
    4    1   14   11       -0.0000559169
    4    1   15   11       -0.0003508919
    4    1   16   11        0.0002162454
    4    1   17   11       -0.0000006076
    4    1   18   11       -0.0000205366
    4    1   19   11       -0.0000024355
    4    1   12   12       -0.0000002518
    4    1   13   12       -0.0002817976
    4    1   14   12        0.0000010558
    4    1   15   12       -0.0000024515
    4    1   16   12        0.0000002776
    4    1   17   12        0.0000755322
    4    1   18   12       -0.0000001107
    4    1   19   12       -0.0000000286
    4    1   13   13       -0.0000096079
    4    1   14   13       -0.0002150699
    4    1   15   13        0.0002607567
    4    1   16   13        0.0000414145
    4    1   17   13       -0.0000010008
    4    1   18   13       -0.0003141766
    4    1   19   13       -0.0000730609
    4    1   14   14       -0.0000105946
    4    1   15   14       -0.0000032155
    4    1   16   14        0.0000002898
    4    1   17   14       -0.0002126217
    4    1   18   14        0.0000013880
    4    1   19   14       -0.0000038774
    4    1   15   15       -0.0000104034
    4    1   16   15       -0.0000011023
    4    1   17   15        0.0000885545
    4    1   18   15       -0.0000025470
    4    1   19   15        0.0000008416
    4    1   16   16       -0.0000147729
    4    1   17   16        0.0000899204
    4    1   18   16        0.0000006608
    4    1   19   16       -0.0000007255
    4    1   17   17       -0.0000050895
    4    1   18   17       -0.0003734610
    4    1   19   17       -0.0000628278
    4    1   18   18       -0.0000122444
    4    1   19   18        0.0000004944
    4    1   19   19       -0.0000136028
    5    1    5    1        0.0006619488
    5    1    6    1        0.0000000084
    5    1    7    1        0.0000000017
    5    1    8    1       -0.0000000277
    5    1    9    1        0.0000000495
    5    1   10    1        0.0000813679
    5    1   11    1        0.0007945785
    5    1   12    1        0.0000001300
    5    1   13    1       -0.0002530559
    5    1   14    1        0.0000009765
    5    1   15    1       -0.0000021492
    5    1   16    1        0.0000002359
    5    1   17    1        0.0000128442
    5    1   18    1       -0.0000000467
    5    1   19    1        0.0000000167
    5    1    2    2        0.0000006777
    5    1    3    2       -0.0000011090
    5    1    4    2        0.0000001618
    5    1    5    2       -0.0014914934
    5    1    6    2       -0.0000057891
    5    1    7    2       -0.0000005385
    5    1    8    2       -0.0000003134
    5    1    9    2        0.0000001132
    5    1   10    2       -0.0001131785
    5    1   11    2       -0.0011092993
    5    1   12    2       -0.0000001011
    5    1   13    2        0.0001794239
    5    1   14    2       -0.0000008255
    5    1   15    2       -0.0000001000
    5    1   16    2        0.0000003072
    5    1   17    2       -0.0000027672
    5    1   18    2        0.0000002664
    5    1   19    2        0.0000001459
    5    1    3    3        0.0000021776
    5    1    4    3        0.0000000235
    5    1    5    3       -0.0002209490
    5    1    6    3        0.0000082689
    5    1    7    3        0.0000009343
    5    1    8    3        0.0000001238
    5    1    9    3        0.0000006287
    5    1   10    3       -0.0000973274
    5    1   11    3       -0.0009576598
    5    1   12    3       -0.0000000100
    5    1   13    3        0.0000153530
    5    1   14    3       -0.0000002936
    5    1   15    3        0.0000019860
    5    1   16    3        0.0000021794
    5    1   17    3        0.0000054849
    5    1   18    3       -0.0000003524
    5    1   19    3       -0.0000004051
    5    1    4    4        0.0000017119
    5    1    5    4        0.0000022127
    5    1    6    4       -0.0004430126
    5    1    7    4       -0.0000002295
    5    1    8    4        0.0000000384
    5    1    9    4        0.0000000305
    5    1   10    4       -0.0000029761
    5    1   11    4       -0.0000031500
    5    1   12    4       -0.0005020903
    5    1   13    4       -0.0000000423
    5    1   14    4       -0.0000000158
    5    1   15    4       -0.0002484551
    5    1   16    4        0.0001413749
    5    1   17    4        0.0000012553
    5    1   18    4       -0.0000001073
    5    1   19    4       -0.0000000188
    5    1    5    5       -0.0000005298
    5    1    6    5        0.0002236476
    5    1    7    5        0.0005690771
    5    1    8    5       -0.0001592379
    5    1    9    5       -0.0000770785
    5    1   10    5       -0.0000033292
    5    1   11    5        0.0000011550
    5    1   12    5       -0.0009949899
    5    1   13    5       -0.0000012923
    5    1   14    5        0.0003998515
    5    1   15    5        0.0001257427
    5    1   16    5       -0.0000716667
    5    1   17    5        0.0000017360
    5    1   18    5        0.0002741907
    5    1   19    5        0.0001098378
    5    1    6    6        0.0000033770
    5    1    7    6        0.0000035896
    5    1    8    6        0.0000010229
    5    1    9    6       -0.0000054032
    5    1   10    6       -0.0005065949
    5    1   11    6        0.0003239580
    5    1   12    6       -0.0000000134
    5    1   13    6       -0.0000221163
    5    1   14    6        0.0000054532
    5    1   15    6        0.0000007608
    5    1   16    6        0.0000000815
    5    1   17    6        0.0003031196
    5    1   18    6       -0.0000031832
    5    1   19    6       -0.0000012888
    5    1    7    7        0.0000019937
    5    1    8    7       -0.0000001898
    5    1    9    7       -0.0000004328
    5    1   10    7        0.0000520120
    5    1   11    7        0.0004964674
    5    1   12    7        0.0000002417
    5    1   13    7       -0.0004573650
    5    1   14    7        0.0000004105
    5    1   15    7        0.0000050369
    5    1   16    7        0.0000003396
    5    1   17    7        0.0000008190
    5    1   18    7       -0.0000003976
    5    1   19    7        0.0000000327
    5    1    8    8        0.0000026533
    5    1    9    8       -0.0000002026
    5    1   10    8       -0.0000071046
    5    1   11    8       -0.0000682360
    5    1   12    8       -0.0000000355
    5    1   13    8        0.0001605835
    5    1   14    8       -0.0000008540
    5    1   15    8       -0.0000013598
    5    1   16    8       -0.0000100534
    5    1   17    8       -0.0000298848
    5    1   18    8        0.0000011496
    5    1   19    8       -0.0000001431
    5    1    9    9        0.0000028686
    5    1   10    9        0.0000044338
    5    1   11    9        0.0000434289
    5    1   12    9       -0.0000000868
    5    1   13    9        0.0000191963
    5    1   14    9       -0.0000010605
    5    1   15    9       -0.0000052171
    5    1   16    9        0.0000026062
    5    1   17    9       -0.0000046669
    5    1   18    9        0.0000002215
    5    1   19    9        0.0000003210
    5    1   10   10        0.0000056463
    5    1   11   10        0.0000051683
    5    1   12   10       -0.0000458969
    5    1   13   10        0.0000066755
    5    1   14   10        0.0000563909
    5    1   15   10       -0.0003502943
    5    1   16   10        0.0002162266
    5    1   17   10       -0.0000012882
    5    1   18   10        0.0000210813
    5    1   19   10        0.0000025983
    5    1   11   11       -0.0000025329
    5    1   12   11       -0.0000703219
    5    1   13   11        0.0000017062
    5    1   14   11        0.0005524152
    5    1   15   11        0.0002243225
    5    1   16   11       -0.0001384300
    5    1   17   11       -0.0000014269
    5    1   18   11        0.0002041242
    5    1   19   11        0.0000245620
    5    1   12   12       -0.0000001449
    5    1   13   12        0.0003974798
    5    1   14   12       -0.0000014761
    5    1   15   12        0.0000034716
    5    1   16   12       -0.0000003662
    5    1   17   12       -0.0000335586
    5    1   18   12        0.0000001584
    5    1   19   12        0.0000000098
    5    1   13   13        0.0000021654
    5    1   14   13       -0.0001138665
    5    1   15   13        0.0001848674
    5    1   16   13        0.0000292581
    5    1   17   13       -0.0000020976
    5    1   18   13       -0.0001664039
    5    1   19   13       -0.0000387276
    5    1   14   14        0.0000038008
    5    1   15   14       -0.0000033044
    5    1   16   14        0.0000010118
    5    1   17   14        0.0000071447
    5    1   18   14        0.0000005686
    5    1   19   14        0.0000011434
    5    1   15   15        0.0000066670
    5    1   16   15        0.0000003505
    5    1   17   15        0.0001911782
    5    1   18   15       -0.0000010869
    5    1   19   15        0.0000058566
    5    1   16   16        0.0000034526
    5    1   17   16        0.0001951815
    5    1   18   16        0.0000016420
    5    1   19   16       -0.0000033039
    5    1   17   17        0.0000034769
    5    1   18   17        0.0000127688
    5    1   19   17        0.0000020962
    5    1   18   18        0.0000028267
    5    1   19   18       -0.0000001184
    5    1   19   19        0.0000032448
    6    1    6    1        0.0000137576
    6    1    7    1        0.0000000032
    6    1    8    1       -0.0000000028
    6    1    9    1        0.0000000001
    6    1   10    1        0.0000000033
    6    1   11    1        0.0000000087
    6    1   12    1        0.0000000001
    6    1   13    1       -0.0000001609
    6    1   14    1        0.0000000004
    6    1   15    1        0.0000183525
    6    1   16    1        0.0000001860
    6    1   17    1       -0.0000000006
    6    1   18    1        0.0000000069
    6    1   19    1       -0.0000000011
    6    1    2    2       -0.0000000007
    6    1    3    2       -0.0000000008
    6    1    4    2       -0.0000000221
    6    1    5    2       -0.0000000909
    6    1    6    2       -0.0001029853
    6    1    7    2        0.0000000002
    6    1    8    2       -0.0000000025
    6    1    9    2        0.0000000062
    6    1   10    2       -0.0000000118
    6    1   11    2       -0.0000000306
    6    1   12    2       -0.0000000003
    6    1   13    2        0.0000005982
    6    1   14    2        0.0000000111
    6    1   15    2       -0.0000654539
    6    1   16    2        0.0000359265
    6    1   17    2       -0.0000000013
    6    1   18    2       -0.0000000077
    6    1   19    2        0.0000000000
    6    1    3    3       -0.0000000008
    6    1    4    3        0.0000000099
    6    1    5    3        0.0000000431
    6    1    6    3        0.0000337158
    6    1    7    3        0.0000000001
    6    1    8    3       -0.0000000005
    6    1    9    3        0.0000000003
    6    1   10    3       -0.0000000165
    6    1   11    3       -0.0000000460
    6    1   12    3        0.0000000000
    6    1   13    3       -0.0000000742
    6    1   14    3       -0.0000000014
    6    1   15    3        0.0000117271
    6    1   16    3        0.0000360267
    6    1   17    3       -0.0000000041
    6    1   18    3       -0.0000000011
    6    1   19    3       -0.0000000008
    6    1    4    4       -0.0000365690
    6    1    5    4       -0.0000724907
    6    1    6    4       -0.0000000577
    6    1    7    4        0.0000000074
    6    1    8    4        0.0000000028
    6    1    9    4       -0.0000000087
    6    1   10    4       -0.0000650576
    6    1   11    4       -0.0001019154
    6    1   12    4       -0.0000000238
    6    1   13    4        0.0000089741
    6    1   14    4       -0.0000000317
    6    1   15    4        0.0000000542
    6    1   16    4        0.0000000056
    6    1   17    4        0.0000204467
    6    1   18    4        0.0000000014
    6    1   19    4        0.0000000037
    6    1    5    5        0.0000365956
    6    1    6    5        0.0000000136
    6    1    7    5        0.0000000304
    6    1    8    5        0.0000000075
    6    1    9    5       -0.0000000304
    6    1   10    5       -0.0001018717
    6    1   11    5        0.0000651249
    6    1   12    5       -0.0000000929
    6    1   13    5        0.0000063623
    6    1   14    5       -0.0000000109
    6    1   15    5        0.0000000581
    6    1   16    5       -0.0000000089
    6    1   17    5        0.0000443870
    6    1   18    5        0.0000000005
    6    1   19    5        0.0000000166
    6    1    6    6       -0.0000000001
    6    1    7    6        0.0000604434
    6    1    8    6       -0.0000146738
    6    1    9    6       -0.0000780059
    6    1   10    6       -0.0000000545
    6    1   11    6        0.0000000191
    6    1   12    6       -0.0000000001
    6    1   13    6        0.0000002569
    6    1   14    6        0.0000727161
    6    1   15    6        0.0000000137
    6    1   16    6        0.0000000043
    6    1   17    6        0.0000000389
    6    1   18    6        0.0000007824
    6    1   19    6        0.0000387531
    6    1    7    7       -0.0000000008
    6    1    8    7        0.0000000032
    6    1    9    7       -0.0000000085
    6    1   10    7        0.0000000075
    6    1   11    7        0.0000000201
    6    1   12    7        0.0000000004
    6    1   13    7       -0.0000010208
    6    1   14    7       -0.0000000183
    6    1   15    7        0.0001114970
    6    1   16    7       -0.0000067156
    6    1   17    7        0.0000000030
    6    1   18    7        0.0000000096
    6    1   19    7       -0.0000000014
    6    1    8    8       -0.0000000004
    6    1    9    8        0.0000000004
    6    1   10    8        0.0000000093
    6    1   11    8        0.0000000149
    6    1   12    8       -0.0000000001
    6    1   13    8        0.0000002888
    6    1   14    8        0.0000000079
    6    1   15    8       -0.0000417847
    6    1   16    8       -0.0000871954
    6    1   17    8        0.0000000165
    6    1   18    8        0.0000000034
    6    1   19    8        0.0000000028
    6    1    9    9        0.0000000094
    6    1   10    9       -0.0000000244
    6    1   11    9       -0.0000000479
    6    1   12    9       -0.0000000002
    6    1   13    9        0.0000005582
    6    1   14    9        0.0000000058
    6    1   15    9       -0.0000637183
    6    1   16    9        0.0000055959
    6    1   17    9        0.0000000052
    6    1   18    9       -0.0000000085
    6    1   19    9       -0.0000000053
    6    1   10   10       -0.0000586684
    6    1   11   10       -0.0000738928
    6    1   12   10        0.0000000071
    6    1   13   10        0.0000495334
    6    1   14   10       -0.0000001818
    6    1   15   10        0.0000003913
    6    1   16   10       -0.0000000230
    6    1   17   10        0.0000113669
    6    1   18   10        0.0000000074
    6    1   19   10        0.0000000066
    6    1   11   11        0.0000584682
    6    1   12   11        0.0000000547
    6    1   13   11        0.0000281022
    6    1   14   11       -0.0000000817
    6    1   15   11        0.0000002506
    6    1   16   11       -0.0000000358
    6    1   17   11        0.0000189927
    6    1   18   11       -0.0000000001
    6    1   19   11        0.0000000231
    6    1   12   12       -0.0000000001
    6    1   13   12        0.0000000242
    6    1   14   12        0.0000000001
    6    1   15   12        0.0000000001
    6    1   16   12       -0.0000000000
    6    1   17   12       -0.0000000003
    6    1   18   12        0.0000000001
    6    1   19   12        0.0000000003
    6    1   13   13       -0.0000150237
    6    1   14   13       -0.0000004181
    6    1   15   13        0.0000001070
    6    1   16   13        0.0000000043
    6    1   17   13       -0.0000236281
    6    1   18   13       -0.0000002963
    6    1   19   13       -0.0000007105
    6    1   14   14       -0.0000000189
    6    1   15   14        0.0000563548
    6    1   16   14       -0.0000035146
    6    1   17   14        0.0000000886
    6    1   18   14       -0.0000000014
    6    1   19   14       -0.0000000135
    6    1   15   15        0.0000000124
    6    1   16   15       -0.0000000132
    6    1   17   15       -0.0000001821
    6    1   18   15        0.0000401593
    6    1   19   15        0.0000790136
    6    1   16   16        0.0000000376
    6    1   17   16        0.0000000591
    6    1   18   16        0.0000593412
    6    1   19   16       -0.0000295109
    6    1   17   17       -0.0000093408
    6    1   18   17       -0.0000000057
    6    1   19   17        0.0000000025
    6    1   18   18       -0.0000000023
    6    1   19   18        0.0000000086
    6    1   19   19       -0.0000000021
    7    1    7    1        0.0008237793
    7    1    8    1       -0.0007405466
    7    1    9    1        0.0004686447
    7    1   10    1        0.0000000156
    7    1   11    1       -0.0000000050
    7    1   12    1       -0.0000000004
    7    1   13    1        0.0000030772
    7    1   14    1        0.0008569170
    7    1   15    1        0.0000006803
    7    1   16    1       -0.0000004326
    7    1   17    1        0.0000000453
    7    1   18    1        0.0012014809
    7    1   19    1       -0.0002927775
    7    1    2    2        0.0004047434
    7    1    3    2        0.0002257366
    7    1    4    2        0.0000000545
    7    1    5    2       -0.0000000133
    7    1    6    2        0.0000000002
    7    1    7    2       -0.0000061129
    7    1    8    2       -0.0001592302
    7    1    9    2       -0.0000723903
    7    1   10    2        0.0000000204
    7    1   11    2       -0.0000000068
    7    1   12    2       -0.0000000001
    7    1   13    2        0.0000001003
    7    1   14    2        0.0000391165
    7    1   15    2        0.0000000666
    7    1   16    2       -0.0000000563
    7    1   17    2        0.0000000043
    7    1   18    2        0.0001988308
    7    1   19    2        0.0000007390
    7    1    3    3        0.0002018821
    7    1    4    3       -0.0000000284
    7    1    5    3        0.0000000067
    7    1    6    3       -0.0000000003
    7    1    7    3        0.0000634194
    7    1    8    3        0.0001907905
    7    1    9    3       -0.0001111355
    7    1   10    3        0.0000000303
    7    1   11    3       -0.0000000085
    7    1   12    3       -0.0000000000
    7    1   13    3        0.0000000807
    7    1   14    3        0.0000332632
    7    1   15    3        0.0000000227
    7    1   16    3       -0.0000000252
    7    1   17    3        0.0000000171
    7    1   18    3       -0.0000234959
    7    1   19    3        0.0000521427
    7    1    4    4        0.0003098461
    7    1    5    4       -0.0000000101
    7    1    6    4        0.0000000080
    7    1    7    4       -0.0000000234
    7    1    8    4       -0.0000000014
    7    1    9    4        0.0000000163
    7    1   10    4        0.0002328644
    7    1   11    4       -0.0000236482
    7    1   12    4       -0.0000000580
    7    1   13    4        0.0000091157
    7    1   14    4       -0.0000000385
    7    1   15    4        0.0000000743
    7    1   16    4       -0.0000000070
    7    1   17    4        0.0002490046
    7    1   18    4       -0.0000000001
    7    1   19    4       -0.0000000114
    7    1    5    5        0.0003098094
    7    1    6    5        0.0000000333
    7    1    7    5        0.0000000055
    7    1    8    5        0.0000000005
    7    1    9    5       -0.0000000048
    7    1   10    5        0.0000237579
    7    1   11    5        0.0002328792
    7    1   12    5        0.0000000139
    7    1   13    5        0.0000049304
    7    1   14    5       -0.0000000166
    7    1   15    5        0.0000000564
    7    1   16    5       -0.0000000125
    7    1   17    5       -0.0000089991
    7    1   18    5        0.0000000014
    7    1   19    5        0.0000000021
    7    1    6    6        0.0001774572
    7    1    7    6       -0.0000000002
    7    1    8    6        0.0000000047
    7    1    9    6       -0.0000000065
    7    1   10    6        0.0000000117
    7    1   11    6        0.0000000328
    7    1   12    6        0.0000000003
    7    1   13    6       -0.0000006237
    7    1   14    6       -0.0000000084
    7    1   15    6        0.0000444517
    7    1   16    6       -0.0002549974
    7    1   17    6       -0.0000000000
    7    1   18    6        0.0000000214
    7    1   19    6       -0.0000000008
    7    1    7    7        0.0000734251
    7    1    8    7       -0.0000375719
    7    1    9    7       -0.0000602156
    7    1   10    7       -0.0000000100
    7    1   11    7        0.0000000005
    7    1   12    7        0.0000000000
    7    1   13    7        0.0000000069
    7    1   14    7       -0.0000072616
    7    1   15    7        0.0000000350
    7    1   16    7       -0.0000000282
    7    1   17    7       -0.0000000051
    7    1   18    7        0.0000945826
    7    1   19    7        0.0000077228
    7    1    8    8       -0.0001234729
    7    1    9    8       -0.0001161719
    7    1   10    8       -0.0000000030
    7    1   11    8       -0.0000000005
    7    1   12    8        0.0000000003
    7    1   13    8        0.0000000628
    7    1   14    8        0.0000320821
    7    1   15    8        0.0000000600
    7    1   16    8       -0.0000000685
    7    1   17    8       -0.0000000621
    7    1   18    8        0.0002492047
    7    1   19    8        0.0000252801
    7    1    9    9        0.0000871420
    7    1   10    9        0.0000000244
    7    1   11    9       -0.0000000121
    7    1   12    9        0.0000000000
    7    1   13    9       -0.0000003136
    7    1   14    9       -0.0000735018
    7    1   15    9       -0.0000000126
    7    1   16    9        0.0000000015
    7    1   17    9       -0.0000000017
    7    1   18    9        0.0002489451
    7    1   19    9       -0.0000871873
    7    1   10   10        0.0002258271
    7    1   11   10       -0.0000000823
    7    1   12   10        0.0000000260
    7    1   13   10        0.0000156973
    7    1   14   10       -0.0000000766
    7    1   15   10        0.0000001431
    7    1   16   10       -0.0000000213
    7    1   17   10       -0.0000953322
    7    1   18   10       -0.0000000008
    7    1   19   10       -0.0000000165
    7    1   11   11        0.0002260258
    7    1   12   11       -0.0000000137
    7    1   13   11        0.0000063454
    7    1   14   11       -0.0000000206
    7    1   15   11        0.0000000735
    7    1   16   11       -0.0000000192
    7    1   17   11        0.0000132348
    7    1   18   11        0.0000000052
    7    1   19   11        0.0000000062
    7    1   12   12        0.0002549138
    7    1   13   12        0.0000000171
    7    1   14   12       -0.0000000001
    7    1   15   12       -0.0000000003
    7    1   16   12        0.0000000002
    7    1   17   12       -0.0000000173
    7    1   18   12       -0.0000000003
    7    1   19   12        0.0000000000
    7    1   13   13        0.0001233456
    7    1   14   13       -0.0000002294
    7    1   15   13       -0.0000000912
    7    1   16   13       -0.0000001858
    7    1   17   13       -0.0000162664
    7    1   18   13        0.0000001305
    7    1   19   13        0.0000002108
    7    1   14   14        0.0000683249
    7    1   15   14        0.0000000570
    7    1   16   14       -0.0000000557
    7    1   17   14        0.0000000713
    7    1   18   14        0.0000068728
    7    1   19   14        0.0000595037
    7    1   15   15        0.0001322691
    7    1   16   15        0.0000008407
    7    1   17   15       -0.0000001328
    7    1   18   15       -0.0000000785
    7    1   19   15       -0.0000000385
    7    1   16   16       -0.0000570487
    7    1   17   16        0.0000000100
    7    1   18   16        0.0000001041
    7    1   19   16        0.0000000369
    7    1   17   17       -0.0001760859
    7    1   18   17       -0.0000000042
    7    1   19   17        0.0000000031
    7    1   18   18       -0.0003100179
    7    1   19   18       -0.0000721308
    7    1   19   19        0.0000577246
    8    1    8    1        0.0007480215
    8    1    9    1       -0.0003267009
    8    1   10    1       -0.0000000802
    8    1   11    1       -0.0000000201
    8    1   12    1        0.0000000001
    8    1   13    1       -0.0000026357
    8    1   14    1       -0.0007581701
    8    1   15    1       -0.0000006288
    8    1   16    1        0.0000004199
    8    1   17    1       -0.0000000172
    8    1   18    1       -0.0012270348
    8    1   19    1        0.0001743894
    8    1    2    2        0.0004127882
    8    1    3    2        0.0003005640
    8    1    4    2        0.0000000868
    8    1    5    2        0.0000000543
    8    1    6    2       -0.0000000034
    8    1    7    2       -0.0001589741
    8    1    8    2        0.0001126907
    8    1    9    2       -0.0001713516
    8    1   10    2        0.0000000685
    8    1   11    2        0.0000000323
    8    1   12    2        0.0000000002
    8    1   13    2       -0.0000006724
    8    1   14    2       -0.0001698542
    8    1   15    2       -0.0000001237
    8    1   16    2        0.0000000734
    8    1   17    2       -0.0000000065
    8    1   18    2       -0.0001961109
    8    1   19    2        0.0001277011
    8    1    3    3        0.0002516084
    8    1    4    3        0.0000000180
    8    1    5    3        0.0000000033
    8    1    6    3       -0.0000000000
    8    1    7    3       -0.0001183563
    8    1    8    3        0.0001286127
    8    1    9    3       -0.0001717611
    8    1   10    3        0.0000000509
    8    1   11    3        0.0000000323
    8    1   12    3        0.0000000002
    8    1   13    3       -0.0000005160
    8    1   14    3       -0.0001300932
    8    1   15    3       -0.0000000869
    8    1   16    3        0.0000000470
    8    1   17    3       -0.0000000084
    8    1   18    3       -0.0001439463
    8    1   19    3        0.0001339818
    8    1    4    4        0.0001479024
    8    1    5    4       -0.0000000210
    8    1    6    4        0.0000000289
    8    1    7    4       -0.0000000350
    8    1    8    4       -0.0000000052
    8    1    9    4        0.0000000170
    8    1   10    4        0.0001514781
    8    1   11    4       -0.0000153508
    8    1   12    4       -0.0000000482
    8    1   13    4       -0.0000584194
    8    1   14    4        0.0000002007
    8    1   15    4       -0.0000004805
    8    1   16    4        0.0000000474
    8    1   17    4       -0.0000122347
    8    1   18    4       -0.0000000295
    8    1   19    4       -0.0000000094
    8    1    5    5        0.0001479641
    8    1    6    5        0.0000000155
    8    1    7    5       -0.0000000249
    8    1    8    5        0.0000000078
    8    1    9    5        0.0000000107
    8    1   10    5        0.0000154817
    8    1   11    5        0.0001515053
    8    1   12    5        0.0000000839
    8    1   13    5       -0.0000309174
    8    1   14    5        0.0000001033
    8    1   15    5       -0.0000002573
    8    1   16    5        0.0000000147
    8    1   17    5        0.0000003000
    8    1   18    5       -0.0000000190
    8    1   19    5       -0.0000000030
    8    1    6    6        0.0000347100
    8    1    7    6        0.0000000021
    8    1    8    6        0.0000000001
    8    1    9    6       -0.0000000029
    8    1   10    6        0.0000000386
    8    1   11    6        0.0000000181
    8    1   12    6        0.0000000000
    8    1   13    6       -0.0000000844
    8    1   14    6        0.0000000012
    8    1   15    6        0.0000047179
    8    1   16    6       -0.0000489491
    8    1   17    6       -0.0000000185
    8    1   18    6        0.0000000046
    8    1   19    6        0.0000000013
    8    1    7    7        0.0000978655
    8    1    8    7       -0.0000653470
    8    1    9    7        0.0000682340
    8    1   10    7       -0.0000000301
    8    1   11    7       -0.0000000173
    8    1   12    7       -0.0000000001
    8    1   13    7        0.0000004182
    8    1   14    7        0.0000953643
    8    1   15    7        0.0000000739
    8    1   16    7       -0.0000000430
    8    1   17    7        0.0000000083
    8    1   18    7        0.0001178512
    8    1   19    7       -0.0000548571
    8    1    8    8        0.0000598668
    8    1    9    8       -0.0000574604
    8    1   10    8        0.0000000006
    8    1   11    8       -0.0000000043
    8    1   12    8        0.0000000001
    8    1   13    8       -0.0000002360
    8    1   14    8       -0.0000597303
    8    1   15    8       -0.0000000546
    8    1   16    8        0.0000000313
    8    1   17    8       -0.0000000344
    8    1   18    8       -0.0000988839
    8    1   19    8        0.0000320426
    8    1    9    9        0.0001362519
[...]
   16   13   16   16       -0.0000028511
   16   13   17   16       -0.0000626824
   16   13   18   16        0.0000062944
   16   13   19   16        0.0000013366
   16   13   17   17       -0.0000058743
   16   13   18   17        0.0001495505
   16   13   19   17       -0.0001446642
   16   13   18   18       -0.0000195447
   16   13   19   18       -0.0000093059
   16   13   19   19       -0.0000020337
   17   13   17   13        0.0022849318
   17   13   18   13        0.0000023718
   17   13   19   13        0.0000004296
   17   13   14   14        0.0001072517
   17   13   15   14       -0.0003465813
   17   13   16   14        0.0002387434
   17   13   17   14       -0.0000061291
   17   13   18   14        0.0011212451
   17   13   19   14        0.0003943085
   17   13   15   15        0.0010864859
   17   13   16   15        0.0009325680
   17   13   17   15        0.0000070527
   17   13   18   15        0.0000095053
   17   13   19   15        0.0000166984
   17   13   16   16        0.0012345940
   17   13   17   16        0.0000003845
   17   13   18   16       -0.0000341702
   17   13   19   16       -0.0002231123
   17   13   17   17        0.0016320705
   17   13   18   17       -0.0000029074
   17   13   19   17        0.0000009110
   17   13   18   18        0.0012617385
   17   13   19   18        0.0000700627
   17   13   19   19        0.0003665657
   18   13   18   13        0.0018070345
   18   13   19   13        0.0002962030
   18   13   14   14        0.0000004469
   18   13   15   14        0.0000201396
   18   13   16   14        0.0000079143
   18   13   17   14        0.0003697186
   18   13   18   14       -0.0000133500
   18   13   19   14       -0.0000047460
   18   13   15   15        0.0000054970
   18   13   16   15       -0.0000003085
   18   13   17   15       -0.0001543817
   18   13   18   15       -0.0000002144
   18   13   19   15       -0.0000220933
   18   13   16   16        0.0000166109
   18   13   17   16       -0.0000726751
   18   13   18   16       -0.0000163415
   18   13   19   16       -0.0000025613
   18   13   17   17       -0.0000072979
   18   13   18   17        0.0003460170
   18   13   19   17        0.0000925839
   18   13   18   18        0.0000013989
   18   13   19   18        0.0000037127
   18   13   19   19        0.0000098506
   19   13   19   13        0.0012947270
   19   13   14   14       -0.0000220332
   19   13   15   14        0.0000073491
   19   13   16   14       -0.0000068456
   19   13   17   14        0.0001034002
   19   13   18   14       -0.0000021232
   19   13   19   14        0.0000033510
   19   13   15   15        0.0000068935
   19   13   16   15        0.0000022656
   19   13   17   15       -0.0000683057
   19   13   18   15       -0.0000147692
   19   13   19   15       -0.0000488463
   19   13   16   16        0.0000163557
   19   13   17   16       -0.0005656121
   19   13   18   16       -0.0000248886
   19   13   19   16        0.0000284316
   19   13   17   17       -0.0000153697
   19   13   18   17        0.0007289460
   19   13   19   17       -0.0003093278
   19   13   18   18       -0.0000069861
   19   13   19   18       -0.0000001310
   19   13   19   19       -0.0000020503
   14   14   14   14        0.0717146082
   14   14   15   14        0.0000030770
   14   14   16   14       -0.0000029499
   14   14   17   14        0.0000499658
   14   14   18   14        0.0007963340
   14   14   19   14       -0.0028189644
   14   14   15   15        0.0626951415
   14   14   16   15        0.0011219907
   14   14   17   15       -0.0000016414
   14   14   18   15        0.0000016385
   14   14   19   15       -0.0000024348
   14   14   16   16        0.0604942842
   14   14   17   16       -0.0000063269
   14   14   18   16       -0.0000010333
   14   14   19   16        0.0000013215
   14   14   17   17        0.0622225200
   14   14   18   17       -0.0000430164
   14   14   19   17        0.0000166623
   14   14   18   18        0.0622173613
   14   14   19   18       -0.0003783787
   14   14   19   19        0.0625052113
   15   14   15   14        0.0018474176
   15   14   16   14       -0.0000430371
   15   14   17   14       -0.0000010275
   15   14   18   14       -0.0000000444
   15   14   19   14       -0.0000018890
   15   14   15   15       -0.0000005065
   15   14   16   15        0.0000001071
   15   14   17   15        0.0000067207
   15   14   18   15       -0.0002512948
   15   14   19   15       -0.0000737556
   15   14   16   16       -0.0000011048
   15   14   17   16       -0.0000158071
   15   14   18   16        0.0003382614
   15   14   19   16        0.0000573131
   15   14   17   17       -0.0001736556
   15   14   18   17        0.0000102155
   15   14   19   17       -0.0000033391
   15   14   18   18       -0.0000000887
   15   14   19   18       -0.0000003257
   15   14   19   19        0.0000012174
   16   14   16   14        0.0019632883
   16   14   17   14       -0.0000024774
   16   14   18   14       -0.0000001925
   16   14   19   14        0.0000013166
   16   14   15   15       -0.0000011855
   16   14   16   15       -0.0000007649
   16   14   17   15        0.0000015293
   16   14   18   15       -0.0000286140
   16   14   19   15        0.0001457989
   16   14   16   16        0.0000017806
   16   14   17   16        0.0000304302
   16   14   18   16       -0.0000637285
   16   14   19   16       -0.0012341232
   16   14   17   17       -0.0004067175
   16   14   18   17       -0.0000042850
   16   14   19   17        0.0000022086
   16   14   18   18       -0.0000003703
   16   14   19   18        0.0000001966
   16   14   19   19       -0.0000010962
   17   14   17   14        0.0011155442
   17   14   18   14       -0.0000118724
   17   14   19   14        0.0000169510
   17   14   15   15        0.0000314489
   17   14   16   15       -0.0000016977
   17   14   17   15       -0.0001986197
   17   14   18   15        0.0000027940
   17   14   19   15       -0.0000025264
   17   14   16   16        0.0000451967
   17   14   17   16       -0.0002616682
   17   14   18   16       -0.0000006415
   17   14   19   16        0.0000037093
   17   14   17   17        0.0000207001
   17   14   18   17       -0.0000797888
   17   14   19   17        0.0001442314
   17   14   18   18        0.0000356779
   17   14   19   18       -0.0000069983
   17   14   19   19        0.0000499290
   18   14   18   14        0.0030669218
   18   14   19   14        0.0005241234
   18   14   15   15        0.0002533661
   18   14   16   15        0.0004773835
   18   14   17   15        0.0000090909
   18   14   18   15       -0.0000003278
   18   14   19   15       -0.0000002379
   18   14   16   16        0.0008779782
   18   14   17   16       -0.0000023421
   18   14   18   16        0.0000001450
   18   14   19   16        0.0000000822
   18   14   17   17        0.0001551050
   18   14   18   17        0.0000051573
   18   14   19   17       -0.0000003750
   18   14   18   18        0.0003578253
   18   14   19   18       -0.0005058695
   18   14   19   19        0.0005961650
   19   14   19   14        0.0069435770
   19   14   15   15       -0.0010904784
   19   14   16   15        0.0003424770
   19   14   17   15        0.0000009236
   19   14   18   15       -0.0000012876
   19   14   19   15        0.0000008618
   19   14   16   16       -0.0015949215
   19   14   17   16        0.0000034265
   19   14   18   16        0.0000004241
   19   14   19   16       -0.0000000767
   19   14   17   17       -0.0005254367
   19   14   18   17       -0.0000311778
   19   14   19   17        0.0000234285
   19   14   18   18       -0.0001066855
   19   14   19   18       -0.0003721997
   19   14   19   19       -0.0019759871
   15   15   15   15        0.0694584426
   15   15   16   15        0.0017457475
   15   15   17   15        0.0000061163
   15   15   18   15        0.0000010700
   15   15   19   15       -0.0000027017
   15   15   16   16        0.0646930820
   15   15   17   16        0.0000155571
   15   15   18   16       -0.0000019690
   15   15   19   16        0.0000010522
   15   15   17   17        0.0633081701
   15   15   18   17       -0.0000036032
   15   15   19   17        0.0000015028
   15   15   18   18        0.0606406252
   15   15   19   18        0.0005320815
   15   15   19   19        0.0611438445
   16   15   16   15        0.0023093509
   16   15   17   15        0.0000093414
   16   15   18   15       -0.0000002029
   16   15   19   15       -0.0000001753
   16   15   16   16        0.0008499907
   16   15   17   16       -0.0000040673
   16   15   18   16        0.0000002056
   16   15   19   16        0.0000008754
   16   15   17   17        0.0009210797
   16   15   18   17        0.0000029392
   16   15   19   17        0.0000036521
   16   15   18   18        0.0012933868
   16   15   19   18        0.0004770626
   16   15   19   19       -0.0000785998
   17   15   17   15        0.0013086827
   17   15   18   15       -0.0000048472
   17   15   19   15        0.0000003653
   17   15   16   16        0.0000057315
   17   15   17   16        0.0003840466
   17   15   18   16        0.0000018160
   17   15   19   16       -0.0000018050
   17   15   17   17        0.0000146904
   17   15   18   17       -0.0001478631
   17   15   19   17       -0.0001358607
   17   15   18   18        0.0000088391
   17   15   19   18        0.0000016439
   17   15   19   19        0.0000024815
   18   15   18   15        0.0012315579
   18   15   19   15        0.0015460469
   18   15   16   16        0.0000021469
   18   15   17   16        0.0000027066
   18   15   18   16        0.0009979711
   18   15   19   16       -0.0000602147
   18   15   17   17        0.0000428711
   18   15   18   17        0.0000024794
   18   15   19   17        0.0000014773
   18   15   18   18        0.0000008623
   18   15   19   18        0.0000003825
   18   15   19   19        0.0000013649
   19   15   19   15        0.0050376049
   19   15   16   16        0.0000020696
   19   15   17   16        0.0000296167
   19   15   18   16        0.0022536739
   19   15   19   16       -0.0021531404
   19   15   17   17        0.0000942300
   19   15   18   17        0.0000048398
   19   15   19   17       -0.0000009100
   19   15   18   18       -0.0000001941
   19   15   19   18        0.0000002401
   19   15   19   19       -0.0000010349
   16   16   16   16        0.0725908780
   16   16   17   16       -0.0000238400
   16   16   18   16       -0.0000005747
   16   16   19   16       -0.0000024818
   16   16   17   17        0.0670912076
   16   16   18   17        0.0000261819
   16   16   19   17       -0.0000139074
   16   16   18   18        0.0623554186
   16   16   19   18       -0.0013024781
   16   16   19   19        0.0608868524
   17   16   17   16        0.0042438691
   17   16   18   16        0.0000056186
   17   16   19   16       -0.0000416459
   17   16   17   17        0.0000097650
   17   16   18   17       -0.0007460898
   17   16   19   17        0.0001748918
   17   16   18   18       -0.0000077201
   17   16   19   18        0.0000012288
   17   16   19   19       -0.0000134673
   18   16   18   16        0.0026553732
   18   16   19   16       -0.0014602537
   18   16   17   17       -0.0000807616
   18   16   18   17       -0.0000016459
   18   16   19   17        0.0000004585
   18   16   18   18       -0.0000011222
   18   16   19   18        0.0000002461
   18   16   19   19       -0.0000010867
   19   16   19   16        0.0029609092
   19   16   17   17        0.0001927805
   19   16   18   17        0.0000026221
   19   16   19   17       -0.0000022343
   19   16   18   18       -0.0000000067
   19   16   19   18       -0.0000000859
   19   16   19   19        0.0000002912
   17   17   17   17        0.0757574493
   17   17   18   17       -0.0000534699
   17   17   19   17        0.0000169361
   17   17   18   18        0.0651783947
   17   17   19   18       -0.0005144633
   17   17   19   19        0.0603773465
   18   17   18   17        0.0037087970
   18   17   19   17       -0.0003768781
   18   17   18   18       -0.0000593504
   18   17   19   18       -0.0000004960
   18   17   19   19       -0.0000255153
   19   17   19   17        0.0008491093
   19   17   18   18        0.0000154968
   19   17   19   18       -0.0000081656
   19   17   19   19        0.0000019068
   18   18   18   18        0.0659918741
   18   18   19   18       -0.0001615732
   18   18   19   19        0.0595276865
   19   18   19   18        0.0020341801
   19   18   19   19       -0.0008918212
   19   19   19   19        0.0615096480
 end_two_electron_integrals


 output epsi filename:./pspw_hf_LiH.emovecs

 Total PSPW energy     :  -0.7363969455E+00


=== Spin Contamination ===

 <Sexact^2> =    0.0000000000000000     
 <S^2>      =    0.0000000000000000     



== Center of Charge ==

spin up     (    0.0000,    0.0000,    1.7982 )
spin down   (    0.0000,    0.0000,    1.7982 )
     total  (    0.0000,    0.0000,    1.7982 )
ionic       (    0.0000,    0.0000,    0.6614 )


== Molecular Dipole wrt Center of Mass ==

mu   =  (   -0.0000,   -0.0000,   -2.2735 ) au
|mu| =     2.2735 au,       5.7783 Debye

 output psi filename:./pspw_hf_LiH.movecs

 Writing Crystallographic Information File:./LiH.cif
   - cell not shifted (nwpw:cif_shift_cell .false.)


== Timing ==

cputime in seconds
  prologue    :   0.893612E+02
  main loop   :   0.110340E+04
  epilogue    :   0.791047E-01
  total       :   0.119284E+04
  cputime/step:   0.848772E+01       (     130 evalulations,      59 linesearches)


Time spent doing                        total          step       percent
  total time                 :   0.119285E+04  0.917581E+01       100.0 %
  i/o time                   :   0.236043E+01  0.181571E-01         0.2 %
  FFTs                       :   0.878356E+03  0.675659E+01        73.6 %
  dot products               :   0.527082E+01  0.405448E-01         0.4 %
  geodesic                   :   0.998562E-01  0.768124E-03         0.0 %
  ffm_dgemm                  :   0.225375E-01  0.173365E-03         0.0 %
  fmf_dgemm                  :   0.432773E-01  0.332902E-03         0.0 %
  mmm_dgemm                  :   0.323900E-02  0.249154E-04         0.0 %
  m_diagonalize              :   0.139740E-02  0.107492E-04         0.0 %
  local pseudopotentials     :   0.602352E-02  0.463347E-04         0.0 %
  non-local pseudopotentials :   0.266328E+01  0.204868E-01         0.2 %
  structure factors          :   0.524662E+00  0.403586E-02         0.0 %
  phase factors              :   0.256710E-04  0.197469E-06         0.0 %
  masking and packing        :   0.582389E+02  0.447992E+00         4.9 %
  queue fft                  :   0.149671E+01  0.115132E-01         0.1 %
  queue fft (serial)         :   0.552532E+00  0.425025E-02         0.0 %
  queue fft (message passing):   0.874315E+00  0.672550E-02         0.1 %
  HFX potential              :   0.701289E+03  0.539453E+01        58.8 %
  non-local psp FFM          :   0.208917E+01  0.160705E-01         0.2 %
  non-local psp FMF          :   0.139542E+00  0.107340E-02         0.0 %
  non-local psp FFM A        :   0.244225E+00  0.187865E-02         0.0 %
  non-local psp FFM B        :   0.226536E+00  0.174259E-02         0.0 %

== HFX Counters ==
  HFX Evalulations         =   130
  Lin ACE HFX Evalulations =     0


     >>>  JOB COMPLETED     AT Mon May  5 01:03:08 2025  <<<

 Task  times  cpu:     1120.3s     wall:     1192.9s


                                NWChem Input Module
                                -------------------


 Summary of allocated global arrays
-----------------------------------
  No active global arrays


MA_summarize_allocated_blocks: starting scan ...
MA_summarize_allocated_blocks: scan completed: 0 heap blocks, 0 stack blocks
MA usage statistics:

	allocation statistics:
					      heap	     stack
					      ----	     -----
	current number of blocks	         0	         0
	maximum number of blocks	       315	        19
	current total bytes		         0	         0
	maximum total bytes		 127233576	  29398968
	maximum total K-bytes		    127234	     29399
	maximum total M-bytes		       128	        30


                                     CITATION
                                     --------
                Please cite the following reference when publishing
                           results obtained with NWChem:

          E. Apra, E. J. Bylaska, W. A. de Jong, N. Govind, K. Kowalski,
       T. P. Straatsma, M. Valiev, H. J. J. van Dam, Y. Alexeev, J. Anchell,
       V. Anisimov, F. W. Aquino, R. Atta-Fynn, J. Autschbach, N. P. Bauman,
     J. C. Becca, D. E. Bernholdt, K. Bhaskaran-Nair, S. Bogatko, P. Borowski,
         J. Boschen, J. Brabec, A. Bruner, E. Cauet, Y. Chen, G. N. Chuev,
      C. J. Cramer, J. Daily, M. J. O. Deegan, T. H. Dunning Jr., M. Dupuis,
   K. G. Dyall, G. I. Fann, S. A. Fischer, A. Fonari, H. Fruchtl, L. Gagliardi,
      J. Garza, N. Gawande, S. Ghosh, K. Glaesemann, A. W. Gotz, J. Hammond,
       V. Helms, E. D. Hermes, K. Hirao, S. Hirata, M. Jacquelin, L. Jensen,
   B. G. Johnson, H. Jonsson, R. A. Kendall, M. Klemm, R. Kobayashi, V. Konkov,
      S. Krishnamoorthy, M. Krishnan, Z. Lin, R. D. Lins, R. J. Littlefield,
      A. J. Logsdail, K. Lopata, W. Ma, A. V. Marenich, J. Martin del Campo,
   D. Mejia-Rodriguez, J. E. Moore, J. M. Mullin, T. Nakajima, D. R. Nascimento,
    J. A. Nichols, P. J. Nichols, J. Nieplocha, A. Otero-de-la-Roza, B. Palmer,
    A. Panyala, T. Pirojsirikul, B. Peng, R. Peverati, J. Pittner, L. Pollack,
   R. M. Richard, P. Sadayappan, G. C. Schatz, W. A. Shelton, D. W. Silverstein,
   D. M. A. Smith, T. A. Soares, D. Song, M. Swart, H. L. Taylor, G. S. Thomas,
            V. Tipparaju, D. G. Truhlar, K. Tsemekhman, T. Van Voorhis,
      A. Vazquez-Mayagoitia, P. Verma, O. Villa, A. Vishnu, K. D. Vogiatzis,
        D. Wang, J. H. Weare, M. J. Williamson, T. L. Windus, K. Wolinski,
        A. T. Wong, Q. Wu, C. Yang, Q. Yu, M. Zacharias, Z. Zhang, Y. Zhao,
                                and R. J. Harrison
                        "NWChem: Past, present, and future
                         J. Chem. Phys. 152, 184102 (2020)
                               doi:10.1063/5.0004997

                                      AUTHORS
                                      -------
  E. Apra, E. J. Bylaska, N. Govind, K. Kowalski, M. Valiev, D. Mejia-Rodriguez,
       A. Kunitsa, N. P. Bauman, A. Panyala, W. A. de Jong, T. P. Straatsma,
   H. J. J. van Dam, D. Wang, T. L. Windus, J. Hammond, J. Autschbach, A. Woods,
    K. Bhaskaran-Nair, J. Brabec, K. Lopata, S. A. Fischer, S. Krishnamoorthy,
     M. Jacquelin, W. Ma, M. Klemm, O. Villa, Y. Chen, V. Anisimov, F. Aquino,
     S. Hirata, M. T. Hackler, E. Hermes, L. Jensen, J. E. Moore, J. C. Becca,
      V. Konjkov, T. Risthaus, M. Malagoli, A. Marenich, A. Otero-de-la-Roza,
        J. Mullin, P. Nichols, R. Peverati, J. Pittner, Y. Zhao, P.-D. Fan,
        A. Fonari, M. J. Williamson, R. J. Harrison, J. R. Rehr, M. Dupuis,
     D. Silverstein, D. M. A. Smith, J. Nieplocha, V. Tipparaju, M. Krishnan,
     B. E. Van Kuiken, A. Vazquez-Mayagoitia, M. Swart, Q. Wu, T. Van Voorhis,
     A. A. Auer, M. Nooijen, L. D. Crosby, E. Brown, G. Cisneros, G. I. Fann,
   H. Fruchtl, J. Garza, K. Hirao, R. A. Kendall, J. A. Nichols, K. Tsemekhman,
    K. Wolinski, J. Anchell, D. E. Bernholdt, P. Borowski, T. Clark, D. Clerc,
   H. Dachsel, M. J. O. Deegan, K. Dyall, D. Elwood, E. Glendening, M. Gutowski,
   A. C. Hess, J. Jaffe, B. G. Johnson, J. Ju, R. Kobayashi, R. Kutteh, Z. Lin,
   R. Littlefield, X. Long, B. Meng, T. Nakajima, S. Niu, L. Pollack, M. Rosing,
   K. Glaesemann, G. Sandrone, M. Stave, H. Taylor, G. Thomas, J. H. van Lenthe,
                               A. T. Wong, Z. Zhang.

 Total times  cpu:     1120.4s     wall:     1192.9s
