 argument  1 = ../data/PW_LiH_data/3x3_aperiodic/NWChem/18nocovo/H1Li1-4.0.nw



============================== echo of input deck ==============================
title "swnc: e theory=pspw4 xc=pbe formula=LiH charge=0 mult=1"
#machinejob:expert

echo

start pspw_hf_LiH

memory heap 1200 mb stack 2400 mb global 400 mb

charge 0

geometry
Li    0.00000    0.00000   -2.00000
H     0.00000    0.00000    2.00000
end

nwpw
  ### pseudopotential block begin ###
  ### pseudopotential block end   ###
  simulation_cell
     SC 28.345889835
     boundary_conditions aperiodic
  end

  cutoff 50.0
  mult 1
  xc hf
  lmbfgs
  tolerances 1.0e-9 1.0e-9

  virtual 18
end
set nwpw:cif_filename LiH

#set nwpw:CI_maxit_orb 15
#set nwpw:CI_maxit_linesearch 15

set nwpw:2qintegrals .true.
#set nwpw:3x3_virtual .true.

task pspw energy

================================================================================


                                         
                                         


             Northwest Computational Chemistry Package (NWChem) 7.2.3
             --------------------------------------------------------


                    Environmental Molecular Sciences Laboratory
                       Pacific Northwest National Laboratory
                                Richland, WA 99352

                              Copyright (c) 1994-2022
                       Pacific Northwest National Laboratory
                            Battelle Memorial Institute

             NWChem is an open-source computational chemistry package
                        distributed under the terms of the
                      Educational Community License (ECL) 2.0
             A copy of the license is included with this distribution
                              in the LICENSE.TXT file

                                  ACKNOWLEDGMENT
                                  --------------

            This software and its documentation were developed at the
            EMSL at Pacific Northwest National Laboratory, a multiprogram
            national laboratory, operated for the U.S. Department of Energy
            by Battelle under Contract Number DE-AC05-76RL01830. Support
            for this work was provided by the Department of Energy Office
            of Biological and Environmental Research, Office of Basic
            Energy Sciences, and the Office of Advanced Scientific Computing.


           Job information
           ---------------

    hostname        = mqs-al
    program         = nwchem
    date            = Mon May  5 04:44:44 2025

    compiled        = Thu_Oct_31_08:55:15_2024
    source          = /home/conda/feedstock_root/build_artifacts/nwchem_1730356057992/work
    nwchem branch   = 7.2.3
    nwchem revision = c400b04
    ga revision     = 5.8.0
    use scalapack   = T
    input           = ../data/PW_LiH_data/3x3_aperiodic/NWChem/18nocovo/H1Li1-4.0.nw
    prefix          = pspw_hf_LiH.
    data base       = ./pspw_hf_LiH.db
    status          = startup
    nproc           =       24
    time left       =     -1s



           Memory information
           ------------------

    heap     =  157286396 doubles =   1200.0 Mbytes
    stack    =  314572801 doubles =   2400.0 Mbytes
    global   =   52428800 doubles =    400.0 Mbytes (distinct from heap & stack)
    total    =  524287997 doubles =   4000.0 Mbytes
    verify   = yes
    hardfail = no 


           Directory information
           ---------------------

  0 permanent = .
  0 scratch   = .




                                NWChem Input Module
                                -------------------


              swnc: e theory=pspw4 xc=pbe formula=LiH charge=0 mult=1
              -------------------------------------------------------

 Scaling coordinates for geometry "geometry" by  1.889725989
 (inverse scale =  0.529177249)

  zeroes
  zeroes
  zeroes
  zeroes
  zeroes
  zeroes
  zeroes
  zeroes
  zeroes
  zeroes
  zeroes
  zeroes
  zeroes
  zeroes
  zeroes
  zeroes
  zeroes
  zeroes
  zeroes
  zeroes
  zeroes
  zeroes
  zeroes
  zeroes
  zeroes
  zeroes
  zeroes
  zeroes
  zeroes
  zeroes
  zeroes
  zeroes
  zeroes
  zeroes
  zeroes
  zeroes
  zeroes
  zeroes
  zeroes
  zeroes
  zeroes
  zeroes
  zeroes
  zeroes
  zeroes
  zeroes
  zeroes
  zeroes
 ORDER OF PRIMARY AXIS IS BEING SET TO 4
 C4V symmetry detected

          ------
          auto-z
          ------
     1 autoz failed with cvr_scaling = 1.2 changing to 1.3
     2 autoz failed with cvr_scaling = 1.3 changing to 1.4
     3 autoz failed with cvr_scaling = 1.4 changing to 1.5
     4 autoz failed with cvr_scaling = 1.5 changing to 1.6
     5 autoz failed with cvr_scaling = 1.6 changing to 1.7

 AUTOZ failed to generate good internal coordinates.
 Cartesian coordinates will be used in optimizations.



                             Geometry "geometry" -> ""
                             -------------------------

 Output coordinates in angstroms (scale by  1.889725989 to convert to a.u.)

  No.       Tag          Charge          X              Y              Z
 ---- ---------------- ---------- -------------- -------------- --------------
    1 Li                   3.0000     0.00000000     0.00000000    -1.00000000
    2 H                    1.0000     0.00000000     0.00000000     3.00000000

      Atomic Mass 
      ----------- 

      Li                 7.016000
      H                  1.007825


 Effective nuclear repulsion energy (a.u.)       0.3968829367

            Nuclear Dipole moment (a.u.) 
            ----------------------------
        X                 Y               Z
 ---------------- ---------------- ----------------
     0.0000000000     0.0000000000     0.0000000000

      Symmetry information
      --------------------

 Group name             C4v       
 Group number             18
 Group order               8
 No. of unique centers     2

      Symmetry unique atoms

     1    2


            XYZ format geometry
            -------------------
     2
 geometry
 Li                    0.00000000     0.00000000    -1.00000000
 H                     0.00000000     0.00000000     3.00000000

          ****************************************************
          *                                                  *
          *               NWPW PSPW Calculation              *
          *                                                  *
          * [ (Grassmann/Stiefel manifold implementation)  ] *
          *                                                  *
          *      [ NorthWest Chemistry implementation ]      *
          *                                                  *
          *            version #5.10   06/12/02              *
          *                                                  *
          *    This code was developed by Eric J. Bylaska,   *
          *    and was based upon algorithms and code        *
          *    developed by the group of Prof. John H. Weare *
          *                                                  *
          ****************************************************
     >>>  JOB STARTED       AT Mon May  5 04:44:44 2025  <<<
          ================ input data ========================

 input psi filename:./pspw_hf_LiH.movecs

 number of processors used:        24
 processor grid           :  24 x   1
 parallel mapping         :2d-hilbert
 parallel mapping         :  balanced
 number of threads        :         1
 parallel io              :       off

 options:
      boundary conditions  = aperiodic   (version4)
      electron spin        = restricted
      exchange-correlation = Hartree-Fock
      - HFX relaxed
      - HFX restricted orbitals :    1
      - HFX free-space coulomb solver


 elements involved in the cluster:
      1: Li  valence charge:  1.0000  lmax=  1
             comment    : Hamann pseudopotential
             pseudpotential type            :   0
             highest angular component      :   1
             local potential used           :   1
             number of non-local projections:   1
             aperiodic cutoff radius        :  1.000
             semicore corrections included  :  1.000 (radius)  0.769 (charge)
             cutoff =   1.869   1.551

      2: H   valence charge:  1.0000  lmax=  1
             comment    : Parameterized (Chem.Phys.Lett., vol 322, page 447) Hamman psp
             pseudpotential type            :   0
             highest angular component      :   1
             local potential used           :   1
             number of non-local projections:   1
             aperiodic cutoff radius        :  1.000
             cutoff =   0.800   0.800


 total charge:   0.000

 atomic composition:
     Li  :    1     H   :    1

 number of electrons: spin up=     1 (   1 per task)  down=     1 (   1 per task) (Fourier space)
 number of orbitals : spin up=     1 (   1 per task)  down=     1 (   1 per task) (Fourier space)

 supercell:
      cell_name:  cell_default                                      
      lattice:    a1=<  28.346   0.000   0.000 >
                  a2=<   0.000  28.346   0.000 >
                  a3=<   0.000   0.000  28.346 >
      reciprocal: b1=<   0.222   0.000   0.000 >
                  b2=<   0.000   0.222   0.000 >
                  b3=<   0.000   0.000   0.222 >
      lattice:    a=      28.346 b=     28.346 c=      28.346
                  alpha=  90.000 beta=  90.000 gamma=  90.000
                  omega=     22775.6

      density cutoff=100.000  fft=140x140x140(   544264 waves    22677 per task)
      wavefnc cutoff= 50.000  fft=140x140x140(   192294 waves     8012 per task)

 technical parameters:
      time step=      5.80     fictitious mass=  400000.0
      tolerance=0.100E-08 (energy)   0.100E-08 (density)
      maximum iterations =      1000 (   10 inner    100 outer )





== Energy Calculation ==


          ============ Grassmann lmbfgs iteration ============
     >>>  ITERATION STARTED AT Mon May  5 04:46:13 2025  <<<
    iter.           Energy         DeltaE       DeltaRho 
    ------------------------------------------------------
      10   -0.6300407496E+00   -0.18664E-02    0.13668E-01
     -  10 steepest descent iterations performed
      20   -0.6358078426E+00   -0.16656E-03    0.12161E-03
      30   -0.6362466968E+00   -0.18134E-04    0.89444E-05
      40   -0.6363181597E+00   -0.26181E-05    0.74082E-06
      50   -0.6363305787E+00   -0.45076E-06    0.73613E-07
      60   -0.6363335694E+00   -0.16689E-06    0.19204E-07
      70   -0.6363344131E+00   -0.41135E-07    0.57502E-08
      80   -0.6363346028E+00   -0.10912E-07    0.13404E-08
      90   -0.6363346470E+00   -0.13460E-08    0.37730E-09
     100   -0.6363346488E+00   -0.77022E-09    0.97670E-12
  *** tolerance ok. iteration terminated
     >>>  ITERATION ENDED   AT Mon May  5 04:48:06 2025  <<<


==  Summary Of Results  ==

 number of electrons: spin up=    1.00000  down=    1.00000 (real space)

 total     energy    :  -0.6363346488E+00 (   -0.31817E+00/ion)
 total orbital energy:  -0.4075277955E+00 (   -0.40753E+00/electron)
 hartree   energy    :   0.7222023311E+00 (    0.72220E+00/electron)
 exc-corr  energy    :   0.0000000000E+00 (    0.00000E+00/electron)
 HF exchange energy  :  -0.3611011656E+00 (   -0.36110E+00/electron)
 ion-ion   energy    :   0.1322943122E+00 (    0.66147E-01/ion)

 kinetic (planewave) :   0.4507282553E+00 (    0.45073E+00/electron)
 V_local (planewave) :  -0.1489057844E+01 (   -0.14891E+01/electron)
 V_nl    (planewave) :  -0.9140053799E-01 (   -0.91401E-01/electron)
 V_Coul  (planewave) :   0.1444404662E+01 (    0.14444E+01/electron)
 V_xc.   (planewave) :   0.0000000000E+00 (    0.00000E+00/electron)
 K.S. HFX energy     :  -0.7222023311E+00 (   -0.72220E+00/electron)
 Virial Coefficient  :  -0.3018530968E+00

 orbital energies:
    -0.2037639E+00 (  -5.545eV)


== Virtual Orbital Calculation ==


 input epsi filename:./pspw_hf_LiH.emovecs
     orbital   1 current e=-0.540E-01 (error=0.955E-09) iterations 105(  61 preconditioned, Ep,Sp= 20.0  200.0)
     orbital   2 current e=-0.132E-02 (error=0.654E-08) iterations 121(  79 preconditioned, Ep,Sp= 20.0  200.0)
     orbital   2 current e=-0.132E-02 (error=0.983E-09) iterations  24(   1 preconditioned, Ep,Sp= 20.0  200.0)
     orbital   3 current e=-0.391E-03 (error=0.988E-09) iterations  99(  41 preconditioned, Ep,Sp= 20.0  200.0)
     orbital   4 current e=-0.391E-03 (error=0.926E-09) iterations  99(  41 preconditioned, Ep,Sp= 20.0  200.0)
     orbital   5 current e= 0.125E-01 (error=0.881E-08) iterations 121(  88 preconditioned, Ep,Sp= 20.0  200.0)
     orbital   5 current e= 0.125E-01 (error=0.934E-09) iterations  48(   1 preconditioned, Ep,Sp= 20.0  200.0)
     orbital   6 current e= 0.175E-01 (error=0.940E-09) iterations  52(  13 preconditioned, Ep,Sp= 20.0  200.0)
     orbital   7 current e= 0.296E-01 (error=0.997E-09) iterations 117(  54 preconditioned, Ep,Sp= 20.0  200.0)
     orbital   8 current e= 0.296E-01 (error=0.106E-08) iterations 121(  56 preconditioned, Ep,Sp= 20.0  200.0)
     orbital   8 current e= 0.296E-01 (error=0.516E-09) iterations   2(   1 preconditioned, Ep,Sp= 20.0  200.0)
     orbital   9 current e= 0.298E-01 (error=0.544E-07) iterations 121( 104 preconditioned, Ep,Sp= 20.0  200.0)
     orbital   9 current e= 0.298E-01 (error=0.292E-08) iterations 121(   1 preconditioned, Ep,Sp= 20.0  200.0)
     orbital   9 current e= 0.306E-01 (error=0.161E-04) iterations 121( 120 preconditioned, Ep,Sp= 20.0  200.0)
     orbital   9 current e= 0.298E-01 (error=0.131E-05) iterations 121( 120 preconditioned, Ep,Sp= 20.0  200.0)
     orbital   9 current e= 0.298E-01 (error=0.570E-08) iterations 121(  70 preconditioned, Ep,Sp= 20.0  200.0)
     orbital   9 current e= 0.298E-01 (error=0.983E-09) iterations  98(   1 preconditioned, Ep,Sp= 20.0  200.0)
     orbital  10 current e= 0.320E-01 (error=0.452E-07) iterations 121(  56 preconditioned, Ep,Sp= 20.0  200.0)
     orbital  10 current e= 0.320E-01 (error=0.934E-09) iterations  60(   1 preconditioned, Ep,Sp= 20.0  200.0)
     orbital  11 current e= 0.378E-01 (error=0.983E-09) iterations  86(  33 preconditioned, Ep,Sp= 20.0  200.0)
     orbital  12 current e= 0.367E-01 (error=0.800E-08) iterations 121(  80 preconditioned, Ep,Sp= 20.0  200.0)
     orbital  12 current e= 0.367E-01 (error=0.969E-09) iterations  32(   1 preconditioned, Ep,Sp= 20.0  200.0)
     orbital  13 current e= 0.413E-01 (error=0.873E-09) iterations 118(  47 preconditioned, Ep,Sp= 20.0  200.0)
     orbital  14 current e= 0.413E-01 (error=0.891E-09) iterations 119(  47 preconditioned, Ep,Sp= 20.0  200.0)
     orbital  15 current e= 0.452E-01 (error=0.955E-09) iterations  73(  19 preconditioned, Ep,Sp= 20.0  200.0)
     orbital  16 current e= 0.520E-01 (error=0.741E-09) iterations  75(  27 preconditioned, Ep,Sp= 20.0  200.0)
     orbital  17 current e= 0.550E-01 (error=0.553E-08) iterations 121(  29 preconditioned, Ep,Sp= 20.0  200.0)
     orbital  17 current e= 0.550E-01 (error=0.970E-09) iterations  34(   1 preconditioned, Ep,Sp= 20.0  200.0)
     orbital  18 current e= 0.588E-01 (error=0.148E-05) iterations 121( 120 preconditioned, Ep,Sp= 20.0  200.0)
     orbital  18 current e= 0.588E-01 (error=0.223E-07) iterations 121(  34 preconditioned, Ep,Sp= 20.0  200.0)
     orbital  18 current e= 0.594E-01 (error=0.334E-04) iterations 121( 120 preconditioned, Ep,Sp= 20.0  200.0)
     orbital  18 current e= 0.588E-01 (error=0.618E-06) iterations 121( 120 preconditioned, Ep,Sp= 20.0  200.0)
     orbital  18 current e= 0.588E-01 (error=0.243E-08) iterations 121(   7 preconditioned, Ep,Sp= 20.0  200.0)
     orbital  18 current e= 0.588E-01 (error=0.999E-09) iterations  30(   1 preconditioned, Ep,Sp= 20.0  200.0)

 virtual orbital energies:
     0.5878896E-01 (   1.600eV)
     0.5497712E-01 (   1.496eV)
     0.5195157E-01 (   1.414eV)
     0.4523076E-01 (   1.231eV)
     0.4125418E-01 (   1.123eV)
     0.4125417E-01 (   1.123eV)
     0.3779944E-01 (   1.029eV)
     0.3672306E-01 (   0.999eV)
     0.3203896E-01 (   0.872eV)
     0.2977421E-01 (   0.810eV)
     0.2956767E-01 (   0.805eV)
     0.2956766E-01 (   0.805eV)
     0.1752364E-01 (   0.477eV)
     0.1250445E-01 (   0.340eV)
    -0.3913277E-03 (  -0.011eV)
    -0.3913279E-03 (  -0.011eV)
    -0.1320433E-02 (  -0.036eV)
    -0.5398435E-01 (  -1.469eV)


 == Generating One-Electron and Two-Electron Integrals ==

 begin_one_electron_integrals
    1    1        -0.5648650633
    2    1         0.0679212213
    3    1         0.0097030465
    4    1         0.0000002826
    5    1        -0.0000014263
    6    1        -0.0284421619
    7    1         0.0000000002
    8    1        -0.0000000809
    9    1        -0.0000004362
   10    1        -0.0098926519
   11    1         0.0014505803
   12    1         0.0268456137
   13    1        -0.0000000000
   14    1         0.0000002492
   15    1        -0.0000000467
   16    1        -0.0000000000
   17    1         0.0000000001
   18    1         0.0000002797
   19    1        -0.0385359089
    2    2        -0.2978549641
    3    2        -0.0293439131
    4    2        -0.0000008296
    5    2         0.0000041859
    6    2         0.0365361472
    7    2        -0.0000000002
    8    2         0.0000002026
    9    2         0.0000009858
   10    2         0.0176696461
   11    2         0.0113001598
   12    2        -0.0233411149
   13    2         0.0000000000
   14    2        -0.0000001027
   15    2         0.0000000175
   16    2         0.0000000001
   17    2        -0.0000000000
   18    2        -0.0000001836
   19    2         0.0330469207
    3    3        -0.1363350061
    4    3         0.0000017272
    5    3        -0.0000087149
    6    3         0.0138253447
    7    3        -0.0000000001
    8    3         0.0000013833
    9    3         0.0000068627
   10    3         0.0145801802
   11    3         0.0244329443
   12    3        -0.0043127098
   13    3         0.0000000000
   14    3        -0.0000028029
   15    3         0.0000005544
   16    3         0.0000000001
   17    3        -0.0000000000
   18    3        -0.0000015259
   19    3         0.0148165909
    4    4        -0.1978429294
    5    4        -0.0000000003
    6    4         0.0000003760
    7    4        -0.0000003160
    8    4        -0.0413044258
    9    4         0.0000000534
   10    4         0.0000007799
   11    4         0.0000008862
   12    4        -0.0000001205
   13    4        -0.0000000137
   14    4         0.0000003714
   15    4        -0.0207064244
   16    4        -0.0000004564
   17    4        -0.0000000984
   18    4         0.0000000126
   19    4        -0.0000001500
    5    5        -0.1978463176
    6    5        -0.0000018991
    7    5        -0.0000000622
    8    5         0.0000000521
    9    5         0.0412973207
   10    5        -0.0000039572
   11    5        -0.0000042530
   12    5         0.0000006341
   13    5         0.0000000688
   14    5        -0.0207108501
   15    5        -0.0000003706
   16    5        -0.0000000888
   17    5         0.0000000097
   18    5        -0.0105121525
   19    5        -0.0000021252
    6    6        -0.1627231471
    7    6         0.0000000003
    8    6        -0.0000000786
    9    6        -0.0000003943
   10    6        -0.0035644775
   11    6        -0.0048335587
   12    6         0.0419124370
   13    6        -0.0000000001
   14    6         0.0000004019
   15    6        -0.0000000753
   16    6        -0.0000000003
   17    6         0.0000000000
   18    6         0.0000003710
   19    6        -0.0430713081
    7    7        -0.1157801513
    8    7        -0.0000002141
    9    7         0.0000000429
   10    7         0.0000000000
   11    7         0.0000000000
   12    7        -0.0000000004
   13    7        -0.0000000000
   14    7         0.0000000448
   15    7         0.0000002206
   16    7        -0.0207531816
   17    7        -0.0051478246
   18    7        -0.0000000615
   19    7         0.0000000002
    8    8        -0.1173922501
    9    8         0.0000000006
   10    8         0.0000001428
   11    8         0.0000000944
   12    8         0.0000001218
   13    8        -0.0000000028
   14    8         0.0000001889
   15    8        -0.0097772760
   16    8        -0.0000004068
   17    8        -0.0000000791
   18    8        -0.0000000107
   19    8        -0.0000000388
    9    9        -0.1173749026
   10    9         0.0000007005
   11    9         0.0000004255
   12    9         0.0000005861
   13    9        -0.0000000137
   14    9         0.0097803876
   15    9         0.0000001880
   16    9         0.0000000823
   17    9         0.0000000258
   18    9        -0.0036509275
   19    9        -0.0000012099
   10   10        -0.1045311916
   11   10         0.0040242632
   12   10         0.0081708335
   13   10         0.0000000000
   14   10        -0.0000003838
   15   10         0.0000000758
   16   10        -0.0000000001
   17   10         0.0000000000
   18   10         0.0000002488
   19   10        -0.0165445545
   11   11        -0.1073370043
   12   11         0.0046125446
   13   11         0.0000000000
   14   11        -0.0000001051
   15   11         0.0000000325
   16   11        -0.0000000002
   17   11        -0.0000000000
   18   11         0.0000003105
   19   11        -0.0091831719
   12   12        -0.1167846168
   13   12         0.0000000000
   14   12        -0.0000001898
   15   12         0.0000000354
   16   12        -0.0000000001
   17   12        -0.0000000001
   18   12        -0.0000002225
   19   12         0.0495058366
   13   13        -0.1087838906
   14   13         0.0000000071
   15   13        -0.0000000013
   16   13        -0.0000000000
   17   13        -0.0000000000
   18   13         0.0000000262
   19   13        -0.0000000001
   14   14        -0.1061014932
   15   14        -0.0000000009
   16   14        -0.0000000328
   17   14         0.0000000765
   18   14        -0.0144461635
   19   14         0.0000003021
   15   15        -0.1061095677
   16   15        -0.0000001806
   17   15         0.0000001813
   18   15        -0.0000002414
   19   15        -0.0000008437
   16   16        -0.0939152013
   17   16        -0.0058238835
   18   16        -0.0000000472
   19   16        -0.0000000001
   17   17        -0.0992618378
   18   17         0.0000000189
   19   17         0.0000000001
   18   18        -0.1021092148
   19   18         0.0000004353
   19   19        -0.1392116389
 end_one_electron_integrals

 begin_two_electron_integrals
    1    1    1    1        0.3611011656
    1    1    2    1       -0.0679220258
    1    1    3    1       -0.0097095449
    1    1    4    1       -0.0000002828
    1    1    5    1        0.0000014272
    1    1    6    1        0.0284468514
    1    1    7    1       -0.0000000002
    1    1    8    1        0.0000000809
    1    1    9    1        0.0000004361
    1    1   10    1        0.0098894182
    1    1   11    1       -0.0014494059
    1    1   12    1       -0.0268430535
    1    1   13    1        0.0000000000
    1    1   14    1       -0.0000002492
    1    1   15    1        0.0000000466
    1    1   16    1        0.0000000000
    1    1   17    1       -0.0000000001
    1    1   18    1       -0.0000002797
    1    1   19    1        0.0385334050
    1    1    2    2        0.1362536529
    1    1    3    2        0.0179482499
    1    1    4    2        0.0000005095
    1    1    5    2       -0.0000025707
    1    1    6    2       -0.0246634216
    1    1    7    2        0.0000000002
    1    1    8    2       -0.0000001280
    1    1    9    2       -0.0000006258
    1    1   10    2       -0.0113628217
    1    1   11    2       -0.0068037655
    1    1   12    2        0.0170866022
    1    1   13    2       -0.0000000000
    1    1   14    2        0.0000000894
    1    1   15    2       -0.0000000157
    1    1   16    2       -0.0000000001
    1    1   17    2        0.0000000000
    1    1   18    2        0.0000001440
    1    1   19    2       -0.0246376863
    1    1    3    3        0.0684611579
    1    1    4    3       -0.0000008908
    1    1    5    3        0.0000044949
    1    1    6    3       -0.0085790188
    1    1    7    3        0.0000000000
    1    1    8    3       -0.0000007314
    1    1    9    3       -0.0000036301
    1    1   10    3       -0.0079664646
    1    1   11    3       -0.0127293609
    1    1   12    3        0.0035187933
    1    1   13    3       -0.0000000000
    1    1   14    3        0.0000015020
    1    1   15    3       -0.0000002970
    1    1   16    3       -0.0000000001
    1    1   17    3        0.0000000000
    1    1   18    3        0.0000008457
    1    1   19    3       -0.0095008206
    1    1    4    4        0.1001737559
    1    1    5    4        0.0000000001
    1    1    6    4       -0.0000002419
    1    1    7    4        0.0000000726
    1    1    8    4        0.0215812968
    1    1    9    4       -0.0000000280
    1    1   10    4       -0.0000004132
    1    1   11    4       -0.0000004516
    1    1   12    4        0.0000001022
    1    1   13    4        0.0000000075
    1    1   14    4       -0.0000001946
    1    1   15    4        0.0108462558
    1    1   16    4        0.0000001624
    1    1   17    4       -0.0000000005
    1    1   18    4       -0.0000000067
    1    1   19    4        0.0000000411
    1    1    5    5        0.1001755407
    1    1    6    5        0.0000012210
    1    1    7    5        0.0000000140
    1    1    8    5       -0.0000000273
    1    1    9    5       -0.0215778444
    1    1   10    5        0.0000020967
    1    1   11    5        0.0000021651
    1    1   12    5       -0.0000005291
    1    1   13    5       -0.0000000374
    1    1   14    5        0.0108485774
    1    1   15    5        0.0000001941
    1    1   16    5        0.0000000312
    1    1   17    5       -0.0000000157
    1    1   18    5        0.0055730579
    1    1   19    5        0.0000013212
    1    1    6    6        0.0911691878
    1    1    7    6       -0.0000000002
    1    1    8    6        0.0000000487
    1    1    9    6        0.0000002431
    1    1   10    6        0.0030118720
    1    1   11    6        0.0031889170
    1    1   12    6       -0.0240354843
    1    1   13    6        0.0000000000
    1    1   14    6       -0.0000002023
    1    1   15    6        0.0000000376
    1    1   16    6        0.0000000001
    1    1   17    6       -0.0000000000
    1    1   18    6       -0.0000001933
    1    1   19    6        0.0261707794
    1    1    7    7        0.0666846966
    1    1    8    7        0.0000000684
    1    1    9    7       -0.0000000136
    1    1   10    7       -0.0000000000
    1    1   11    7       -0.0000000000
    1    1   12    7        0.0000000002
    1    1   13    7        0.0000000000
    1    1   14    7       -0.0000000290
    1    1   15    7       -0.0000001435
    1    1   16    7        0.0104106842
    1    1   17    7        0.0025732242
    1    1   18    7        0.0000000235
    1    1   19    7       -0.0000000001
    1    1    8    8        0.0741078376
    1    1    9    8       -0.0000000003
    1    1   10    8       -0.0000000699
    1    1   11    8       -0.0000000397
    1    1   12    8       -0.0000000693
    1    1   13    8        0.0000000005
    1    1   14    8       -0.0000001006
    1    1   15    8        0.0052092877
    1    1   16    8        0.0000001734
    1    1   17    8        0.0000000170
    1    1   18    8        0.0000000049
    1    1   19    8        0.0000000524
    1    1    9    9        0.0740989171
    1    1   10    9       -0.0000003437
    1    1   11    9       -0.0000001794
    1    1   12    9       -0.0000003362
    1    1   13    9        0.0000000022
    1    1   14    9       -0.0052092021
    1    1   15    9       -0.0000001004
    1    1   16    9       -0.0000000351
    1    1   17    9       -0.0000000078
    1    1   18    9        0.0016338840
    1    1   19    9        0.0000007178
    1    1   10   10        0.0676672005
    1    1   11   10       -0.0017154088
    1    1   12   10       -0.0051318183
    1    1   13   10       -0.0000000000
    1    1   14   10        0.0000001790
    1    1   15   10       -0.0000000354
    1    1   16   10        0.0000000001
    1    1   17   10       -0.0000000000
    1    1   18   10       -0.0000001292
    1    1   19   10        0.0098851692
    1    1   11   11        0.0701068479
    1    1   12   11       -0.0028825734
    1    1   13   11       -0.0000000000
    1    1   14   11        0.0000000301
    1    1   15   11       -0.0000000121
    1    1   16   11        0.0000000001
    1    1   17   11        0.0000000000
    1    1   18   11       -0.0000001892
    1    1   19   11        0.0055344866
    1    1   12   12        0.0794902781
    1    1   13   12       -0.0000000000
    1    1   14   12        0.0000001033
    1    1   15   12       -0.0000000194
    1    1   16   12        0.0000000001
    1    1   17   12        0.0000000001
    1    1   18   12        0.0000001298
    1    1   19   12       -0.0288682193
    1    1   13   13        0.0733746709
    1    1   14   13       -0.0000000113
    1    1   15   13        0.0000000022
    1    1   16   13        0.0000000000
    1    1   17   13        0.0000000000
    1    1   18   13       -0.0000000138
    1    1   19   13        0.0000000000
    1    1   14   14        0.0739142153
    1    1   15   14        0.0000000005
    1    1   16   14        0.0000000103
    1    1   17   14       -0.0000000443
    1    1   18   14        0.0074096102
    1    1   19   14       -0.0000001991
    1    1   15   15        0.0739183032
    1    1   16   15        0.0000000602
    1    1   17   15       -0.0000001185
    1    1   18   15        0.0000001238
    1    1   19   15        0.0000004413
    1    1   16   16        0.0696158490
    1    1   17   16        0.0029186051
    1    1   18   16        0.0000000170
    1    1   19   16        0.0000000001
    1    1   17   17        0.0756264182
    1    1   18   17       -0.0000000180
    1    1   19   17       -0.0000000001
    1    1   18   18        0.0787767776
    1    1   19   18       -0.0000002727
    1    1   19   19        0.1052700334
    2    1    2    1        0.0286366878
    2    1    3    1        0.0065619524
    2    1    4    1        0.0000001896
    2    1    5    1       -0.0000009566
    2    1    6    1       -0.0127812184
    2    1    7    1        0.0000000001
    2    1    8    1       -0.0000000533
    2    1    9    1       -0.0000002658
    2    1   10    1       -0.0050560533
    2    1   11    1       -0.0023074566
    2    1   12    1        0.0108360659
    2    1   13    1       -0.0000000000
    2    1   14    1        0.0000000761
    2    1   15    1       -0.0000000139
    2    1   16    1       -0.0000000000
    2    1   17    1        0.0000000000
    2    1   18    1        0.0000001044
    2    1   19    1       -0.0162355719
    2    1    2    2        0.0188148359
    2    1    3    2        0.0027349322
    2    1    4    2        0.0000000800
    2    1    5    2       -0.0000004031
    2    1    6    2        0.0053185758
    2    1    7    2       -0.0000000000
    2    1    8    2       -0.0000000140
    2    1    9    2       -0.0000000674
    2    1   10    2       -0.0018416944
    2    1   11    2       -0.0002332400
    2    1   12    2       -0.0065997669
    2    1   13    2        0.0000000000
    2    1   14    2       -0.0000000804
    2    1   15    2        0.0000000153
    2    1   16    2       -0.0000000000
    2    1   17    2       -0.0000000000
    2    1   18    2       -0.0000000835
    2    1   19    2        0.0085832265
    2    1    3    3        0.0052280455
    2    1    4    3       -0.0000003006
    2    1    5    3        0.0000015166
    2    1    6    3       -0.0017451225
    2    1    7    3        0.0000000000
    2    1    8    3       -0.0000001902
    2    1    9    3       -0.0000009643
    2    1   10    3       -0.0037698639
    2    1   11    3        0.0004284189
    2    1   12    3       -0.0004375802
    2    1   13    3       -0.0000000000
    2    1   14    3       -0.0000001694
    2    1   15    3        0.0000000336
    2    1   16    3       -0.0000000000
    2    1   17    3       -0.0000000000
    2    1   18    3       -0.0000003085
    2    1   19    3        0.0007428029
    2    1    4    4        0.0159172686
    2    1    5    4        0.0000000000
    2    1    6    4       -0.0000000427
    2    1    7    4        0.0000000537
    2    1    8    4        0.0060035774
    2    1    9    4       -0.0000000076
    2    1   10    4       -0.0000001564
    2    1   11    4       -0.0000000293
    2    1   12    4       -0.0000000187
    2    1   13    4        0.0000000085
    2    1   14    4        0.0000000190
    2    1   15    4       -0.0010742749
    2    1   16    4        0.0000000602
    2    1   17    4        0.0000001065
    2    1   18    4        0.0000000028
    2    1   19    4       -0.0000000858
    2    1    5    5        0.0159173596
    2    1    6    5        0.0000002157
    2    1    7    5        0.0000000107
    2    1    8    5       -0.0000000076
    2    1    9    5       -0.0060033387
    2    1   10    5        0.0000007922
    2    1   11    5        0.0000001165
    2    1   12    5        0.0000000900
    2    1   13    5       -0.0000000423
    2    1   14    5       -0.0010723451
    2    1   15    5       -0.0000000196
    2    1   16    5        0.0000000125
    2    1   17    5        0.0000000270
    2    1   18    5       -0.0020574870
    2    1   19    5       -0.0000001368
    2    1    6    6        0.0059131241
    2    1    7    6       -0.0000000000
    2    1    8    6        0.0000000141
    2    1    9    6        0.0000000551
    2    1   10    6       -0.0003020280
    2    1   11    6        0.0032741916
    2    1   12    6       -0.0020110188
    2    1   13    6       -0.0000000000
    2    1   14    6        0.0000000538
    2    1   15    6       -0.0000000110
    2    1   16    6        0.0000000000
    2    1   17    6       -0.0000000000
    2    1   18    6        0.0000000086
    2    1   19    6        0.0001946892
    2    1    7    7        0.0044209020
    2    1    8    7        0.0000000396
    2    1    9    7       -0.0000000078
    2    1   10    7       -0.0000000000
    2    1   11    7       -0.0000000000
    2    1   12    7        0.0000000000
    2    1   13    7        0.0000000000
    2    1   14    7        0.0000000039
    2    1   15    7        0.0000000195
    2    1   16    7       -0.0002086184
    2    1   17    7       -0.0035419751
    2    1   18    7       -0.0000000209
    2    1   19    7       -0.0000000000
    2    1    8    8        0.0070524761
    2    1    9    8       -0.0000000001
    2    1   10    8       -0.0000000366
    2    1   11    8       -0.0000000056
    2    1   12    8        0.0000000074
    2    1   13    8       -0.0000000080
    2    1   14    8       -0.0000000350
    2    1   15    8        0.0018293440
    2    1   16    8        0.0000000375
    2    1   17    8       -0.0000000059
    2    1   18    8       -0.0000000056
    2    1   19    8        0.0000001296
    2    1    9    9        0.0070515642
    2    1   10    9       -0.0000001994
    2    1   11    9        0.0000000032
    2    1   12    9        0.0000000507
    2    1   13    9       -0.0000000397
    2    1   14    9       -0.0018277655
    2    1   15    9       -0.0000000351
    2    1   16    9       -0.0000000070
    2    1   17    9        0.0000000075
    2    1   18    9       -0.0022485422
    2    1   19    9        0.0000000313
    2    1   10   10        0.0017529020
    2    1   11   10        0.0020757026
    2    1   12   10        0.0020652370
    2    1   13   10       -0.0000000000
    2    1   14   10        0.0000001067
    2    1   15   10       -0.0000000208
    2    1   16   10        0.0000000000
    2    1   17   10        0.0000000000
    2    1   18   10        0.0000001583
    2    1   19   10       -0.0002473322
    2    1   11   11        0.0015668281
    2    1   12   11       -0.0020414984
    2    1   13   11        0.0000000000
    2    1   14   11       -0.0000000168
    2    1   15   11        0.0000000014
    2    1   16   11        0.0000000000
    2    1   17   11       -0.0000000000
    2    1   18   11        0.0000000101
    2    1   19   11        0.0010201743
    2    1   12   12        0.0029896212
    2    1   13   12        0.0000000000
    2    1   14   12        0.0000000244
    2    1   15   12       -0.0000000054
    2    1   16   12       -0.0000000000
    2    1   17   12       -0.0000000000
    2    1   18   12        0.0000000196
    2    1   19   12       -0.0000212727
    2    1   13   13        0.0067594074
    2    1   14   13       -0.0000000196
    2    1   15   13        0.0000000039
    2    1   16   13       -0.0000000000
    2    1   17   13       -0.0000000000
    2    1   18   13        0.0000000207
    2    1   19   13       -0.0000000000
    2    1   14   14        0.0043770486
    2    1   15   14       -0.0000000002
    2    1   16   14        0.0000000030
    2    1   17   14        0.0000000054
    2    1   18   14       -0.0011814856
    2    1   19   14       -0.0000000251
    2    1   15   15        0.0043754683
    2    1   16   15        0.0000000139
    2    1   17   15        0.0000000109
    2    1   18   15       -0.0000000197
    2    1   19   15       -0.0000000601
    2    1   16   16        0.0022208133
    2    1   17   16       -0.0003116898
    2    1   18   16        0.0000000026
    2    1   19   16        0.0000000000
    2    1   17   17       -0.0015724405
    2    1   18   17       -0.0000000022
    2    1   19   17       -0.0000000000
    2    1   18   18       -0.0020614339
    2    1   19   18       -0.0000000297
    2    1   19   19        0.0026327888
    3    1    3    1        0.0019077424
    3    1    4    1       -0.0000000499
    3    1    5    1        0.0000002505
    3    1    6    1       -0.0033362382
    3    1    7    1        0.0000000000
    3    1    8    1       -0.0000000791
    3    1    9    1       -0.0000003956
    3    1   10    1       -0.0013410205
    3    1   11    1       -0.0010230785
    3    1   12    1        0.0027175500
    3    1   13    1       -0.0000000000
    3    1   14    1        0.0000002010
    3    1   15    1       -0.0000000396
    3    1   16    1       -0.0000000000
    3    1   17    1        0.0000000000
    3    1   18    1        0.0000001655
    3    1   19    1       -0.0041929055
    3    1    2    2        0.0077734002
    3    1    3    2        0.0017800570
    3    1    4    2       -0.0000002314
    3    1    5    2        0.0000011641
    3    1    6    2        0.0000633999
    3    1    7    2       -0.0000000000
    3    1    8    2       -0.0000001362
    3    1    9    2       -0.0000006835
    3    1   10    2       -0.0011955893
    3    1   11    2       -0.0006467887
    3    1   12    2       -0.0009377932
    3    1   13    2       -0.0000000000
    3    1   14    2        0.0000000497
    3    1   15    2       -0.0000000099
    3    1   16    2       -0.0000000000
    3    1   17    2       -0.0000000000
    3    1   18    2       -0.0000000797
    3    1   19    2        0.0011370556
    3    1    3    3        0.0016071552
    3    1    4    3       -0.0000000383
    3    1    5    3        0.0000001969
    3    1    6    3       -0.0007202906
    3    1    7    3        0.0000000000
    3    1    8    3       -0.0000002507
    3    1    9    3       -0.0000012600
    3    1   10    3       -0.0011992041
    3    1   11    3       -0.0002670438
    3    1   12    3        0.0002079964
    3    1   13    3        0.0000000003
    3    1   14    3        0.0000001797
    3    1   15    3       -0.0000000356
    3    1   16    3       -0.0000000000
    3    1   17    3        0.0000000000
    3    1   18    3       -0.0000000778
    3    1   19    3       -0.0004246606
    3    1    4    4        0.0056427279
    3    1    5    4        0.0000000000
    3    1    6    4        0.0000000801
    3    1    7    4        0.0000006677
    3    1    8    4        0.0027778032
    3    1    9    4       -0.0000000036
    3    1   10    4       -0.0000001167
    3    1   11    4       -0.0000000175
    3    1   12    4       -0.0000000649
    3    1   13    4       -0.0000001841
    3    1   14    4       -0.0000000082
    3    1   15    4        0.0004528456
    3    1   16    4        0.0000003276
    3    1   17    4       -0.0000002179
    3    1   18    4        0.0000000004
    3    1   19    4       -0.0000000012
    3    1    5    5        0.0056428559
    3    1    6    5       -0.0000004024
    3    1    7    5        0.0000001341
    3    1    8    5       -0.0000000035
    3    1    9    5       -0.0027774814
    3    1   10    5        0.0000005880
    3    1   11    5        0.0000000733
    3    1   12    5        0.0000003244
    3    1   13    5        0.0000009154
    3    1   14    5        0.0004534568
    3    1   15    5        0.0000000081
    3    1   16    5        0.0000000660
    3    1   17    5       -0.0000000431
    3    1   18    5       -0.0002821069
    3    1   19    5       -0.0000000734
    3    1    6    6        0.0023051099
    3    1    7    6       -0.0000000000
    3    1    8    6        0.0000000457
    3    1    9    6        0.0000002264
    3    1   10    6        0.0001501413
    3    1   11    6        0.0009763875
    3    1   12    6       -0.0013143756
    3    1   13    6        0.0000000001
    3    1   14    6       -0.0000009108
    3    1   15    6        0.0000001813
    3    1   16    6        0.0000000000
    3    1   17    6       -0.0000000000
    3    1   18    6       -0.0000001464
    3    1   19    6        0.0014426164
    3    1    7    7        0.0011266287
    3    1    8    7        0.0000001273
    3    1    9    7       -0.0000000256
    3    1   10    7       -0.0000000000
    3    1   11    7       -0.0000000000
    3    1   12    7        0.0000000000
    3    1   13    7        0.0000000000
    3    1   14    7       -0.0000000667
    3    1   15    7       -0.0000003321
    3    1   16    7        0.0002288578
    3    1   17    7       -0.0007753158
    3    1   18    7        0.0000000475
    3    1   19    7       -0.0000000000
    3    1    8    8        0.0025463002
    3    1    9    8       -0.0000000001
    3    1   10    8       -0.0000000241
    3    1   11    8       -0.0000000119
    3    1   12    8       -0.0000000591
    3    1   13    8        0.0000001231
    3    1   14    8       -0.0000000136
    3    1   15    8        0.0007064035
    3    1   16    8        0.0000003104
    3    1   17    8       -0.0000000682
    3    1   18    8       -0.0000000015
    3    1   19    8        0.0000000584
    3    1    9    9        0.0025457536
    3    1   10    9       -0.0000001249
    3    1   11    9       -0.0000000485
    3    1   12    9       -0.0000002925
    3    1   13    9        0.0000006141
    3    1   14    9       -0.0007060860
    3    1   15    9       -0.0000000135
    3    1   16    9       -0.0000000622
    3    1   17    9        0.0000000155
    3    1   18    9       -0.0006186007
    3    1   19    9        0.0000001221
    3    1   10   10        0.0007393884
    3    1   11   10        0.0006374554
    3    1   12   10        0.0003411796
    3    1   13   10       -0.0000000001
    3    1   14   10        0.0000000017
    3    1   15   10       -0.0000000002
    3    1   16   10        0.0000000000
    3    1   17   10        0.0000000000
    3    1   18   10       -0.0000004599
    3    1   19   10        0.0002480553
    3    1   11   11        0.0007070810
    3    1   12   11       -0.0007251472
    3    1   13   11        0.0000000000
    3    1   14   11        0.0000003045
    3    1   15   11       -0.0000000617
    3    1   16   11        0.0000000000
    3    1   17   11       -0.0000000000
    3    1   18   11        0.0000006106
    3    1   19   11        0.0008252764
    3    1   12   12        0.0015116735
    3    1   13   12        0.0000000001
    3    1   14   12       -0.0000001748
    3    1   15   12        0.0000000350
    3    1   16   12       -0.0000000000
    3    1   17   12       -0.0000000000
    3    1   18   12        0.0000004074
    3    1   19   12       -0.0011935966
    3    1   13   13        0.0018025196
    3    1   14   13        0.0000004312
    3    1   15   13       -0.0000000866
    3    1   16   13        0.0000000000
    3    1   17   13        0.0000000000
    3    1   18   13       -0.0000002667
    3    1   19   13        0.0000000000
    3    1   14   14        0.0012838251
    3    1   15   14        0.0000000000
    3    1   16   14        0.0000000714
    3    1   17   14        0.0000000301
    3    1   18   14       -0.0000367560
    3    1   19   14       -0.0000002381
    3    1   15   15        0.0012835586
    3    1   16   15        0.0000003559
    3    1   17   15        0.0000001494
    3    1   18   15       -0.0000000006
    3    1   19   15        0.0000000450
    3    1   16   16        0.0007390700
    3    1   17   16       -0.0000238337
    3    1   18   16        0.0000000192
    3    1   19   16        0.0000000000
    3    1   17   17       -0.0001563498
    3    1   18   17        0.0000000474
    3    1   19   17        0.0000000000
    3    1   18   18       -0.0002171505
    3    1   19   18       -0.0000001023
    3    1   19   19        0.0024304207
    4    1    4    1        0.0028959103
    4    1    5    1        0.0000000000
    4    1    6    1       -0.0000001161
    4    1    7    1       -0.0000001704
    4    1    8    1        0.0018684310
    4    1    9    1       -0.0000000024
    4    1   10    1       -0.0000000471
    4    1   11    1       -0.0000000172
    4    1   12    1        0.0000000840
    4    1   13    1        0.0000000012
    4    1   14    1       -0.0000000177
    4    1   15    1        0.0009859838
    4    1   16    1       -0.0000001316
    4    1   17    1       -0.0000000994
    4    1   18    1       -0.0000000008
    4    1   19    1       -0.0000000677
    4    1    2    2        0.0000002468
    4    1    3    2       -0.0000004857
    4    1    4    2        0.0074507502
    4    1    5    2        0.0000000001
    4    1    6    2       -0.0000001991
    4    1    7    2       -0.0000022066
    4    1    8    2        0.0038819285
    4    1    9    2       -0.0000000050
    4    1   10    2        0.0000000806
    4    1   11    2       -0.0000000642
    4    1   12    2       -0.0000000135
    4    1   13    2        0.0000000037
    4    1   14    2       -0.0000000108
    4    1   15    2        0.0005993633
    4    1   16    2       -0.0000006385
    4    1   17    2        0.0000003710
    4    1   18    2        0.0000000004
    4    1   19    2        0.0000001910
    4    1    3    3        0.0000046111
    4    1    4    3       -0.0000601305
    4    1    5    3       -0.0000000006
    4    1    6    3        0.0000027728
    4    1    7    3        0.0000246819
    4    1    8    3        0.0024717885
    4    1    9    3       -0.0000000029
    4    1   10    3        0.0000002712
    4    1   11    3        0.0000007373
    4    1   12    3        0.0000010811
    4    1   13    3       -0.0000001062
    4    1   14    3       -0.0000000111
    4    1   15    3        0.0006335321
    4    1   16    3        0.0000023382
    4    1   17    3        0.0000020839
    4    1   18    3       -0.0000000001
    4    1   19    3       -0.0000012456
    4    1    4    4       -0.0000000031
    4    1    5    4        0.0000008253
    4    1    6    4       -0.0022175139
    4    1    7    4       -0.0007897181
    4    1    8    4        0.0000008345
    4    1    9    4        0.0000034436
    4    1   10    4        0.0005489492
    4    1   11    4       -0.0004405440
    4    1   12    4        0.0015735037
    4    1   13    4       -0.0031673696
    4    1   14    4        0.0000029973
    4    1   15    4       -0.0000005687
    4    1   16    4       -0.0004576522
    4    1   17    4        0.0003716440
    4    1   18    4       -0.0000013623
    4    1   19    4       -0.0009785257
    4    1    5    5        0.0000006880
    4    1    6    5       -0.0000000004
    4    1    7    5        0.0018942429
    4    1    8    5       -0.0000037471
    4    1    9    5        0.0000020916
    4    1   10    5       -0.0000000001
    4    1   11    5       -0.0000000001
    4    1   12    5       -0.0000000001
    4    1   13    5       -0.0013204925
    4    1   14    5        0.0000018999
    4    1   15    5        0.0000028673
    4    1   16    5        0.0010977752
    4    1   17    5       -0.0008914042
    4    1   18    5       -0.0000008793
    4    1   19    5        0.0000000001
    4    1    6    6        0.0000029722
    4    1    7    6        0.0000133347
    4    1    8    6       -0.0015150523
    4    1    9    6        0.0000000021
    4    1   10    6       -0.0000002034
    4    1   11    6       -0.0000015092
    4    1   12    6        0.0000022902
    4    1   13    6       -0.0000000035
    4    1   14    6        0.0000000533
    4    1   15    6       -0.0029682472
    4    1   16    6        0.0000141859
    4    1   17    6        0.0000044186
    4    1   18    6        0.0000000007
    4    1   19    6       -0.0000002895
    4    1    7    7        0.0000071801
    4    1    8    7       -0.0002753641
    4    1    9    7       -0.0006606653
    4    1   10    7       -0.0000082399
    4    1   11    7       -0.0000004634
    4    1   12    7       -0.0000086229
    4    1   13    7       -0.0000000163
    4    1   14    7       -0.0006878443
    4    1   15    7        0.0002867614
    4    1   16    7        0.0000013753
    4    1   17    7        0.0000003145
    4    1   18    7        0.0005577096
    4    1   19    7       -0.0000152378
    4    1    8    8       -0.0000029065
    4    1    9    8       -0.0000148089
    4    1   10    8       -0.0004350435
    4    1   11    8       -0.0004369655
    4    1   12    8        0.0011590896
    4    1   13    8        0.0007854286
    4    1   14    8       -0.0000111858
    4    1   15    8        0.0000022640
    4    1   16    8       -0.0003763757
    4    1   17    8        0.0001302323
    4    1   18    8        0.0000044192
    4    1   19    8       -0.0008510579
    4    1    9    9        0.0000094534
    4    1   10    9        0.0000000006
    4    1   11    9        0.0000000006
    4    1   12    9       -0.0000000013
    4    1   13    9       -0.0003276179
    4    1   14    9        0.0000070733
    4    1   15    9        0.0000111848
    4    1   16    9       -0.0009024104
    4    1   17    9        0.0003123833
    4    1   18    9       -0.0000028160
    4    1   19    9        0.0000000009
    4    1   10   10        0.0000056760
    4    1   11   10       -0.0000000627
    4    1   12   10        0.0000009097
    4    1   13   10        0.0000000107
    4    1   14   10        0.0000000032
    4    1   15   10       -0.0001916106
    4    1   16   10       -0.0000123601
    4    1   17   10        0.0000173213
    4    1   18   10        0.0000000015
    4    1   19   10       -0.0000001624
    4    1   11   11        0.0000064391
    4    1   12   11        0.0000002618
    4    1   13   11        0.0000000005
    4    1   14   11       -0.0000000067
    4    1   15   11        0.0003802915
    4    1   16   11       -0.0000203713
    4    1   17   11       -0.0000187690
    4    1   18   11       -0.0000000018
    4    1   19   11        0.0000010124
    4    1   12   12        0.0000069265
    4    1   13   12       -0.0000000005
    4    1   14   12       -0.0000000065
    4    1   15   12        0.0003708887
    4    1   16   12        0.0000063777
    4    1   17   12       -0.0000055080
    4    1   18   12       -0.0000000014
    4    1   19   12        0.0000032800
    4    1   13   13        0.0000000515
    4    1   14   13       -0.0004308514
    4    1   15   13       -0.0010333883
    4    1   16   13       -0.0000000231
    4    1   17   13       -0.0000000197
    4    1   18   13        0.0002730271
    4    1   19   13        0.0000000335
    4    1   14   14        0.0000086095
    4    1   15   14        0.0000135225
    4    1   16   14        0.0007220627
    4    1   17   14        0.0003801878
    4    1   18   14       -0.0000009992
    4    1   19   14        0.0000000200
    4    1   15   15       -0.0000026702
    4    1   16   15       -0.0003009865
    4    1   17   15       -0.0001585845
    4    1   18   15       -0.0000015732
    4    1   19   15       -0.0011140460
    4    1   16   16        0.0000074236
    4    1   17   16        0.0000010649
    4    1   18   16        0.0002933605
    4    1   19   16       -0.0000042979
    4    1   17   17        0.0000072901
    4    1   18   17        0.0003732891
    4    1   19   17       -0.0000003371
    4    1   18   18        0.0000090454
    4    1   19   18        0.0000000016
    4    1   19   19        0.0000040717
    5    1    5    1        0.0028960915
    5    1    6    1        0.0000005851
    5    1    7    1       -0.0000000342
    5    1    8    1       -0.0000000024
    5    1    9    1       -0.0018681289
    5    1   10    1        0.0000002388
    5    1   11    1        0.0000000777
    5    1   12    1       -0.0000004247
    5    1   13    1       -0.0000000060
    5    1   14    1        0.0009860674
    5    1   15    1        0.0000000177
    5    1   16    1       -0.0000000265
    5    1   17    1       -0.0000000217
    5    1   18    1        0.0006341771
    5    1   19    1        0.0000005163
    5    1    2    2       -0.0000012438
    5    1    3    2        0.0000024348
    5    1    4    2        0.0000000001
    5    1    5    2        0.0074510193
    5    1    6    2        0.0000009951
    5    1    7    2       -0.0000004416
    5    1    8    2       -0.0000000049
    5    1    9    2       -0.0038814884
    5    1   10    2       -0.0000003975
    5    1   11    2        0.0000003028
    5    1   12    2        0.0000000661
    5    1   13    2       -0.0000000182
    5    1   14    2        0.0006001521
    5    1   15    2        0.0000000106
    5    1   16    2       -0.0000001277
    5    1   17    2        0.0000000749
    5    1   18    2       -0.0002448372
    5    1   19    2       -0.0000010249
    5    1    3    3       -0.0000230462
    5    1    4    3       -0.0000000006
    5    1    5    3       -0.0000600429
    5    1    6    3       -0.0000138590
    5    1    7    3        0.0000049397
    5    1    8    3       -0.0000000034
    5    1    9    3       -0.0024715525
    5    1   10    3       -0.0000013507
    5    1   11    3       -0.0000036972
    5    1   12    3       -0.0000054027
    5    1   13    3        0.0000005263
    5    1   14    3        0.0006339128
    5    1   15    3        0.0000000116
    5    1   16    3        0.0000004682
    5    1   17    3        0.0000004166
    5    1   18    3        0.0000766760
    5    1   19    3        0.0000062436
    5    1    4    4       -0.0000017816
    5    1    5    4        0.0000001680
    5    1    6    4       -0.0000000004
    5    1    7    4        0.0018942601
    5    1    8    4        0.0000035834
    5    1    9    4        0.0000006244
    5    1   10    4       -0.0000000001
    5    1   11    4       -0.0000000001
    5    1   12    4       -0.0000000001
    5    1   13    4       -0.0013205424
    5    1   14    4        0.0000006218
    5    1   15    4       -0.0000035221
    5    1   16    4        0.0010977568
    5    1   17    4       -0.0008914363
    5    1   18    4       -0.0000002786
    5    1   19    4        0.0000000003
    5    1    5    5       -0.0000016566
    5    1    6    5       -0.0022176815
    5    1    7    5        0.0007897524
    5    1    8    5       -0.0000006849
    5    1    9    5       -0.0000026849
    5    1   10    5        0.0005488660
    5    1   11    5       -0.0004405159
    5    1   12    5        0.0015736570
    5    1   13    5        0.0031673919
    5    1   14    5       -0.0000031333
    5    1   15    5        0.0000005960
    5    1   16    5        0.0004576903
    5    1   17    5       -0.0003716427
    5    1   18    5        0.0000014187
    5    1   19    5       -0.0009786446
    5    1    6    6       -0.0000148567
    5    1    7    6        0.0000026685
    5    1    8    6        0.0000000019
    5    1    9    6        0.0015141239
    5    1   10    6        0.0000010147
    5    1   11    6        0.0000075488
    5    1   12    6       -0.0000114413
    5    1   13    6        0.0000000176
    5    1   14    6       -0.0029684040
    5    1   15    6       -0.0000000533
    5    1   16    6        0.0000028390
    5    1   17    6        0.0000008858
    5    1   18    6       -0.0005570375
    5    1   19    6        0.0000012938
    5    1    7    7       -0.0000358838
    5    1    8    7        0.0006605015
    5    1    9    7       -0.0002754474
    5    1   10    7       -0.0000016487
    5    1   11    7       -0.0000000936
    5    1   12    7       -0.0000017255
    5    1   13    7       -0.0000000032
    5    1   14    7       -0.0002867592
    5    1   15    7       -0.0006878666
    5    1   16    7       -0.0000068741
    5    1   17    7       -0.0000015792
    5    1   18    7        0.0002325228
    5    1   19    7       -0.0000030161
    5    1    8    8       -0.0000175646
    5    1    9    8       -0.0000029720
    5    1   10    8        0.0000000005
    5    1   11    8        0.0000000005
    5    1   12    8       -0.0000000016
    5    1   13    8        0.0003274626
    5    1   14    8       -0.0000022479
    5    1   15    8        0.0000129284
    5    1   16    8        0.0009027947
    5    1   17    8       -0.0003123791
    5    1   18    8        0.0000008829
    5    1   19    8        0.0000000008
    5    1    9    9       -0.0000151433
    5    1   10    9        0.0004351164
    5    1   11    9        0.0004365908
    5    1   12    9       -0.0011590187
    5    1   13    9        0.0007858360
    5    1   14    9       -0.0000111066
    5    1   15    9        0.0000022476
    5    1   16    9       -0.0003762378
    5    1   17    9        0.0001302392
    5    1   18    9        0.0000044755
    5    1   19    9        0.0008508211
    5    1   10   10       -0.0000283677
    5    1   11   10        0.0000003146
    5    1   12   10       -0.0000045458
    5    1   13   10       -0.0000000525
    5    1   14   10       -0.0001910322
    5    1   15   10       -0.0000000036
    5    1   16   10       -0.0000024730
    5    1   17   10        0.0000034692
    5    1   18   10       -0.0010619722
    5    1   19   10        0.0000005221
    5    1   11   11       -0.0000321765
    5    1   12   11       -0.0000013123
    5    1   13   11       -0.0000000069
    5    1   14   11        0.0003798375
    5    1   15   11        0.0000000068
    5    1   16   11       -0.0000040779
    5    1   17   11       -0.0000037592
    5    1   18   11        0.0012473348
    5    1   19   11       -0.0000047145
    5    1   12   12       -0.0000346170
    5    1   13   12        0.0000000033
    5    1   14   12        0.0003706758
    5    1   15   12        0.0000000067
    5    1   16   12        0.0000012759
    5    1   17   12       -0.0000011051
    5    1   18   12        0.0010240062
    5    1   19   12       -0.0000161101
    5    1   13   13       -0.0000002598
    5    1   14   13        0.0010335303
    5    1   15   13       -0.0004308270
    5    1   16   13       -0.0000000045
    5    1   17   13       -0.0000000020
    5    1   18   13       -0.0006548793
    5    1   19   13        0.0000000265
    5    1   14   14       -0.0000137294
    5    1   15   14        0.0000027120
    5    1   16   14        0.0003010305
    5    1   17   14        0.0001584988
    5    1   18   14        0.0000015958
    5    1   19   14       -0.0011139125
    5    1   15   15       -0.0000159628
    5    1   16   15        0.0007220024
    5    1   17   15        0.0003804036
    5    1   18   15       -0.0000003115
    5    1   19   15       -0.0000000198
    5    1   16   16       -0.0000371007
    5    1   17   16       -0.0000053268
    5    1   18   16        0.0001223108
    5    1   19   16       -0.0000008426
    5    1   17   17       -0.0000364432
    5    1   18   17        0.0001556376
    5    1   19   17       -0.0000000434
    5    1   18   18       -0.0000142609
    5    1   19   18       -0.0007000439
    5    1   19   19       -0.0000207322
    6    1    6    1        0.0071107811
    6    1    7    1       -0.0000000000
    6    1    8    1        0.0000000189
    6    1    9    1        0.0000000923
    6    1   10    1        0.0024659321
    6    1   11    1        0.0015447373
    6    1   12    1       -0.0061614199
    6    1   13    1       -0.0000000000
    6    1   14    1       -0.0000000028
    6    1   15    1       -0.0000000002
    6    1   16    1        0.0000000000
    6    1   17    1       -0.0000000000
    6    1   18    1       -0.0000000156
    6    1   19    1        0.0092663648
    6    1    2    2       -0.0042712130
    6    1    3    2       -0.0011770341
    6    1    4    2       -0.0000000931
    6    1    5    2        0.0000004666
    6    1    6    2        0.0001617629
    6    1    7    2       -0.0000000000
    6    1    8    2       -0.0000000056
    6    1    9    2       -0.0000000325
    6    1   10    2        0.0004835112
    6    1   11    2        0.0009035423
    6    1   12    2        0.0006746181
    6    1   13    2       -0.0000000000
    6    1   14    2        0.0000000181
    6    1   15    2       -0.0000000035
    6    1   16    2        0.0000000000
    6    1   17    2        0.0000000000
    6    1   18    2       -0.0000000079
    6    1   19    2       -0.0013289071
    6    1    3    3       -0.0016556636
    6    1    4    3        0.0000001827
    6    1    5    3       -0.0000009191
    6    1    6    3        0.0001572647
    6    1    7    3       -0.0000000000
    6    1    8    3        0.0000000220
    6    1    9    3        0.0000001145
    6    1   10    3        0.0013692032
    6    1   11    3        0.0001428107
    6    1   12    3       -0.0003221817
    6    1   13    3        0.0000000002
    6    1   14    3       -0.0000001977
    6    1   15    3        0.0000000392
    6    1   16    3        0.0000000000
    6    1   17    3        0.0000000000
    6    1   18    3       -0.0000000176
    6    1   19    3        0.0007919377
    6    1    4    4       -0.0060945147
    6    1    5    4       -0.0000000000
    6    1    6    4        0.0000000402
    6    1    7    4        0.0000002764
    6    1    8    4       -0.0029994284
    6    1    9    4        0.0000000039
    6    1   10    4        0.0000000273
    6    1   11    4        0.0000000088
    6    1   12    4       -0.0000000275
    6    1   13    4       -0.0000000745
    6    1   14    4        0.0000000210
    6    1   15    4       -0.0011610330
    6    1   16    4        0.0000001107
    6    1   17    4       -0.0000001038
    6    1   18    4       -0.0000000005
    6    1   19    4        0.0000000338
    6    1    5    5       -0.0060946610
    6    1    6    5       -0.0000002010
    6    1    7    5        0.0000000553
    6    1    8    5        0.0000000038
    6    1    9    5        0.0029988651
    6    1   10    5       -0.0000001412
    6    1   11    5       -0.0000000294
    6    1   12    5        0.0000001404
    6    1   13    5        0.0000003723
    6    1   14    5       -0.0011617060
    6    1   15    5       -0.0000000207
    6    1   16    5        0.0000000221
    6    1   17    5       -0.0000000216
    6    1   18    5        0.0002888263
    6    1   19    5       -0.0000000893
    6    1    6    6       -0.0016453529
    6    1    7    6       -0.0000000000
    6    1    8    6       -0.0000000074
    6    1    9    6       -0.0000000354
    6    1   10    6        0.0001579747
    6    1   11    6       -0.0004268699
    6    1   12    6        0.0006913951
    6    1   13    6        0.0000000001
    6    1   14    6       -0.0000004270
    6    1   15    6        0.0000000855
    6    1   16    6       -0.0000000000
    6    1   17    6        0.0000000000
    6    1   18    6       -0.0000000767
    6    1   19    6       -0.0012625771
    6    1    7    7       -0.0016745524
    6    1    8    7        0.0000000220
    6    1    9    7       -0.0000000045
    6    1   10    7        0.0000000000
    6    1   11    7        0.0000000000
    6    1   12    7       -0.0000000000
    6    1   13    7       -0.0000000000
    6    1   14    7       -0.0000000288
    6    1   15    7       -0.0000001440
    6    1   16    7       -0.0007330537
    6    1   17    7        0.0010132885
    6    1   18    7        0.0000000349
    6    1   19    7        0.0000000000
    6    1    8    8       -0.0028894304
    6    1    9    8       -0.0000000000
    6    1   10    8       -0.0000000051
    6    1   11    8       -0.0000000080
    6    1   12    8       -0.0000000272
    6    1   13    8        0.0000000794
    6    1   14    8        0.0000000118
    6    1   15    8       -0.0006175959
    6    1   16    8        0.0000001009
    6    1   17    8       -0.0000000104
    6    1   18    8        0.0000000026
    6    1   19    8       -0.0000000726
    6    1    9    9       -0.0028890176
    6    1   10    9       -0.0000000192
    6    1   11    9       -0.0000000516
    6    1   12    9       -0.0000001400
    6    1   13    9        0.0000003968
    6    1   14    9        0.0006171599
    6    1   15    9        0.0000000119
    6    1   16    9       -0.0000000204
    6    1   17    9       -0.0000000008
    6    1   18    9        0.0010348748
    6    1   19    9       -0.0000000763
    6    1   10   10       -0.0008270048
    6    1   11   10       -0.0007719475
    6    1   12   10       -0.0005507377
    6    1   13   10       -0.0000000000
    6    1   14   10       -0.0000000382
    6    1   15   10        0.0000000075
    6    1   16   10       -0.0000000000
    6    1   17   10       -0.0000000000
    6    1   18   10       -0.0000003662
    6    1   19   10       -0.0003287719
    6    1   11   11       -0.0008545659
    6    1   12   11        0.0006333620
    6    1   13   11       -0.0000000000
    6    1   14   11        0.0000002387
    6    1   15   11       -0.0000000471
    6    1   16   11       -0.0000000000
    6    1   17   11        0.0000000000
    6    1   18   11        0.0000003985
    6    1   19   11       -0.0011554820
    6    1   12   12       -0.0011708452
    6    1   13   12        0.0000000001
    6    1   14   12       -0.0000001918
    6    1   15   12        0.0000000384
    6    1   16   12        0.0000000000
    6    1   17   12        0.0000000000
    6    1   18   12        0.0000002021
    6    1   19   12        0.0003221639
    6    1   13   13       -0.0023807753
    6    1   14   13        0.0000002752
    6    1   15   13       -0.0000000551
    6    1   16   13        0.0000000000
    6    1   17   13        0.0000000000
    6    1   18   13       -0.0000001139
    6    1   19   13        0.0000000000
    6    1   14   14       -0.0015818212
    6    1   15   14        0.0000000001
    6    1   16   14        0.0000000354
    6    1   17   14        0.0000000154
    6    1   18   14       -0.0000874976
    6    1   19   14       -0.0000000622
    6    1   15   15       -0.0015816440
    6    1   16   15        0.0000001768
    6    1   17   15        0.0000000757
    6    1   18   15       -0.0000000014
    6    1   19   15        0.0000000078
    6    1   16   16       -0.0013270711
    6    1   17   16       -0.0001203557
    6    1   18   16        0.0000000100
    6    1   19   16       -0.0000000000
    6    1   17   17        0.0001202039
    6    1   18   17        0.0000000337
    6    1   19   17        0.0000000000
    6    1   18   18        0.0003076326
    6    1   19   18        0.0000000348
    6    1   19   19       -0.0013374902
    7    1    7    1        0.0000656005
    7    1    8    1       -0.0000000778
    7    1    9    1        0.0000000156
    7    1   10    1       -0.0000000000
    7    1   11    1       -0.0000000000
    7    1   12    1        0.0000000000
    7    1   13    1        0.0000000000
    7    1   14    1       -0.0000000134
    7    1   15    1       -0.0000000667
    7    1   16    1        0.0000699856
    7    1   17    1       -0.0000044046
    7    1   18    1       -0.0000000146
    7    1   19    1       -0.0000000001
    7    1    2    2        0.0000000000
    7    1    3    2        0.0000000000
    7    1    4    2       -0.0000005311
    7    1    5    2       -0.0000001064
    7    1    6    2        0.0000000000
    7    1    7    2        0.0002273154
    7    1    8    2       -0.0000001071
    7    1    9    2        0.0000000215
    7    1   10    2       -0.0000000000
    7    1   11    2       -0.0000000000
    7    1   12    2       -0.0000000000
    7    1   13    2        0.0000000000
    7    1   14    2        0.0000000048
    7    1   15    2        0.0000000240
    7    1   16    2        0.0001360240
    7    1   17    2       -0.0001334712
    7    1   18    2        0.0000000075
    7    1   19    2        0.0000000000
    7    1    3    3        0.0000000000
    7    1    4    3        0.0000006168
    7    1    5    3        0.0000001236
    7    1    6    3       -0.0000000000
    7    1    7    3       -0.0003241849
    7    1    8    3       -0.0000006080
    7    1    9    3        0.0000001216
    7    1   10    3       -0.0000000000
    7    1   11    3        0.0000000000
    7    1   12    3        0.0000000000
    7    1   13    3        0.0000000000
    7    1   14    3       -0.0000000136
    7    1   15    3       -0.0000000679
    7    1   16    3       -0.0000470479
    7    1   17    3        0.0000445410
    7    1   18    3        0.0000000180
    7    1   19    3       -0.0000000000
    7    1    4    4       -0.0002164441
    7    1    5    4        0.0005191709
    7    1    6    4        0.0000002709
    7    1    7    4        0.0000001011
    7    1    8    4       -0.0001116961
    7    1    9    4       -0.0002679022
    7    1   10    4       -0.0000003242
    7    1   11    4       -0.0000000516
    7    1   12    4       -0.0000002003
    7    1   13    4        0.0000006309
    7    1   14    4       -0.0000454019
    7    1   15    4        0.0000189408
    7    1   16    4        0.0000000411
    7    1   17    4       -0.0000000318
    7    1   18    4        0.0000751015
    7    1   19    4       -0.0000000425
    7    1    5    5        0.0002164526
    7    1    6    5        0.0000000543
    7    1    7    5       -0.0000005049
    7    1    8    5        0.0002679153
    7    1    9    5       -0.0001116931
    7    1   10    5       -0.0000000648
    7    1   11    5       -0.0000000106
    7    1   12    5       -0.0000000401
    7    1   13    5        0.0000001262
    7    1   14    5       -0.0000189236
    7    1   15    5       -0.0000454241
    7    1   16    5       -0.0000002054
    7    1   17    5        0.0000001579
    7    1   18    5        0.0000313103
    7    1   19    5       -0.0000000040
    7    1    6    6        0.0000000000
    7    1    7    6       -0.0001802750
    7    1    8    6       -0.0000000055
    7    1    9    6        0.0000000011
    7    1   10    6        0.0000000000
    7    1   11    6        0.0000000000
    7    1   12    6       -0.0000000000
    7    1   13    6       -0.0000000000
    7    1   14    6        0.0000001413
    7    1   15    6        0.0000007057
    7    1   16    6       -0.0003206199
    7    1   17    6       -0.0000389719
    7    1   18    6        0.0000000184
    7    1   19    6        0.0000000000
    7    1    7    7        0.0000000000
    7    1    8    7        0.0000000049
    7    1    9    7        0.0000000245
    7    1   10    7        0.0002611346
    7    1   11    7        0.0000714405
    7    1   12    7        0.0002397154
    7    1   13    7        0.0000000000
    7    1   14    7        0.0000003256
    7    1   15    7       -0.0000000651
    7    1   16    7        0.0000000000
    7    1   17    7       -0.0000000000
    7    1   18    7       -0.0000002539
    7    1   19    7        0.0001571058
    7    1    8    8       -0.0000334394
    7    1    9    8       -0.0000801368
    7    1   10    8       -0.0000001506
    7    1   11    8       -0.0000001435
    7    1   12    8       -0.0000001629
    7    1   13    8       -0.0000007090
    7    1   14    8        0.0001614269
    7    1   15    8       -0.0000672905
    7    1   16    8        0.0000000476
    7    1   17    8       -0.0000000070
    7    1   18    8       -0.0000269483
    7    1   19    8       -0.0000000484
    7    1    9    9        0.0000333810
    7    1   10    9        0.0000000301
    7    1   11    9        0.0000000288
    7    1   12    9        0.0000000327
    7    1   13    9        0.0000001419
    7    1   14    9       -0.0000672812
    7    1   15    9       -0.0001613706
    7    1   16    9        0.0000002367
    7    1   17    9       -0.0000000365
    7    1   18    9        0.0000112456
    7    1   19    9        0.0000000113
    7    1   10   10        0.0000000000
    7    1   11   10        0.0000000000
    7    1   12   10        0.0000000000
    7    1   13   10       -0.0000000000
    7    1   14   10        0.0000000038
    7    1   15   10        0.0000000193
    7    1   16   10        0.0001856236
    7    1   17   10       -0.0002225201
    7    1   18   10        0.0000000950
    7    1   19   10        0.0000000000
    7    1   11   11        0.0000000000
    7    1   12   11       -0.0000000000
    7    1   13   11        0.0000000000
    7    1   14   11       -0.0000000722
    7    1   15   11       -0.0000003600
    7    1   16   11        0.0002060673
    7    1   17   11        0.0001912761
    7    1   18   11       -0.0000001218
    7    1   19   11       -0.0000000000
    7    1   12   12        0.0000000000
    7    1   13   12        0.0000000000
    7    1   14   12        0.0000000635
    7    1   15   12        0.0000003175
    7    1   16   12        0.0000980858
    7    1   17   12        0.0000324655
    7    1   18   12       -0.0000000711
    7    1   19   12       -0.0000000000
    7    1   13   13        0.0000000000
    7    1   14   13        0.0000000805
    7    1   15   13        0.0000004026
    7    1   16   13        0.0000000000
    7    1   17   13        0.0000000000
    7    1   18   13       -0.0000000493
    7    1   19   13       -0.0000000000
    7    1   14   14        0.0000243850
    7    1   15   14        0.0000584877
    7    1   16   14       -0.0000003633
    7    1   17   14       -0.0000001453
    7    1   18   14        0.0000212582
    7    1   19   14        0.0000000210
    7    1   15   15       -0.0000243784
    7    1   16   15        0.0000000727
    7    1   17   15        0.0000000289
    7    1   18   15        0.0000509864
    7    1   19   15        0.0000000897
    7    1   16   16        0.0000000000
    7    1   17   16        0.0000000000
    7    1   18   16       -0.0000000763
    7    1   19   16        0.0000486537
    7    1   17   17        0.0000000000
    7    1   18   17       -0.0000002847
    7    1   19   17       -0.0001123591
    7    1   18   18       -0.0000041399
    7    1   19   18       -0.0000000029
    7    1   19   19        0.0000000000
    8    1    8    1        0.0012557625
    8    1    9    1       -0.0000000000
    8    1   10    1        0.0000000045
    8    1   11    1        0.0000000128
    8    1   12    1       -0.0000000207
    8    1   13    1       -0.0000000019
    8    1   14    1       -0.0000000125
    8    1   15    1        0.0006535537
    8    1   16    1       -0.0000000597
    8    1   17    1       -0.0000000454
    8    1   18    1       -0.0000000009
    8    1   19    1        0.0000000663
    8    1    2    2       -0.0000000454
    8    1    3    2       -0.0000002868
    8    1    4    2        0.0045069855
    8    1    5    2       -0.0000000057
    8    1    6    2       -0.0000000909
    8    1    7    2       -0.0000009919
    8    1    8    2        0.0025538154
    8    1    9    2       -0.0000000000
    8    1   10    2        0.0000000593
    8    1   11    2       -0.0000000132
    8    1   12    2        0.0000000134
    8    1   13    2       -0.0000000103
    8    1   14    2       -0.0000000102
    8    1   15    2        0.0005268479
    8    1   16    2       -0.0000003231
    8    1   17    2        0.0000001703
    8    1   18    2        0.0000000003
    8    1   19    2        0.0000000692
    8    1    3    3        0.0000019485
    8    1    4    3        0.0003643895
    8    1    5    3       -0.0000000008
    8    1    6    3        0.0000012691
    8    1    7    3        0.0000109743
    8    1    8    3        0.0012842739
    8    1    9    3       -0.0000000004
    8    1   10    3        0.0000000482
    8    1   11    3        0.0000002615
    8    1   12    3        0.0000004369
    8    1   13    3       -0.0000000076
    8    1   14    3       -0.0000000068
    8    1   15    3        0.0003371920
    8    1   16    3        0.0000016321
    8    1   17    3        0.0000007970
    8    1   18    3       -0.0000000000
    8    1   19    3       -0.0000005480
    8    1    4    4       -0.0000000719
    8    1    5    4        0.0000003199
    8    1    6    4       -0.0015360984
    8    1    7    4       -0.0004251292
    8    1    8    4        0.0000002934
    8    1    9    4        0.0000014764
    8    1   10    4        0.0000855508
    8    1   11    4       -0.0004017312
    8    1   12    4        0.0010317749
    8    1   13    4       -0.0015827800
    8    1   14    4        0.0000013266
    8    1   15    4       -0.0000002500
    8    1   16    4       -0.0002843241
    8    1   17    4        0.0002014231
    8    1   18    4       -0.0000005881
    8    1   19    4       -0.0007906286
    8    1    5    5        0.0000001731
    8    1    6    5        0.0000000017
    8    1    7    5        0.0010197249
    8    1    8    5       -0.0000016840
    8    1    9    5        0.0000009502
    8    1   10    5       -0.0000000002
    8    1   11    5        0.0000000004
    8    1   12    5       -0.0000000015
    8    1   13    5       -0.0006598741
    8    1   14    5        0.0000008282
    8    1   15    5        0.0000013024
    8    1   16    5        0.0006820044
    8    1   17    5       -0.0004831212
    8    1   18    5       -0.0000003774
    8    1   19    5        0.0000000010
    8    1    6    6        0.0000012910
    8    1    7    6        0.0000061803
    8    1    8    6       -0.0010264140
    8    1    9    6       -0.0000000003
    8    1   10    6       -0.0000001454
    8    1   11    6       -0.0000007323
    8    1   12    6        0.0000009904
    8    1   13    6        0.0000000214
    8    1   14    6        0.0000000280
    8    1   15    6       -0.0014788647
    8    1   16    6        0.0000066393
    8    1   17    6        0.0000020459
    8    1   18    6        0.0000000010
[...]
   16   13   16   16       -0.0000000000
   16   13   17   16       -0.0000000000
   16   13   18   16        0.0000013847
   16   13   19   16        0.0000000003
   16   13   17   17        0.0000000000
   16   13   18   17       -0.0000021307
   16   13   19   17       -0.0000000000
   16   13   18   18       -0.0000000003
   16   13   19   18        0.0000001553
   16   13   19   19        0.0000000001
   17   13   17   13        0.0006400916
   17   13   18   13       -0.0000000192
   17   13   19   13       -0.0000000000
   17   13   14   14       -0.0000000002
   17   13   15   14        0.0000000686
   17   13   16   14       -0.0000001991
   17   13   17   14       -0.0000051791
   17   13   18   14        0.0000000043
   17   13   19   14        0.0000001122
   17   13   15   15        0.0000000001
   17   13   16   15        0.0000000434
   17   13   17   15        0.0000010415
   17   13   18   15       -0.0002505423
   17   13   19   15        0.0000005036
   17   13   16   16       -0.0000000002
   17   13   17   16       -0.0000000000
   17   13   18   16       -0.0000003023
   17   13   19   16        0.0000000001
   17   13   17   17        0.0000000000
   17   13   18   17       -0.0000024340
   17   13   19   17       -0.0000000001
   17   13   18   18       -0.0000000003
   17   13   19   18        0.0000005688
   17   13   19   19        0.0000000002
   18   13   18   13        0.0046305748
   18   13   19   13        0.0000000064
   18   13   14   14        0.0000241682
   18   13   15   14        0.0000041316
   18   13   16   14        0.0000000203
   18   13   17   14        0.0000000232
   18   13   18   14       -0.0000248383
   18   13   19   14        0.0006620121
   18   13   15   15        0.0000207187
   18   13   16   15       -0.0012207764
   18   13   17   15       -0.0013811761
   18   13   18   15       -0.0000042747
   18   13   19   15       -0.0002760964
   18   13   16   16        0.0000566003
   18   13   17   16        0.0000016057
   18   13   18   16       -0.0000000000
   18   13   19   16        0.0000000114
   18   13   17   17        0.0000028781
   18   13   18   17       -0.0000000002
   18   13   19   17        0.0000034510
   18   13   18   18        0.0000223034
   18   13   19   18        0.0001078323
   18   13   19   19        0.0000347514
   19   13   19   13        0.0008035925
   19   13   14   14       -0.0009286681
   19   13   15   14        0.0003870731
   19   13   16   14       -0.0000005109
   19   13   17   14       -0.0000000013
   19   13   18   14        0.0000615744
   19   13   19   14       -0.0000044071
   19   13   15   15        0.0009283733
   19   13   16   15       -0.0000028876
   19   13   17   15       -0.0000003832
   19   13   18   15       -0.0000255837
   19   13   19   15        0.0000008390
   19   13   16   16       -0.0000000007
   19   13   17   16       -0.0000000003
   19   13   18   16       -0.0000001025
   19   13   19   16       -0.0000000000
   19   13   17   17       -0.0000000004
   19   13   18   17       -0.0000003720
   19   13   19   17        0.0000000008
   19   13   18   18       -0.0005000364
   19   13   19   18        0.0000033736
   19   13   19   19       -0.0000001029
   14   14   14   14        0.0810098534
   14   14   15   14       -0.0003466009
   14   14   16   14        0.0000096647
   14   14   17   14        0.0000043464
   14   14   18   14        0.0003296888
   14   14   19   14        0.0000151387
   14   14   15   15        0.0728251412
   14   14   16   15       -0.0000022810
   14   14   17   15        0.0000017162
   14   14   18   15       -0.0006168235
   14   14   19   15       -0.0000076864
   14   14   16   16        0.0688584810
   14   14   17   16        0.0021213059
   14   14   18   16        0.0000018178
   14   14   19   16        0.0000468155
   14   14   17   17        0.0623482993
   14   14   18   17        0.0000092426
   14   14   19   17       -0.0002143398
   14   14   18   18        0.0675638374
   14   14   19   18       -0.0000240670
   14   14   19   19        0.0737706764
   15   14   15   14        0.0034042131
   15   14   16   14        0.0000212655
   15   14   17   14        0.0000081939
   15   14   18   14       -0.0006164007
   15   14   19   14       -0.0000040990
   15   14   15   15        0.0003468917
   15   14   16   15       -0.0000150806
   15   14   17   15       -0.0000070839
   15   14   18   15       -0.0002982817
   15   14   19   15       -0.0000101088
   15   14   16   16        0.0000000003
   15   14   17   16        0.0000000001
   15   14   18   16        0.0000060838
   15   14   19   16        0.0001121996
   15   14   17   17        0.0000000011
   15   14   18   17        0.0000155317
   15   14   19   17       -0.0005142090
   15   14   18   18       -0.0011027988
   15   14   19   18        0.0000087113
   15   14   19   19       -0.0000001812
   16   14   16   14        0.0038489520
   16   14   17   14        0.0010751587
   16   14   18   14        0.0000005848
   16   14   19   14        0.0001970273
   16   14   15   15       -0.0000197949
   16   14   16   15        0.0000000310
   16   14   17   15        0.0000000174
   16   14   18   15       -0.0000048069
   16   14   19   15        0.0004721937
   16   14   16   16       -0.0000193292
   16   14   17   16       -0.0000008832
   16   14   18   16       -0.0003180786
   16   14   19   16       -0.0000011327
   16   14   17   17       -0.0000148670
   16   14   18   17        0.0016459516
   16   14   19   17        0.0000035312
   16   14   18   18        0.0000107397
   16   14   19   18       -0.0002853940
   16   14   19   19       -0.0000074558
   17   14   17   14        0.0014498526
   17   14   18   14        0.0000011976
   17   14   19   14       -0.0001276512
   17   14   15   15       -0.0000083703
   17   14   16   15        0.0000000174
   17   14   17   15        0.0000000201
   17   14   18   15       -0.0000028917
   17   14   19   15       -0.0003064473
   17   14   16   16       -0.0000058771
   17   14   17   16       -0.0000018162
   17   14   18   16        0.0004252200
   17   14   19   16       -0.0000031081
   17   14   17   17       -0.0000027937
   17   14   18   17        0.0007028505
   17   14   19   17        0.0000057732
   17   14   18   18        0.0000065754
   17   14   19   18       -0.0001440521
   17   14   19   19       -0.0000025774
   18   14   18   14        0.0047129083
   18   14   19   14       -0.0000084159
   18   14   15   15       -0.0015125661
   18   14   16   15        0.0000153850
   18   14   17   15        0.0000161673
   18   14   18   15       -0.0001632620
   18   14   19   15        0.0000037588
   18   14   16   16        0.0000367263
   18   14   17   16        0.0012723231
   18   14   18   16        0.0000011051
   18   14   19   16       -0.0000311904
   18   14   17   17        0.0039013124
   18   14   18   17        0.0000046062
   18   14   19   17       -0.0001225383
   18   14   18   18        0.0048598265
   18   14   19   18       -0.0000098809
   18   14   19   19        0.0001576639
   19   14   19   14        0.0024803910
   19   14   15   15        0.0000074947
   19   14   16   15        0.0004725392
   19   14   17   15       -0.0003063281
   19   14   18   15        0.0000025132
   19   14   19   15       -0.0000000270
   19   14   16   16        0.0000140159
   19   14   17   16        0.0000057893
   19   14   18   16       -0.0002406345
   19   14   19   16        0.0000005594
   19   14   17   17        0.0000077269
   19   14   18   17       -0.0000490731
   19   14   19   17       -0.0000006806
   19   14   18   18        0.0000044359
   19   14   19   18       -0.0004630526
   19   14   19   19        0.0000156376
   15   15   15   15        0.0810062396
   15   15   16   15       -0.0000483316
   15   15   17   15       -0.0000218590
   15   15   18   15        0.0006169624
   15   15   19   15        0.0000030915
   15   15   16   16        0.0688575173
   15   15   17   16        0.0021225517
   15   15   18   16       -0.0000045146
   15   15   19   16       -0.0000467300
   15   15   17   17        0.0623518281
   15   15   18   17       -0.0000170571
   15   15   19   17        0.0002143725
   15   15   18   18        0.0611985135
   15   15   19   18        0.0000106461
   15   15   19   19        0.0737679405
   16   15   16   15        0.0038483446
   16   15   17   15        0.0010761319
   16   15   18   15       -0.0000027954
   16   15   19   15       -0.0001968024
   16   15   16   16       -0.0000965904
   16   15   17   16       -0.0000044197
   16   15   18   16       -0.0000000023
   16   15   19   16        0.0000002098
   16   15   17   17       -0.0000742441
   16   15   18   17        0.0000000676
   16   15   19   17       -0.0000006141
   16   15   18   18       -0.0000066730
   16   15   19   18       -0.0006845478
   16   15   19   19       -0.0000368519
   17   15   17   15        0.0014510166
   17   15   18   15       -0.0000040972
   17   15   19   15        0.0001277963
   17   15   16   16       -0.0000293964
   17   15   17   16       -0.0000090550
   17   15   18   16        0.0000000083
   17   15   19   16        0.0000006461
   17   15   17   17       -0.0000139345
   17   15   18   17        0.0000000464
   17   15   19   17       -0.0000011140
   17   15   18   18        0.0000154807
   17   15   19   18       -0.0003460334
   17   15   19   19       -0.0000126819
   18   15   18   15        0.0010179965
   18   15   19   15        0.0000038351
   18   15   16   16        0.0000000003
   18   15   17   16        0.0000000211
   18   15   18   16        0.0000018375
   18   15   19   16       -0.0000748433
   18   15   17   17        0.0000000654
   18   15   18   17        0.0000075358
   18   15   19   17       -0.0002940480
   18   15   18   18       -0.0008212927
   18   15   19   18        0.0000034344
   18   15   19   19       -0.0000000457
   19   15   19   15        0.0024796209
   19   15   16   16       -0.0000028032
   19   15   17   16       -0.0000010867
   19   15   18   16       -0.0005770919
   19   15   19   16        0.0000029891
   19   15   17   17       -0.0000013311
   19   15   18   17       -0.0001180891
   19   15   19   17       -0.0000032910
   19   15   18   18       -0.0000037647
   19   15   19   18        0.0000000013
   19   15   19   19       -0.0000031717
   16   16   16   16        0.0707531647
   16   16   17   16        0.0021988637
   16   16   18   16       -0.0000010750
   16   16   19   16       -0.0000000003
   16   16   17   17        0.0635298797
   16   16   18   17       -0.0000119912
   16   16   19   17       -0.0000000033
   16   16   18   18        0.0619298975
   16   16   19   18        0.0000000138
   16   16   19   19        0.0663802172
   17   16   17   16        0.0026602225
   17   16   18   16       -0.0000030142
   17   16   19   16       -0.0000000008
   17   16   17   17        0.0022033324
   17   16   18   17       -0.0000017328
   17   16   19   17       -0.0000000005
   17   16   18   18        0.0017195072
   17   16   19   18       -0.0000021287
   17   16   19   19        0.0010508855
   18   16   18   16        0.0011487882
   18   16   19   16       -0.0000092364
   18   16   17   17       -0.0000026089
   18   16   18   17        0.0002990139
   18   16   19   17       -0.0000031933
   18   16   18   18        0.0000010454
   18   16   19   18        0.0000556014
   18   16   19   19       -0.0000004429
   19   16   19   16        0.0009290702
   19   16   17   17       -0.0000000007
   19   16   18   17       -0.0000082117
   19   16   19   17       -0.0003582902
   19   16   18   18       -0.0000323292
   19   16   19   18        0.0000000126
   19   16   19   19       -0.0000000001
   17   17   17   17        0.0740767702
   17   17   18   17       -0.0000227709
   17   17   19   17       -0.0000000061
   17   17   18   18        0.0674163758
   17   17   19   18       -0.0000057034
   17   17   19   19        0.0628216331
   18   17   18   17        0.0039779002
   18   17   19   17       -0.0000121476
   18   17   18   18        0.0000165959
   18   17   19   18       -0.0002667674
   18   17   19   19       -0.0000039089
   19   17   19   17        0.0011295191
   19   17   18   18        0.0000544628
   19   17   19   18       -0.0000010322
   19   17   19   19       -0.0000000016
   18   18   18   18        0.0759463462
   18   18   19   18       -0.0000449735
   18   18   19   19        0.0648009631
   19   18   19   18        0.0015296973
   19   18   19   19       -0.0000182221
   19   19   19   19        0.0839966273
 end_two_electron_integrals


 output epsi filename:./pspw_hf_LiH.emovecs

 Total PSPW energy     :  -0.6363346488E+00


=== Spin Contamination ===

 <Sexact^2> =    0.0000000000000000     
 <S^2>      =    0.0000000000000000     



== Center of Charge ==

spin up     (    0.0000,    0.0000,    4.5700 )
spin down   (    0.0000,    0.0000,    4.5700 )
     total  (    0.0000,    0.0000,    4.5700 )
ionic       (    0.0000,    0.0000,    1.8897 )


== Molecular Dipole wrt Center of Mass ==

mu   =  (   -0.0000,   -0.0000,   -5.3606 ) au
|mu| =     5.3606 au,      13.6246 Debye

 output psi filename:./pspw_hf_LiH.movecs

 Writing Crystallographic Information File:./LiH.cif
   - cell not shifted (nwpw:cif_shift_cell .false.)


== Timing ==

cputime in seconds
  prologue    :   0.890532E+02
  main loop   :   0.211088E+04
  epilogue    :   0.791833E-01
  total       :   0.220001E+04
  cputime/step:   0.977258E+01       (     216 evalulations,      92 linesearches)


Time spent doing                        total          step       percent
  total time                 :   0.220002E+04  0.101853E+02       100.0 %
  i/o time                   :   0.232007E+01  0.107410E-01         0.1 %
  FFTs                       :   0.172081E+04  0.796671E+01        78.2 %
  dot products               :   0.114705E+02  0.531042E-01         0.5 %
  geodesic                   :   0.158660E+00  0.734538E-03         0.0 %
  ffm_dgemm                  :   0.389555E-01  0.180349E-03         0.0 %
  fmf_dgemm                  :   0.668650E-01  0.309560E-03         0.0 %
  mmm_dgemm                  :   0.508387E-02  0.235364E-04         0.0 %
  m_diagonalize              :   0.216227E-02  0.100105E-04         0.0 %
  local pseudopotentials     :   0.602789E-02  0.279069E-04         0.0 %
  non-local pseudopotentials :   0.609618E+01  0.282230E-01         0.3 %
  structure factors          :   0.127940E+01  0.592313E-02         0.1 %
  phase factors              :   0.213710E-04  0.989398E-07         0.0 %
  masking and packing        :   0.671455E+02  0.310859E+00         3.1 %
  queue fft                  :   0.254074E+01  0.117627E-01         0.1 %
  queue fft (serial)         :   0.919697E+00  0.425786E-02         0.0 %
  queue fft (message passing):   0.151112E+01  0.699594E-02         0.1 %
  HFX potential              :   0.160752E+04  0.744224E+01        73.1 %
  non-local psp FFM          :   0.474182E+01  0.219529E-01         0.2 %
  non-local psp FMF          :   0.318178E+00  0.147305E-02         0.0 %
  non-local psp FFM A        :   0.693438E+00  0.321036E-02         0.0 %
  non-local psp FFM B        :   0.545103E+00  0.252363E-02         0.0 %

== HFX Counters ==
  HFX Evalulations         =   216
  Lin ACE HFX Evalulations =     0


     >>>  JOB COMPLETED     AT Mon May  5 05:21:24 2025  <<<

 Task  times  cpu:     2052.6s     wall:     2200.0s


                                NWChem Input Module
                                -------------------


 Summary of allocated global arrays
-----------------------------------
  No active global arrays


MA_summarize_allocated_blocks: starting scan ...
MA_summarize_allocated_blocks: scan completed: 0 heap blocks, 0 stack blocks
MA usage statistics:

	allocation statistics:
					      heap	     stack
					      ----	     -----
	current number of blocks	         0	         0
	maximum number of blocks	       315	        19
	current total bytes		         0	         0
	maximum total bytes		 127233592	  29398952
	maximum total K-bytes		    127234	     29399
	maximum total M-bytes		       128	        30


                                     CITATION
                                     --------
                Please cite the following reference when publishing
                           results obtained with NWChem:

          E. Apra, E. J. Bylaska, W. A. de Jong, N. Govind, K. Kowalski,
       T. P. Straatsma, M. Valiev, H. J. J. van Dam, Y. Alexeev, J. Anchell,
       V. Anisimov, F. W. Aquino, R. Atta-Fynn, J. Autschbach, N. P. Bauman,
     J. C. Becca, D. E. Bernholdt, K. Bhaskaran-Nair, S. Bogatko, P. Borowski,
         J. Boschen, J. Brabec, A. Bruner, E. Cauet, Y. Chen, G. N. Chuev,
      C. J. Cramer, J. Daily, M. J. O. Deegan, T. H. Dunning Jr., M. Dupuis,
   K. G. Dyall, G. I. Fann, S. A. Fischer, A. Fonari, H. Fruchtl, L. Gagliardi,
      J. Garza, N. Gawande, S. Ghosh, K. Glaesemann, A. W. Gotz, J. Hammond,
       V. Helms, E. D. Hermes, K. Hirao, S. Hirata, M. Jacquelin, L. Jensen,
   B. G. Johnson, H. Jonsson, R. A. Kendall, M. Klemm, R. Kobayashi, V. Konkov,
      S. Krishnamoorthy, M. Krishnan, Z. Lin, R. D. Lins, R. J. Littlefield,
      A. J. Logsdail, K. Lopata, W. Ma, A. V. Marenich, J. Martin del Campo,
   D. Mejia-Rodriguez, J. E. Moore, J. M. Mullin, T. Nakajima, D. R. Nascimento,
    J. A. Nichols, P. J. Nichols, J. Nieplocha, A. Otero-de-la-Roza, B. Palmer,
    A. Panyala, T. Pirojsirikul, B. Peng, R. Peverati, J. Pittner, L. Pollack,
   R. M. Richard, P. Sadayappan, G. C. Schatz, W. A. Shelton, D. W. Silverstein,
   D. M. A. Smith, T. A. Soares, D. Song, M. Swart, H. L. Taylor, G. S. Thomas,
            V. Tipparaju, D. G. Truhlar, K. Tsemekhman, T. Van Voorhis,
      A. Vazquez-Mayagoitia, P. Verma, O. Villa, A. Vishnu, K. D. Vogiatzis,
        D. Wang, J. H. Weare, M. J. Williamson, T. L. Windus, K. Wolinski,
        A. T. Wong, Q. Wu, C. Yang, Q. Yu, M. Zacharias, Z. Zhang, Y. Zhao,
                                and R. J. Harrison
                        "NWChem: Past, present, and future
                         J. Chem. Phys. 152, 184102 (2020)
                               doi:10.1063/5.0004997

                                      AUTHORS
                                      -------
  E. Apra, E. J. Bylaska, N. Govind, K. Kowalski, M. Valiev, D. Mejia-Rodriguez,
       A. Kunitsa, N. P. Bauman, A. Panyala, W. A. de Jong, T. P. Straatsma,
   H. J. J. van Dam, D. Wang, T. L. Windus, J. Hammond, J. Autschbach, A. Woods,
    K. Bhaskaran-Nair, J. Brabec, K. Lopata, S. A. Fischer, S. Krishnamoorthy,
     M. Jacquelin, W. Ma, M. Klemm, O. Villa, Y. Chen, V. Anisimov, F. Aquino,
     S. Hirata, M. T. Hackler, E. Hermes, L. Jensen, J. E. Moore, J. C. Becca,
      V. Konjkov, T. Risthaus, M. Malagoli, A. Marenich, A. Otero-de-la-Roza,
        J. Mullin, P. Nichols, R. Peverati, J. Pittner, Y. Zhao, P.-D. Fan,
        A. Fonari, M. J. Williamson, R. J. Harrison, J. R. Rehr, M. Dupuis,
     D. Silverstein, D. M. A. Smith, J. Nieplocha, V. Tipparaju, M. Krishnan,
     B. E. Van Kuiken, A. Vazquez-Mayagoitia, M. Swart, Q. Wu, T. Van Voorhis,
     A. A. Auer, M. Nooijen, L. D. Crosby, E. Brown, G. Cisneros, G. I. Fann,
   H. Fruchtl, J. Garza, K. Hirao, R. A. Kendall, J. A. Nichols, K. Tsemekhman,
    K. Wolinski, J. Anchell, D. E. Bernholdt, P. Borowski, T. Clark, D. Clerc,
   H. Dachsel, M. J. O. Deegan, K. Dyall, D. Elwood, E. Glendening, M. Gutowski,
   A. C. Hess, J. Jaffe, B. G. Johnson, J. Ju, R. Kobayashi, R. Kutteh, Z. Lin,
   R. Littlefield, X. Long, B. Meng, T. Nakajima, S. Niu, L. Pollack, M. Rosing,
   K. Glaesemann, G. Sandrone, M. Stave, H. Taylor, G. Thomas, J. H. van Lenthe,
                               A. T. Wong, Z. Zhang.

 Total times  cpu:     2052.6s     wall:     2200.1s
