 argument  1 = ../data/PW_LiH_data/3x3_aperiodic/NWChem/18nocovo/H1Li1-1.9.nw



============================== echo of input deck ==============================
title "swnc: e theory=pspw4 xc=pbe formula=LiH charge=0 mult=1"
#machinejob:expert

echo

start pspw_hf_LiH

memory heap 1200 mb stack 2400 mb global 400 mb

charge 0

geometry
Li    0.00000    0.00000   -0.95000
H     0.00000    0.00000    0.95000
end

nwpw
  ### pseudopotential block begin ###
  ### pseudopotential block end   ###
  simulation_cell
     SC 28.345889835
     boundary_conditions aperiodic
  end

  cutoff 50.0
  mult 1
  xc hf
  lmbfgs
  tolerances 1.0e-9 1.0e-9

  virtual 18
end
set nwpw:cif_filename LiH

#set nwpw:CI_maxit_orb 15
#set nwpw:CI_maxit_linesearch 15

set nwpw:2qintegrals .true.
#set nwpw:3x3_virtual .true.

task pspw energy

================================================================================


                                         
                                         


             Northwest Computational Chemistry Package (NWChem) 7.2.3
             --------------------------------------------------------


                    Environmental Molecular Sciences Laboratory
                       Pacific Northwest National Laboratory
                                Richland, WA 99352

                              Copyright (c) 1994-2022
                       Pacific Northwest National Laboratory
                            Battelle Memorial Institute

             NWChem is an open-source computational chemistry package
                        distributed under the terms of the
                      Educational Community License (ECL) 2.0
             A copy of the license is included with this distribution
                              in the LICENSE.TXT file

                                  ACKNOWLEDGMENT
                                  --------------

            This software and its documentation were developed at the
            EMSL at Pacific Northwest National Laboratory, a multiprogram
            national laboratory, operated for the U.S. Department of Energy
            by Battelle under Contract Number DE-AC05-76RL01830. Support
            for this work was provided by the Department of Energy Office
            of Biological and Environmental Research, Office of Basic
            Energy Sciences, and the Office of Advanced Scientific Computing.


           Job information
           ---------------

    hostname        = mqs-al
    program         = nwchem
    date            = Mon May  5 02:27:30 2025

    compiled        = Thu_Oct_31_08:55:15_2024
    source          = /home/conda/feedstock_root/build_artifacts/nwchem_1730356057992/work
    nwchem branch   = 7.2.3
    nwchem revision = c400b04
    ga revision     = 5.8.0
    use scalapack   = T
    input           = ../data/PW_LiH_data/3x3_aperiodic/NWChem/18nocovo/H1Li1-1.9.nw
    prefix          = pspw_hf_LiH.
    data base       = ./pspw_hf_LiH.db
    status          = startup
    nproc           =       24
    time left       =     -1s



           Memory information
           ------------------

    heap     =  157286400 doubles =   1200.0 Mbytes
    stack    =  314572797 doubles =   2400.0 Mbytes
    global   =   52428800 doubles =    400.0 Mbytes (distinct from heap & stack)
    total    =  524287997 doubles =   4000.0 Mbytes
    verify   = yes
    hardfail = no 


           Directory information
           ---------------------

  0 permanent = .
  0 scratch   = .




                                NWChem Input Module
                                -------------------


              swnc: e theory=pspw4 xc=pbe formula=LiH charge=0 mult=1
              -------------------------------------------------------

 Scaling coordinates for geometry "geometry" by  1.889725989
 (inverse scale =  0.529177249)

  zeroes
  zeroes
  zeroes
  zeroes
  zeroes
  zeroes
  zeroes
  zeroes
  zeroes
  zeroes
  zeroes
  zeroes
  zeroes
  zeroes
  zeroes
  zeroes
  zeroes
  zeroes
  zeroes
  zeroes
  zeroes
  zeroes
  zeroes
  zeroes
  zeroes
  zeroes
  zeroes
  zeroes
  zeroes
  zeroes
  zeroes
  zeroes
  zeroes
  zeroes
  zeroes
  zeroes
  zeroes
  zeroes
  zeroes
  zeroes
  zeroes
  zeroes
  zeroes
  zeroes
  zeroes
  zeroes
  zeroes
  zeroes
 ORDER OF PRIMARY AXIS IS BEING SET TO 4
 C4V symmetry detected

          ------
          auto-z
          ------
  no constraints, skipping    0.0000000000000000     
  no constraints, skipping    0.0000000000000000     


                             Geometry "geometry" -> ""
                             -------------------------

 Output coordinates in angstroms (scale by  1.889725989 to convert to a.u.)

  No.       Tag          Charge          X              Y              Z
 ---- ---------------- ---------- -------------- -------------- --------------
    1 Li                   3.0000     0.00000000     0.00000000    -0.47500000
    2 H                    1.0000     0.00000000     0.00000000     1.42500000

      Atomic Mass 
      ----------- 

      Li                 7.016000
      H                  1.007825


 Effective nuclear repulsion energy (a.u.)       0.8355430247

            Nuclear Dipole moment (a.u.) 
            ----------------------------
        X                 Y               Z
 ---------------- ---------------- ----------------
     0.0000000000     0.0000000000    -0.0000000000

      Symmetry information
      --------------------

 Group name             C4v       
 Group number             18
 Group order               8
 No. of unique centers     2

      Symmetry unique atoms

     1    2



                                Z-matrix (autoz)
                                -------- 

 Units are Angstrom for bonds and degrees for angles

      Type          Name      I     J     K     L     M      Value
      ----------- --------  ----- ----- ----- ----- ----- ----------
    1 Stretch                  1     2                       1.90000


            XYZ format geometry
            -------------------
     2
 geometry
 Li                    0.00000000     0.00000000    -0.47500000
 H                     0.00000000     0.00000000     1.42500000

          ****************************************************
          *                                                  *
          *               NWPW PSPW Calculation              *
          *                                                  *
          * [ (Grassmann/Stiefel manifold implementation)  ] *
          *                                                  *
          *      [ NorthWest Chemistry implementation ]      *
          *                                                  *
          *            version #5.10   06/12/02              *
          *                                                  *
          *    This code was developed by Eric J. Bylaska,   *
          *    and was based upon algorithms and code        *
          *    developed by the group of Prof. John H. Weare *
          *                                                  *
          ****************************************************
     >>>  JOB STARTED       AT Mon May  5 02:27:30 2025  <<<
          ================ input data ========================

 input psi filename:./pspw_hf_LiH.movecs

 number of processors used:        24
 processor grid           :  24 x   1
 parallel mapping         :2d-hilbert
 parallel mapping         :  balanced
 number of threads        :         1
 parallel io              :       off

 options:
      boundary conditions  = aperiodic   (version4)
      electron spin        = restricted
      exchange-correlation = Hartree-Fock
      - HFX relaxed
      - HFX restricted orbitals :    1
      - HFX free-space coulomb solver


 elements involved in the cluster:
      1: Li  valence charge:  1.0000  lmax=  1
             comment    : Hamann pseudopotential
             pseudpotential type            :   0
             highest angular component      :   1
             local potential used           :   1
             number of non-local projections:   1
             aperiodic cutoff radius        :  1.000
             semicore corrections included  :  1.000 (radius)  0.769 (charge)
             cutoff =   1.869   1.551

      2: H   valence charge:  1.0000  lmax=  1
             comment    : Parameterized (Chem.Phys.Lett., vol 322, page 447) Hamman psp
             pseudpotential type            :   0
             highest angular component      :   1
             local potential used           :   1
             number of non-local projections:   1
             aperiodic cutoff radius        :  1.000
             cutoff =   0.800   0.800


 total charge:   0.000

 atomic composition:
     Li  :    1     H   :    1

 number of electrons: spin up=     1 (   1 per task)  down=     1 (   1 per task) (Fourier space)
 number of orbitals : spin up=     1 (   1 per task)  down=     1 (   1 per task) (Fourier space)

 supercell:
      cell_name:  cell_default                                      
      lattice:    a1=<  28.346   0.000   0.000 >
                  a2=<   0.000  28.346   0.000 >
                  a3=<   0.000   0.000  28.346 >
      reciprocal: b1=<   0.222   0.000   0.000 >
                  b2=<   0.000   0.222   0.000 >
                  b3=<   0.000   0.000   0.222 >
      lattice:    a=      28.346 b=     28.346 c=      28.346
                  alpha=  90.000 beta=  90.000 gamma=  90.000
                  omega=     22775.6

      density cutoff=100.000  fft=140x140x140(   544264 waves    22677 per task)
      wavefnc cutoff= 50.000  fft=140x140x140(   192294 waves     8012 per task)

 technical parameters:
      time step=      5.80     fictitious mass=  400000.0
      tolerance=0.100E-08 (energy)   0.100E-08 (density)
      maximum iterations =      1000 (   10 inner    100 outer )





== Energy Calculation ==


          ============ Grassmann lmbfgs iteration ============
     >>>  ITERATION STARTED AT Mon May  5 02:28:59 2025  <<<
    iter.           Energy         DeltaE       DeltaRho 
    ------------------------------------------------------
      10   -0.7386360105E+00   -0.91281E-04    0.91255E-03
      20   -0.7388756175E+00   -0.48833E-05    0.51974E-05
      30   -0.7388927636E+00   -0.44881E-06    0.75362E-07
      40   -0.7388942127E+00   -0.39328E-07    0.34344E-08
      50   -0.7388943466E+00   -0.39185E-08    0.17669E-09
      60   -0.7388943609E+00   -0.84094E-09    0.34702E-10
  *** tolerance ok. iteration terminated
     >>>  ITERATION ENDED   AT Mon May  5 02:30:06 2025  <<<


==  Summary Of Results  ==

 number of electrons: spin up=    1.00000  down=    1.00000 (real space)

 total     energy    :  -0.7388943609E+00 (   -0.36945E+00/ion)
 total orbital energy:  -0.5636315809E+00 (   -0.56363E+00/electron)
 hartree   energy    :   0.9075542432E+00 (    0.90755E+00/electron)
 exc-corr  energy    :   0.0000000000E+00 (    0.00000E+00/electron)
 HF exchange energy  :  -0.4537771216E+00 (   -0.45378E+00/electron)
 ion-ion   energy    :   0.2785143416E+00 (    0.13926E+00/ion)

 kinetic (planewave) :   0.5597630226E+00 (    0.55976E+00/electron)
 V_local (planewave) :  -0.1940112380E+01 (   -0.19401E+01/electron)
 V_nl    (planewave) :  -0.9083646640E-01 (   -0.90836E-01/electron)
 V_Coul  (planewave) :   0.1815108486E+01 (    0.18151E+01/electron)
 V_xc.   (planewave) :   0.0000000000E+00 (    0.00000E+00/electron)
 K.S. HFX energy     :  -0.9075542432E+00 (   -0.90755E+00/electron)
 Virial Coefficient  :  -0.3855923875E+00

 orbital energies:
    -0.2818158E+00 (  -7.669eV)


== Virtual Orbital Calculation ==


 input epsi filename:./pspw_hf_LiH.emovecs
     orbital   1 current e=-0.133E-01 (error=0.954E-09) iterations  86(  22 preconditioned, Ep,Sp= 20.0  200.0)
     orbital   2 current e= 0.710E-02 (error=0.939E-09) iterations  68(  14 preconditioned, Ep,Sp= 20.0  200.0)
     orbital   3 current e= 0.180E-01 (error=0.912E-09) iterations  57(  13 preconditioned, Ep,Sp= 20.0  200.0)
     orbital   4 current e= 0.180E-01 (error=0.986E-09) iterations  67(  14 preconditioned, Ep,Sp= 20.0  200.0)
     orbital   5 current e= 0.225E-01 (error=0.984E-09) iterations  24(   1 preconditioned, Ep,Sp= 20.0  200.0)
     orbital   6 current e= 0.226E-01 (error=0.972E-09) iterations  74(  16 preconditioned, Ep,Sp= 20.0  200.0)
     orbital   7 current e= 0.297E-01 (error=0.963E-09) iterations  70(  13 preconditioned, Ep,Sp= 20.0  200.0)
     orbital   8 current e= 0.367E-01 (error=0.961E-09) iterations  77(  12 preconditioned, Ep,Sp= 20.0  200.0)
     orbital   9 current e= 0.403E-01 (error=0.970E-09) iterations  80(  20 preconditioned, Ep,Sp= 20.0  200.0)
     orbital  10 current e= 0.403E-01 (error=0.980E-09) iterations 118(  22 preconditioned, Ep,Sp= 20.0  200.0)
     orbital  11 current e= 0.455E-01 (error=0.923E-09) iterations  54(   5 preconditioned, Ep,Sp= 20.0  200.0)
     orbital  12 current e= 0.462E-01 (error=0.994E-09) iterations  99(  22 preconditioned, Ep,Sp= 20.0  200.0)
     orbital  13 current e= 0.465E-01 (error=0.893E-09) iterations  73(   1 preconditioned, Ep,Sp= 20.0  200.0)
     orbital  14 current e= 0.465E-01 (error=0.980E-09) iterations  74(   1 preconditioned, Ep,Sp= 20.0  200.0)
     orbital  15 current e= 0.481E-01 (error=0.903E-09) iterations  29(   1 preconditioned, Ep,Sp= 20.0  200.0)
     orbital  16 current e= 0.503E-01 (error=0.844E-09) iterations  38(   1 preconditioned, Ep,Sp= 20.0  200.0)
     orbital  17 current e= 0.529E-01 (error=0.836E-09) iterations  68(   1 preconditioned, Ep,Sp= 20.0  200.0)
     orbital  18 current e= 0.602E-01 (error=0.633E-08) iterations 121(  33 preconditioned, Ep,Sp= 20.0  200.0)
     orbital  18 current e= 0.602E-01 (error=0.989E-09) iterations  43(   1 preconditioned, Ep,Sp= 20.0  200.0)

 virtual orbital energies:
     0.6017287E-01 (   1.637eV)
     0.5285662E-01 (   1.438eV)
     0.5032851E-01 (   1.370eV)
     0.4810250E-01 (   1.309eV)
     0.4651292E-01 (   1.266eV)
     0.4651290E-01 (   1.266eV)
     0.4621342E-01 (   1.258eV)
     0.4547221E-01 (   1.237eV)
     0.4026320E-01 (   1.096eV)
     0.4026320E-01 (   1.096eV)
     0.3671991E-01 (   0.999eV)
     0.2973166E-01 (   0.809eV)
     0.2263890E-01 (   0.616eV)
     0.2245411E-01 (   0.611eV)
     0.1800448E-01 (   0.490eV)
     0.1800448E-01 (   0.490eV)
     0.7102313E-02 (   0.193eV)
    -0.1331122E-01 (  -0.362eV)


 == Generating One-Electron and Two-Electron Integrals ==

 begin_one_electron_integrals
    1    1        -0.7355929121
    2    1         0.0357352041
    3    1        -0.0144618843
    4    1        -0.0000000395
    5    1         0.0000000079
    6    1         0.0000000024
    7    1        -0.0157648870
    8    1         0.0142310991
    9    1         0.0039468286
   10    1         0.0000000001
   11    1         0.0000000001
   12    1        -0.0000000031
   13    1         0.0154715975
   14    1        -0.0000003443
   15    1        -0.0000003116
   16    1        -0.0000002135
   17    1         0.0000002275
   18    1         0.0000000841
   19    1         0.0231931791
    2    2        -0.2505071776
    3    2         0.0579601884
    4    2         0.0000001033
    5    2        -0.0000000207
    6    2        -0.0000000042
    7    2         0.0291226381
    8    2        -0.0205638120
    9    2        -0.0269691554
   10    2         0.0000000786
   11    2        -0.0000000152
   12    2         0.0000000016
   13    2        -0.0228857218
   14    2         0.0000004498
   15    2         0.0000004028
   16    2         0.0000001170
   17    2        -0.0000000553
   18    2        -0.0000000041
   19    2        -0.0218890775
    3    3        -0.1572232109
    4    3         0.0000000441
    5    3        -0.0000000087
    6    3         0.0000000011
    7    3        -0.0082023334
    8    3        -0.0001900946
    9    3         0.0430891056
   10    3        -0.0000000604
   11    3         0.0000000111
   12    3        -0.0000000006
   13    3         0.0120320065
   14    3        -0.0000002394
   15    3        -0.0000001986
   16    3        -0.0000000249
   17    3         0.0000000217
   18    3         0.0000000044
   19    3         0.0050629479
    4    4        -0.1644973164
    5    4         0.0000000157
    6    4        -0.0000000135
    7    4         0.0000000162
    8    4         0.0000000174
    9    4        -0.0000000854
   10    4        -0.0481661935
   11    4         0.0000389513
   12    4        -0.0000000255
   13    4         0.0000005562
   14    4         0.0261274521
   15    4         0.0009831731
   16    4        -0.0000000220
   17    4        -0.0000000036
   18    4        -0.0160250578
   19    4         0.0000000295
    5    5        -0.1645235550
    6    5        -0.0000000724
    7    5        -0.0000000027
    8    5        -0.0000000019
    9    5         0.0000000125
   10    5        -0.0000390229
   11    5        -0.0481778150
   12    5        -0.0000000121
   13    5        -0.0000004136
   14    5         0.0009871315
   15    5        -0.0261520503
   16    5        -0.0000001591
   17    5        -0.0000000338
   18    5        -0.0000078171
   19    5        -0.0000000269
    6    6        -0.1198109584
    7    6         0.0000000009
    8    6        -0.0000000012
    9    6         0.0000000024
   10    6        -0.0000000149
   11    6        -0.0000000801
   12    6        -0.0000000000
   13    6         0.0000000446
   14    6        -0.0000000262
   15    6         0.0000001001
   16    6        -0.0223999073
   17    6        -0.0018909287
   18    6        -0.0000000175
   19    6         0.0000000029
    7    7        -0.1318369126
    8    7         0.0057983684
    9    7         0.0056149814
   10    7         0.0000000504
   11    7        -0.0000000098
   12    7        -0.0000000023
   13    7         0.0278594002
   14    7        -0.0000005953
   15    7        -0.0000004858
   16    7        -0.0000000273
   17    7         0.0000000248
   18    7         0.0000000443
   19    7         0.0087468545
    8    8        -0.1170804994
    9    8        -0.0007925391
   10    8        -0.0000000031
   11    8         0.0000000015
   12    8         0.0000000005
   13    8        -0.0052589341
   14    8         0.0000001202
   15    8         0.0000001140
   16    8         0.0000000632
   17    8        -0.0000000238
   18    8        -0.0000000102
   19    8        -0.0315341585
    9    9        -0.1122596455
   10    9        -0.0000000486
   11    9         0.0000000079
   12    9        -0.0000000003
   13    9        -0.0060267669
   14    9         0.0000001422
   15    9         0.0000000830
   16    9         0.0000000183
   17    9        -0.0000000127
   18    9         0.0000000016
   19    9         0.0061747393
   10   10        -0.1327020923
   11   10        -0.0000000459
   12   10        -0.0000000115
   13   10         0.0000002799
   14   10         0.0150221952
   15   10         0.0005531763
   16   10        -0.0000000074
   17   10        -0.0000000039
   18   10        -0.0024332267
   19   10        -0.0000000324
   11   11        -0.1327374677
   12   11         0.0000000004
   13   11        -0.0000002283
   14   11         0.0005534565
   15   11        -0.0150246753
   16   11        -0.0000001498
   17   11        -0.0000000142
   18   11         0.0000007513
   19   11         0.0000000021
   12   12        -0.1117424929
   13   12        -0.0000000007
   14   12         0.0000000034
   15   12        -0.0000000149
   16   12         0.0000000017
   17   12        -0.0000000002
   18   12        -0.0000000096
   19   12         0.0000000009
   13   13        -0.1020487215
   14   13        -0.0000001762
   15   13        -0.0000001402
   16   13         0.0000000991
   17   13        -0.0000000229
   18   13         0.0000002570
   19   13        -0.0111730980
   14   14        -0.1123077398
   15   14         0.0000039473
   16   14         0.0000000123
   17   14        -0.0000000080
   18   14         0.0132694076
   19   14         0.0000002703
   15   15        -0.1123435252
   16   15        -0.0000000847
   17   15         0.0000000210
   18   15         0.0004928527
   19   15         0.0000002310
   16   16        -0.0975176463
   17   16        -0.0041301112
   18   16        -0.0000000093
   19   16         0.0000002024
   17   17        -0.0984468858
   18   17        -0.0000000004
   19   17        -0.0000000572
   18   18        -0.1067008046
   19   18        -0.0000000315
   19   19        -0.0952649764
 end_one_electron_integrals

 begin_two_electron_integrals
    1    1    1    1        0.4537771216
    1    1    2    1       -0.0357473088
    1    1    3    1        0.0144647799
    1    1    4    1        0.0000000395
    1    1    5    1       -0.0000000079
    1    1    6    1       -0.0000000024
    1    1    7    1        0.0157653236
    1    1    8    1       -0.0142326370
    1    1    9    1       -0.0039489262
    1    1   10    1       -0.0000000001
    1    1   11    1       -0.0000000001
    1    1   12    1        0.0000000031
    1    1   13    1       -0.0154725187
    1    1   14    1        0.0000003444
    1    1   15    1        0.0000003117
    1    1   16    1        0.0000002134
    1    1   17    1       -0.0000002275
    1    1   18    1       -0.0000000841
    1    1   19    1       -0.0231917864
    1    1    2    2        0.1213253505
    1    1    3    2       -0.0302999010
    1    1    4    2       -0.0000000573
    1    1    5    2        0.0000000115
    1    1    6    2        0.0000000023
    1    1    7    2       -0.0157650441
    1    1    8    2        0.0111914604
    1    1    9    2        0.0141233465
    1    1   10    2       -0.0000000430
    1    1   11    2        0.0000000083
    1    1   12    2       -0.0000000010
    1    1   13    2        0.0126669791
    1    1   14    2       -0.0000002493
    1    1   15    2       -0.0000002243
    1    1   16    2       -0.0000000731
    1    1   17    2        0.0000000440
    1    1   18    2        0.0000000057
    1    1   19    2        0.0124159728
    1    1    3    3        0.0828525538
    1    1    4    3       -0.0000000264
    1    1    5    3        0.0000000052
    1    1    6    3       -0.0000000006
    1    1    7    3        0.0046746783
    1    1    8    3       -0.0002978381
    1    1    9    3       -0.0219258852
    1    1   10    3        0.0000000253
    1    1   11    3       -0.0000000045
    1    1   12    3        0.0000000004
    1    1   13    3       -0.0066105491
    1    1   14    3        0.0000001363
    1    1   15    3        0.0000001114
    1    1   16    3        0.0000000191
    1    1   17    3       -0.0000000179
    1    1   18    3       -0.0000000076
    1    1   19    3       -0.0031644543
    1    1    4    4        0.0917054820
    1    1    5    4       -0.0000000081
    1    1    6    4        0.0000000052
    1    1    7    4       -0.0000000017
    1    1    8    4       -0.0000000116
    1    1    9    4        0.0000000487
    1    1   10    4        0.0245898377
    1    1   11    4       -0.0000198863
    1    1   12    4        0.0000000133
    1    1   13    4       -0.0000002886
    1    1   14    4       -0.0133944935
    1    1   15    4       -0.0005040335
    1    1   16    4        0.0000000094
    1    1   17    4        0.0000000012
    1    1   18    4        0.0082500807
    1    1   19    4       -0.0000000161
    1    1    5    5        0.0917189603
    1    1    6    5        0.0000000283
    1    1    7    5        0.0000000000
    1    1    8    5        0.0000000015
    1    1    9    5       -0.0000000074
    1    1   10    5        0.0000199233
    1    1   11    5        0.0245966545
    1    1   12    5        0.0000000062
    1    1   13    5        0.0000002127
    1    1   14    5       -0.0005060755
    1    1   15    5        0.0134073496
    1    1   16    5        0.0000000727
    1    1   17    5        0.0000000143
    1    1   18    5        0.0000040240
    1    1   19    5        0.0000000140
    1    1    6    6        0.0711420303
    1    1    7    6       -0.0000000005
    1    1    8    6        0.0000000007
    1    1    9    6       -0.0000000011
    1    1   10    6        0.0000000059
    1    1   11    6        0.0000000326
    1    1   12    6        0.0000000000
    1    1   13    6       -0.0000000222
    1    1   14    6        0.0000000145
    1    1   15    6       -0.0000000556
    1    1   16    6        0.0112124092
    1    1   17    6        0.0009462255
    1    1   18    6        0.0000000078
    1    1   19    6       -0.0000000013
    1    1    7    7        0.0777848784
    1    1    8    7       -0.0032982702
    1    1    9    7       -0.0030793520
    1    1   10    7       -0.0000000198
    1    1   11    7        0.0000000038
    1    1   12    7        0.0000000013
    1    1   13    7       -0.0144839080
    1    1   14    7        0.0000003058
    1    1   15    7        0.0000002524
    1    1   16    7        0.0000000207
    1    1   17    7       -0.0000000198
    1    1   18    7       -0.0000000216
    1    1   19    7       -0.0050331916
    1    1    8    8        0.0737612037
    1    1    9    8        0.0005337544
    1    1   10    8       -0.0000000003
    1    1   11    8       -0.0000000004
    1    1   12    8       -0.0000000004
    1    1   13    8        0.0030324356
    1    1   14    8       -0.0000000678
    1    1   15    8       -0.0000000653
    1    1   16    8       -0.0000000372
    1    1   17    8        0.0000000185
    1    1   18    8        0.0000000058
    1    1   19    8        0.0163500287
    1    1    9    9        0.0747562980
    1    1   10    9        0.0000000304
    1    1   11    9       -0.0000000051
    1    1   12    9        0.0000000001
    1    1   13    9        0.0033003704
    1    1   14    9       -0.0000000812
    1    1   15    9       -0.0000000469
    1    1   16    9       -0.0000000124
    1    1   17    9        0.0000000086
    1    1   18    9        0.0000000034
    1    1   19    9       -0.0028744161
    1    1   10   10        0.0870578117
    1    1   11   10        0.0000000240
    1    1   12   10        0.0000000057
    1    1   13   10       -0.0000001502
    1    1   14   10       -0.0078777325
    1    1   15   10       -0.0002900853
    1    1   16   10        0.0000000021
    1    1   17   10        0.0000000015
    1    1   18   10        0.0014739341
    1    1   19   10        0.0000000163
    1    1   11   11        0.0870756036
    1    1   12   11        0.0000000001
    1    1   13   11        0.0000001205
    1    1   14   11       -0.0002903188
    1    1   15   11        0.0078799057
    1    1   16   11        0.0000000686
    1    1   17   11        0.0000000048
    1    1   18   11       -0.0000004579
    1    1   19   11       -0.0000000007
    1    1   12   12        0.0786346310
    1    1   13   12        0.0000000002
    1    1   14   12       -0.0000000024
    1    1   15   12        0.0000000075
    1    1   16   12       -0.0000000009
    1    1   17   12        0.0000000001
    1    1   18   12        0.0000000049
    1    1   19   12       -0.0000000006
    1    1   13   13        0.0747016976
    1    1   14   13        0.0000000837
    1    1   15   13        0.0000000658
    1    1   16   13       -0.0000000583
    1    1   17   13        0.0000000189
    1    1   18   13       -0.0000001313
    1    1   19   13        0.0062462268
    1    1   14   14        0.0796615678
    1    1   15   14       -0.0000020278
    1    1   16   14       -0.0000000047
    1    1   17   14        0.0000000045
    1    1   18   14       -0.0068221724
    1    1   19   14       -0.0000001502
    1    1   15   15        0.0796799326
    1    1   16   15        0.0000000374
    1    1   17   15       -0.0000000126
    1    1   18   15       -0.0002533897
    1    1   19   15       -0.0000001291
    1    1   16   16        0.0728269495
    1    1   17   16        0.0020666124
    1    1   18   16        0.0000000037
    1    1   19   16       -0.0000001098
    1    1   17   17        0.0743907010
    1    1   18   17       -0.0000000003
    1    1   19   17        0.0000000395
    1    1   18   18        0.0799364173
    1    1   19   18        0.0000000196
    1    1   19   19        0.0786897735
    2    1    2    1        0.0054547451
    2    1    3    1       -0.0026494983
    2    1    4    1       -0.0000000113
    2    1    5    1        0.0000000023
    2    1    6    1        0.0000000004
    2    1    7    1       -0.0024059946
    2    1    8    1        0.0018163077
    2    1    9    1        0.0012753567
    2    1   10    1       -0.0000000073
    2    1   11    1        0.0000000015
    2    1   12    1       -0.0000000004
    2    1   13    1        0.0024444537
    2    1   14    1       -0.0000000488
    2    1   15    1       -0.0000000460
    2    1   16    1       -0.0000000293
    2    1   17    1        0.0000000325
    2    1   18    1        0.0000000074
    2    1   19    1        0.0029393344
    2    1    2    2        0.0040212203
    2    1    3    2       -0.0019735395
    2    1    4    2       -0.0000000414
    2    1    5    2        0.0000000083
    2    1    6    2       -0.0000000000
    2    1    7    2        0.0001726891
    2    1    8    2       -0.0000799631
    2    1    9    2        0.0010602491
    2    1   10    2       -0.0000000182
    2    1   11    2        0.0000000036
    2    1   12    2        0.0000000001
    2    1   13    2       -0.0003359118
    2    1   14    2        0.0000000101
    2    1   15    2        0.0000000078
    2    1   16    2        0.0000000065
    2    1   17    2       -0.0000000054
    2    1   18    2       -0.0000000014
    2    1   19    2       -0.0003982055
    2    1    3    3        0.0014389106
    2    1    4    3       -0.0000000277
    2    1    5    3        0.0000000055
    2    1    6    3       -0.0000000000
    2    1    7    3        0.0001707280
    2    1    8    3       -0.0011457301
    2    1    9    3       -0.0008899826
    2    1   10    3        0.0000000229
    2    1   11    3       -0.0000000046
    2    1   12    3       -0.0000000000
    2    1   13    3        0.0000344718
    2    1   14    3        0.0000000036
    2    1   15    3        0.0000000000
    2    1   16    3       -0.0000000015
    2    1   17    3        0.0000000019
    2    1   18    3       -0.0000000046
    2    1   19    3       -0.0004456154
    2    1    4    4        0.0017983433
    2    1    5    4        0.0000000006
    2    1    6    4       -0.0000000050
    2    1    7    4        0.0000000118
    2    1    8    4        0.0000000067
    2    1    9    4        0.0000000156
    2    1   10    4        0.0012301779
    2    1   11    4       -0.0000009977
    2    1   12    4        0.0000000459
    2    1   13    4        0.0000000033
    2    1   14    4        0.0004701149
    2    1   15    4        0.0000176882
    2    1   16    4       -0.0000000017
    2    1   17    4        0.0000000028
    2    1   18    4       -0.0009532287
    2    1   19    4        0.0000000005
    2    1    5    5        0.0017981628
    2    1    6    5       -0.0000000251
    2    1    7    5       -0.0000000023
    2    1    8    5       -0.0000000013
    2    1    9    5       -0.0000000032
    2    1   10    5        0.0000009969
    2    1   11    5        0.0012305596
    2    1   12    5       -0.0000000103
    2    1   13    5       -0.0000000062
    2    1   14    5        0.0000179556
    2    1   15    5       -0.0004718446
    2    1   16    5       -0.0000000072
    2    1   17    5        0.0000000129
    2    1   18    5       -0.0000004650
    2    1   19    5       -0.0000000013
    2    1    6    6        0.0007104299
    2    1    7    6        0.0000000000
    2    1    8    6        0.0000000000
    2    1    9    6        0.0000000001
    2    1   10    6       -0.0000000039
    2    1   11    6       -0.0000000192
    2    1   12    6       -0.0000000000
    2    1   13    6        0.0000000004
    2    1   14    6       -0.0000000021
    2    1   15    6        0.0000000088
    2    1   16    6       -0.0001413655
    2    1   17    6       -0.0010652421
    2    1   18    6       -0.0000000042
    2    1   19    6       -0.0000000000
    2    1    7    7        0.0005379357
    2    1    8    7       -0.0000244290
    2    1    9    7       -0.0002689760
    2    1   10    7        0.0000000065
    2    1   11    7       -0.0000000013
    2    1   12    7        0.0000000000
    2    1   13    7       -0.0004176912
    2    1   14    7       -0.0000000376
    2    1   15    7       -0.0000000036
    2    1   16    7        0.0000000026
    2    1   17    7        0.0000000018
    2    1   18    7        0.0000000031
    2    1   19    7       -0.0004323288
    2    1    8    8       -0.0003782035
    2    1    9    8        0.0005377933
    2    1   10    8        0.0000000041
    2    1   11    8       -0.0000000008
    2    1   12    8        0.0000000000
    2    1   13    8       -0.0002781623
    2    1   14    8        0.0000000192
    2    1   15    8        0.0000000090
    2    1   16    8        0.0000000044
    2    1   17    8       -0.0000000026
    2    1   18    8       -0.0000000463
    2    1   19    8       -0.0005612725
    2    1    9    9        0.0008178046
    2    1   10    9        0.0000000212
    2    1   11    9       -0.0000000042
    2    1   12    9        0.0000000000
    2    1   13    9        0.0001660538
    2    1   14    9       -0.0000000090
    2    1   15    9       -0.0000000045
    2    1   16    9       -0.0000000012
    2    1   17    9       -0.0000000008
    2    1   18    9        0.0000000076
    2    1   19    9        0.0011582185
    2    1   10   10        0.0012490158
    2    1   11   10       -0.0000000004
    2    1   12   10       -0.0000000228
    2    1   13   10       -0.0000000135
    2    1   14   10       -0.0000002889
    2    1   15   10       -0.0000000106
    2    1   16   10       -0.0000000028
    2    1   17   10        0.0000000021
    2    1   18   10        0.0004252351
    2    1   19   10        0.0000000000
    2    1   11   11        0.0012488576
    2    1   12   11        0.0000000051
    2    1   13   11        0.0000000028
    2    1   14   11       -0.0000001326
    2    1   15   11        0.0000011856
    2    1   16   11       -0.0000000133
    2    1   17   11        0.0000000108
    2    1   18   11       -0.0000001375
    2    1   19   11        0.0000000005
    2    1   12   12        0.0011479253
    2    1   13   12        0.0000000001
    2    1   14   12       -0.0000000171
    2    1   15   12       -0.0000000043
    2    1   16   12        0.0000000000
    2    1   17   12       -0.0000000000
    2    1   18   12       -0.0000000139
    2    1   19   12        0.0000000000
    2    1   13   13        0.0007266093
    2    1   14   13       -0.0000000120
    2    1   15   13       -0.0000000061
    2    1   16   13       -0.0000000039
    2    1   17   13       -0.0000000022
    2    1   18   13       -0.0000000052
    2    1   19   13       -0.0001110937
    2    1   14   14        0.0005373916
    2    1   15   14        0.0000000718
    2    1   16   14        0.0000000044
    2    1   17   14        0.0000000010
    2    1   18   14        0.0002217437
    2    1   19   14        0.0000000112
    2    1   15   15        0.0005367829
    2    1   16   15       -0.0000000179
    2    1   17   15       -0.0000000044
    2    1   18   15        0.0000082362
    2    1   19   15        0.0000000054
    2    1   16   16        0.0003120198
    2    1   17   16       -0.0000537679
    2    1   18   16       -0.0000000010
    2    1   19   16        0.0000000067
    2    1   17   17       -0.0003697496
    2    1   18   17       -0.0000000031
    2    1   19   17       -0.0000000046
    2    1   18   18       -0.0007133799
    2    1   19   18       -0.0000000047
    2    1   19   19       -0.0007769778
    3    1    3    1        0.0013795833
    3    1    4    1       -0.0000000087
    3    1    5    1        0.0000000017
    3    1    6    1       -0.0000000002
    3    1    7    1        0.0011594438
    3    1    8    1       -0.0007931203
    3    1    9    1       -0.0007665615
    3    1   10    1       -0.0000000099
    3    1   11    1        0.0000000020
    3    1   12    1        0.0000000002
    3    1   13    1       -0.0011923097
    3    1   14    1        0.0000000333
    3    1   15    1        0.0000000243
    3    1   16    1        0.0000000130
    3    1   17    1       -0.0000000142
    3    1   18    1       -0.0000000109
    3    1   19    1       -0.0012668818
    3    1    2    2       -0.0034821164
    3    1    3    2        0.0018003937
    3    1    4    2       -0.0000000843
    3    1    5    2        0.0000000168
    3    1    6    2       -0.0000000000
    3    1    7    2        0.0001103018
    3    1    8    2       -0.0001331413
    3    1    9    2       -0.0010313336
    3    1   10    2       -0.0000000262
    3    1   11    2        0.0000000053
    3    1   12    2       -0.0000000000
    3    1   13    2        0.0000060159
    3    1   14    2        0.0000000039
    3    1   15    2        0.0000000002
    3    1   16    2       -0.0000000027
    3    1   17    2        0.0000000022
    3    1   18    2        0.0000000016
    3    1   19    2        0.0000232462
    3    1    3    3       -0.0012740440
    3    1    4    3       -0.0000000600
    3    1    5    3        0.0000000120
    3    1    6    3        0.0000000000
    3    1    7    3       -0.0002569476
    3    1    8    3        0.0008569791
    3    1    9    3        0.0008282511
    3    1   10    3        0.0000000508
    3    1   11    3       -0.0000000102
    3    1   12    3       -0.0000000000
    3    1   13    3        0.0001076610
    3    1   14    3        0.0000000135
    3    1   15    3        0.0000000022
    3    1   16    3        0.0000000002
    3    1   17    3       -0.0000000007
    3    1   18    3       -0.0000000225
    3    1   19    3        0.0004175072
    3    1    4    4       -0.0014236676
    3    1    5    4       -0.0000000003
    3    1    6    4       -0.0000000122
    3    1    7    4        0.0000000336
    3    1    8    4        0.0000000097
    3    1    9    4        0.0000000292
    3    1   10    4       -0.0010638059
    3    1   11    4        0.0000008623
    3    1   12    4        0.0000000990
    3    1   13    4       -0.0000000186
    3    1   14    4       -0.0002097756
    3    1   15    4       -0.0000078920
    3    1   16    4       -0.0000000047
    3    1   17    4        0.0000000017
    3    1   18    4        0.0005663693
    3    1   19    4        0.0000000009
    3    1    5    5       -0.0014236867
    3    1    6    5       -0.0000000612
    3    1    7    5       -0.0000000067
    3    1    8    5       -0.0000000019
    3    1    9    5       -0.0000000058
    3    1   10    5       -0.0000008620
    3    1   11    5       -0.0010641493
    3    1   12    5       -0.0000000191
    3    1   13    5        0.0000000062
    3    1   14    5       -0.0000080536
    3    1   15    5        0.0002108150
    3    1   16    5       -0.0000000248
    3    1   17    5        0.0000000092
    3    1   18    5        0.0000002763
    3    1   19    5        0.0000000005
    3    1    6    6       -0.0004878889
    3    1    7    6       -0.0000000000
    3    1    8    6       -0.0000000000
    3    1    9    6       -0.0000000001
    3    1   10    6       -0.0000000106
    3    1   11    6       -0.0000000529
    3    1   12    6        0.0000000000
    3    1   13    6       -0.0000000003
    3    1   14    6       -0.0000000038
    3    1   15    6        0.0000000157
    3    1   16    6        0.0000829636
    3    1   17    6        0.0007078027
    3    1   18    6       -0.0000000069
    3    1   19    6        0.0000000000
    3    1    7    7       -0.0004756191
    3    1    8    7        0.0000744389
    3    1    9    7        0.0002789451
    3    1   10    7        0.0000000168
    3    1   11    7       -0.0000000034
    3    1   12    7       -0.0000000000
    3    1   13    7        0.0004057986
    3    1   14    7       -0.0000001068
    3    1   15    7       -0.0000000308
    3    1   16    7       -0.0000000025
    3    1   17    7       -0.0000000006
    3    1   18    7       -0.0000000002
    3    1   19    7        0.0003835793
    3    1    8    8        0.0001825689
    3    1    9    8       -0.0004125357
    3    1   10    8        0.0000000171
    3    1   11    8       -0.0000000034
    3    1   12    8       -0.0000000000
    3    1   13    8        0.0001276070
    3    1   14    8        0.0000000231
    3    1   15    8        0.0000000035
    3    1   16    8       -0.0000000022
    3    1   17    8        0.0000000012
    3    1   18    8       -0.0000001035
    3    1   19    8        0.0002665166
    3    1    9    9       -0.0007387722
    3    1   10    9        0.0000000442
    3    1   11    9       -0.0000000089
    3    1   12    9        0.0000000000
    3    1   13    9       -0.0002099517
    3    1   14    9       -0.0000000083
    3    1   15    9        0.0000000007
    3    1   16    9        0.0000000012
    3    1   17    9        0.0000000003
    3    1   18    9        0.0000000153
    3    1   19    9       -0.0008313926
    3    1   10   10       -0.0011109534
    3    1   11   10       -0.0000000001
    3    1   12   10       -0.0000000506
    3    1   13   10       -0.0000000272
    3    1   14   10        0.0001268225
    3    1   15   10        0.0000046697
    3    1   16   10       -0.0000000065
    3    1   17   10        0.0000000042
    3    1   18   10       -0.0003405749
    3    1   19   10        0.0000000063
    3    1   11   11       -0.0011109173
    3    1   12   11        0.0000000097
    3    1   13   11        0.0000000040
    3    1   14   11        0.0000047638
    3    1   15   11       -0.0001274959
    3    1   16   11       -0.0000000337
    3    1   17   11        0.0000000206
    3    1   18   11        0.0000001099
    3    1   19   11       -0.0000000017
    3    1   12   12       -0.0008125688
    3    1   13   12       -0.0000000000
    3    1   14   12       -0.0000000403
    3    1   15   12       -0.0000000095
    3    1   16   12       -0.0000000000
    3    1   17   12        0.0000000000
    3    1   18   12       -0.0000000227
    3    1   19   12       -0.0000000000
    3    1   13   13       -0.0006160028
    3    1   14   13       -0.0000000148
    3    1   15   13       -0.0000000007
    3    1   16   13        0.0000000036
    3    1   17   13        0.0000000007
    3    1   18   13       -0.0000000243
    3    1   19   13       -0.0000247919
    3    1   14   14       -0.0004520240
    3    1   15   14       -0.0000000333
    3    1   16   14        0.0000000101
    3    1   17   14        0.0000000024
    3    1   18   14       -0.0000946656
    3    1   19   14        0.0000000110
    3    1   15   15       -0.0004517452
    3    1   16   15       -0.0000000431
    3    1   17   15       -0.0000000100
    3    1   18   15       -0.0000035161
    3    1   19   15        0.0000000022
    3    1   16   16       -0.0002281625
    3    1   17   16        0.0000363408
    3    1   18   16       -0.0000000032
    3    1   19   16       -0.0000000032
    3    1   17   17        0.0002303958
    3    1   18   17       -0.0000000077
    3    1   19   17        0.0000000020
    3    1   18   18        0.0004097731
    3    1   19   18       -0.0000000054
    3    1   19   19        0.0003522522
    4    1    4    1        0.0009091648
    4    1    5    1       -0.0000000005
    4    1    6    1       -0.0000000032
    4    1    7    1        0.0000000130
    4    1    8    1       -0.0000000058
    4    1    9    1        0.0000000120
    4    1   10    1        0.0010164941
    4    1   11    1       -0.0000008220
    4    1   12    1        0.0000000011
    4    1   13    1       -0.0000000210
    4    1   14    1       -0.0006621678
    4    1   15    1       -0.0000249190
    4    1   16    1       -0.0000000032
    4    1   17    1       -0.0000000011
    4    1   18    1        0.0004755349
    4    1   19    1       -0.0000000028
    4    1    2    2       -0.0000018514
    4    1    3    2       -0.0000044402
    4    1    4    2        0.0020783103
    4    1    5    2       -0.0000000004
    4    1    6    2       -0.0000010620
    4    1    7    2        0.0000021210
    4    1    8    2        0.0000013266
    4    1    9    2        0.0000006065
    4    1   10    2        0.0015942220
    4    1   11    2       -0.0000012906
    4    1   12    2        0.0000000130
    4    1   13    2       -0.0000006768
    4    1   14    2       -0.0004353827
    4    1   15    2       -0.0000163846
    4    1   16    2       -0.0000003053
    4    1   17    2        0.0000001149
    4    1   18    2        0.0000526066
    4    1   19    2        0.0000007380
    4    1    3    3       -0.0000126684
    4    1    4    3       -0.0000802163
    4    1    5    3       -0.0000000002
    4    1    6    3       -0.0000023270
    4    1    7    3        0.0000056000
    4    1    8    3        0.0000007772
    4    1    9    3       -0.0000030055
    4    1   10    3       -0.0010542691
    4    1   11    3        0.0000008542
    4    1   12    3        0.0000000181
    4    1   13    3        0.0000009165
    4    1   14    3        0.0000059572
    4    1   15    3        0.0000002264
    4    1   16    3       -0.0000004888
    4    1   17    3       -0.0000004392
    4    1   18    3        0.0001677363
    4    1   19    3        0.0000015793
    4    1    4    4       -0.0000023857
    4    1    5    4        0.0000004772
    4    1    6    4        0.0002612325
    4    1    7    4       -0.0007307301
    4    1    8    4        0.0000948382
    4    1    9    4       -0.0001559290
    4    1   10    4        0.0000041457
    4    1   11    4       -0.0000008329
    4    1   12    4       -0.0013255949
    4    1   13    4        0.0005472461
    4    1   14    4        0.0000025491
    4    1   15    4        0.0000006013
    4    1   16    4        0.0001471998
    4    1   17    4       -0.0000892593
    4    1   18    4        0.0000019121
    4    1   19    4        0.0002767452
    4    1    5    5       -0.0000027456
    4    1    6    5        0.0006285049
    4    1    7    5        0.0000000006
    4    1    8    5       -0.0000000003
    4    1    9    5        0.0000000001
    4    1   10    5       -0.0000008266
    4    1   11    5        0.0000048210
    4    1   12    5        0.0005511264
    4    1   13    5       -0.0000000009
    4    1   14    5       -0.0000004042
    4    1   15    5       -0.0000030061
    4    1   16    5        0.0003543338
    4    1   17    5       -0.0002148225
    4    1   18    5       -0.0000003811
    4    1   19    5       -0.0000000004
    4    1    6    6       -0.0000179100
    4    1    7    6        0.0000009324
    4    1    8    6        0.0000003296
    4    1    9    6        0.0000012158
    4    1   10    6        0.0002774793
    4    1   11    6        0.0006662182
    4    1   12    6        0.0000000000
    4    1   13    6       -0.0000013923
    4    1   14    6        0.0000407122
    4    1   15    6       -0.0000881867
    4    1   16    6       -0.0000049193
    4    1   17    6       -0.0000004540
    4    1   18    6        0.0001472318
    4    1   19    6        0.0000006434
    4    1    7    7       -0.0000103915
    4    1    8    7        0.0000009757
    4    1    9    7       -0.0000028140
    4    1   10    7       -0.0006175970
    4    1   11    7        0.0000004977
    4    1   12    7       -0.0000000081
    4    1   13    7       -0.0000072000
    4    1   14    7        0.0012377057
    4    1   15    7        0.0000465705
    4    1   16    7        0.0000022060
    4    1   17    7        0.0000001580
    4    1   18    7       -0.0001236377
    4    1   19    7       -0.0000012369
    4    1    8    8       -0.0000143666
    4    1    9    8       -0.0000006603
    4    1   10    8        0.0000455160
    4    1   11    8       -0.0000000358
    4    1   12    8       -0.0000000043
    4    1   13    8       -0.0000005732
    4    1   14    8       -0.0003682598
    4    1   15    8       -0.0000138579
    4    1   16    8       -0.0000005192
    4    1   17    8       -0.0000026099
    4    1   18    8        0.0010183574
    4    1   19    8        0.0000058202
    4    1    9    9       -0.0000150612
    4    1   10    9        0.0000187930
    4    1   11    9       -0.0000000156
    4    1   12    9       -0.0000000027
    4    1   13    9        0.0000052478
    4    1   14    9        0.0000891195
    4    1   15    9        0.0000033522
    4    1   16    9        0.0000015411
    4    1   17    9       -0.0000003889
    4    1   18    9       -0.0001969970
    4    1   19    9       -0.0000011106
    4    1   10   10       -0.0000079049
    4    1   11   10        0.0000015782
    4    1   12   10       -0.0000460190
    4    1   13   10        0.0007004612
    4    1   14   10       -0.0000039034
    4    1   15   10       -0.0000009396
    4    1   16   10        0.0002049426
    4    1   17   10       -0.0001146043
    4    1   18   10       -0.0000020480
    4    1   19   10        0.0002067004
    4    1   11   11       -0.0000092059
    4    1   12   11        0.0000191223
    4    1   13   11       -0.0000005681
    4    1   14   11        0.0000006155
    4    1   15   11        0.0000045967
    4    1   16   11        0.0004924462
    4    1   17   11       -0.0002751700
    4    1   18   11        0.0000004084
    4    1   19   11       -0.0000001667
    4    1   12   12       -0.0000000023
    4    1   13   12        0.0000000119
    4    1   14   12        0.0005378842
    4    1   15   12        0.0002476482
    4    1   16   12        0.0000000007
    4    1   17   12        0.0000000006
    4    1   18   12        0.0001337376
    4    1   19   12        0.0000000013
    4    1   13   13       -0.0000160373
    4    1   14   13       -0.0002895219
    4    1   15   13       -0.0000108971
    4    1   16   13        0.0000004598
    4    1   17   13       -0.0000002435
    4    1   18   13        0.0002668277
    4    1   19   13        0.0000001965
    4    1   14   14       -0.0000058207
    4    1   15   14       -0.0000011387
    4    1   16   14       -0.0001644850
    4    1   17   14       -0.0000377992
    4    1   18   14       -0.0000007103
    4    1   19   14       -0.0004201430
    4    1   15   15       -0.0000069571
    4    1   16   15        0.0003572966
    4    1   17   15        0.0000823492
    4    1   18   15       -0.0000001707
    4    1   19   15       -0.0000158108
    4    1   16   16       -0.0000187944
    4    1   17   16       -0.0000017793
    4    1   18   16        0.0000908185
    4    1   19   16       -0.0000001877
    4    1   17   17       -0.0000187216
    4    1   18   17        0.0001017971
    4    1   19   17       -0.0000005458
    4    1   18   18       -0.0000066510
    4    1   19   18        0.0004227785
    4    1   19   19       -0.0000160570
    5    1    5    1        0.0009098813
    5    1    6    1       -0.0000000157
    5    1    7    1       -0.0000000026
    5    1    8    1        0.0000000011
    5    1    9    1       -0.0000000023
    5    1   10    1        0.0000008235
    5    1   11    1        0.0010169806
    5    1   12    1        0.0000000003
    5    1   13    1        0.0000000119
    5    1   14    1       -0.0000250394
    5    1   15    1        0.0006630185
    5    1   16    1       -0.0000000136
    5    1   17    1       -0.0000000051
    5    1   18    1        0.0000002321
    5    1   19    1        0.0000000012
    5    1    2    2        0.0000003697
    5    1    3    2        0.0000008866
    5    1    4    2       -0.0000000005
    5    1    5    2        0.0020792856
    5    1    6    2       -0.0000053227
    5    1    7    2       -0.0000004235
    5    1    8    2       -0.0000002649
    5    1    9    2       -0.0000001210
    5    1   10    2        0.0000012916
    5    1   11    2        0.0015949270
    5    1   12    2       -0.0000000026
    5    1   13    2        0.0000001401
    5    1   14    2       -0.0000163856
    5    1   15    2        0.0004353621
    5    1   16    2       -0.0000015280
    5    1   17    2        0.0000005756
    5    1   18    2        0.0000000257
    5    1   19    2       -0.0000001473
    5    1    3    3        0.0000025295
    5    1    4    3        0.0000000000
    5    1    5    3       -0.0000804109
    5    1    6    3       -0.0000116627
    5    1    7    3       -0.0000011182
    5    1    8    3       -0.0000001551
    5    1    9    3        0.0000006001
    5    1   10    3       -0.0000008541
    5    1   11    3       -0.0010546515
    5    1   12    3       -0.0000000034
    5    1   13    3       -0.0000001830
    5    1   14    3        0.0000001693
    5    1   15    3       -0.0000055482
    5    1   16    3       -0.0000024518
    5    1   17    3       -0.0000022010
    5    1   18    3        0.0000000819
    5    1   19    3       -0.0000003152
    5    1    4    4        0.0000014976
    5    1    5    4        0.0000023598
    5    1    6    4        0.0006285438
    5    1    7    4        0.0000000003
    5    1    8    4       -0.0000000004
    5    1    9    4       -0.0000000000
    5    1   10    4       -0.0000026239
    5    1   11    4       -0.0000041410
    5    1   12    4        0.0005513059
    5    1   13    4       -0.0000000009
    5    1   14    4       -0.0000017220
    5    1   15    4        0.0000025018
    5    1   16    4        0.0003541927
    5    1   17    4       -0.0002147506
    5    1   18    4       -0.0000012074
    5    1   19    4       -0.0000000003
    5    1    5    5       -0.0000004720
    5    1    6    5       -0.0002613951
    5    1    7    5       -0.0007311674
    5    1    8    5        0.0000952216
    5    1    9    5       -0.0001559949
    5    1   10    5       -0.0000041476
    5    1   11    5        0.0000008333
    5    1   12    5        0.0013260260
    5    1   13    5        0.0005477684
    5    1   14    5       -0.0000025633
    5    1   15    5       -0.0000006197
    5    1   16    5       -0.0001473757
    5    1   17    5        0.0000893390
    5    1   18    5       -0.0000019055
    5    1   19    5        0.0002769833
    5    1    6    6        0.0000035760
    5    1    7    6        0.0000046729
    5    1    8    6        0.0000016518
    5    1    9    6        0.0000060933
    5    1   10    6        0.0006661080
    5    1   11    6       -0.0002777117
    5    1   12    6       -0.0000000021
    5    1   13    6       -0.0000069726
    5    1   14    6        0.0000886361
    5    1   15    6        0.0000406420
    5    1   16    6        0.0000009821
    5    1   17    6        0.0000000906
    5    1   18    6        0.0003537716
    5    1   19    6        0.0000032226
    5    1    7    7        0.0000020749
    5    1    8    7       -0.0000001948
    5    1    9    7        0.0000005617
    5    1   10    7       -0.0000005010
    5    1   11    7       -0.0006183122
    5    1   12    7        0.0000000015
    5    1   13    7        0.0000014233
    5    1   14    7        0.0000466100
    5    1   15    7       -0.0012382247
    5    1   16    7        0.0000110556
    5    1   17    7        0.0000007919
    5    1   18    7       -0.0000000603
    5    1   19    7        0.0000002467
    5    1    8    8        0.0000028685
    5    1    9    8        0.0000001319
    5    1   10    8        0.0000000365
    5    1   11    8        0.0000452522
    5    1   12    8        0.0000000020
    5    1   13    8        0.0000001188
    5    1   14    8       -0.0000141302
    5    1   15    8        0.0003699017
    5    1   16    8       -0.0000026020
    5    1   17    8       -0.0000130792
    5    1   18    8        0.0000004968
    5    1   19    8       -0.0000011609
    5    1    9    9        0.0000030072
    5    1   10    9        0.0000000153
    5    1   11    9        0.0000189190
    5    1   12    9        0.0000000004
    5    1   13    9       -0.0000010488
    5    1   14    9        0.0000034070
    5    1   15    9       -0.0000894242
    5    1   16    9        0.0000077249
    5    1   17    9       -0.0000019498
    5    1   18    9       -0.0000000962
    5    1   19    9        0.0000002215
    5    1   10   10        0.0000050075
    5    1   11   10        0.0000078947
    5    1   12   10        0.0000191777
    5    1   13   10        0.0000005663
    5    1   14   10        0.0000026279
    5    1   15   10       -0.0000038272
    5    1   16   10        0.0004919952
    5    1   17   10       -0.0002751038
    5    1   18   10        0.0000013005
    5    1   19   10        0.0000001673
    5    1   11   11       -0.0000015905
    5    1   12   11        0.0000458949
    5    1   13   11        0.0007011734
    5    1   14   11        0.0000038760
    5    1   15   11        0.0000009223
    5    1   16   11       -0.0002052813
    5    1   17   11        0.0001146996
    5    1   18   11        0.0000020532
    5    1   19   11        0.0002068747
    5    1   12   12        0.0000000001
    5    1   13   12        0.0000000047
    5    1   14   12       -0.0002477923
    5    1   15   12        0.0005378605
    5    1   16   12        0.0000000021
    5    1   17   12        0.0000000017
    5    1   18   12       -0.0000556805
    5    1   19   12        0.0000000001
    5    1   13   13        0.0000032088
    5    1   14   13       -0.0000109601
    5    1   15   13        0.0002899383
    5    1   16   13        0.0000022835
    5    1   17   13       -0.0000012256
    5    1   18   13        0.0000001297
    5    1   19   13       -0.0000000340
    5    1   14   14        0.0000041710
    5    1   15   14       -0.0000057062
    5    1   16   14       -0.0003571175
    5    1   17   14       -0.0000819153
    5    1   18   14        0.0000004752
    5    1   19   14       -0.0000159225
    5    1   15   15       -0.0000016275
    5    1   16   15       -0.0001646192
    5    1   17   15       -0.0000379210
    5    1   18   15       -0.0000006885
    5    1   19   15        0.0004209128
    5    1   16   16        0.0000037518
    5    1   17   16        0.0000003552
    5    1   18   16        0.0002182278
    5    1   19   16       -0.0000009413
    5    1   17   17        0.0000037381
    5    1   18   17        0.0002446165
    5    1   19   17       -0.0000027366
    5    1   18   18        0.0000042061
    5    1   19   18        0.0000002063
    5    1   19   19        0.0000032071
    6    1    6    1        0.0000189913
    6    1    7    1       -0.0000000002
    6    1    8    1        0.0000000001
    6    1    9    1        0.0000000001
    6    1   10    1       -0.0000000030
    6    1   11    1       -0.0000000150
    6    1   12    1        0.0000000000
    6    1   13    1        0.0000000001
    6    1   14    1        0.0000000027
    6    1   15    1       -0.0000000111
    6    1   16    1        0.0000249503
    6    1   17    1        0.0000013276
    6    1   18    1       -0.0000000018
    6    1   19    1        0.0000000002
    6    1    2    2        0.0000000002
    6    1    3    2       -0.0000000001
    6    1    4    2       -0.0000000268
    6    1    5    2       -0.0000001341
    6    1    6    2        0.0001206979
    6    1    7    2        0.0000000000
    6    1    8    2       -0.0000000000
    6    1    9    2        0.0000000000
    6    1   10    2       -0.0000000095
    6    1   11    2       -0.0000000472
    6    1   12    2       -0.0000000000
    6    1   13    2       -0.0000000002
    6    1   14    2        0.0000000013
    6    1   15    2       -0.0000000051
    6    1   16    2        0.0000760905
    6    1   17    2       -0.0000495899
    6    1   18    2        0.0000000002
    6    1   19    2       -0.0000000000
    6    1    3    3        0.0000000001
    6    1    4    3       -0.0000000189
    6    1    5    3       -0.0000000949
    6    1    6    3        0.0000704867
    6    1    7    3        0.0000000000
    6    1    8    3       -0.0000000001
    6    1    9    3       -0.0000000001
    6    1   10    3        0.0000000144
    6    1   11    3        0.0000000716
    6    1   12    3       -0.0000000000
    6    1   13    3       -0.0000000001
    6    1   14    3        0.0000000047
    6    1   15    3       -0.0000000196
    6    1   16    3        0.0000270263
    6    1   17    3        0.0000316212
    6    1   18    3       -0.0000000060
    6    1   19    3       -0.0000000000
    6    1    4    4        0.0000475573
    6    1    5    4        0.0001144261
    6    1    6    4       -0.0000000988
    6    1    7    4        0.0000000096
    6    1    8    4        0.0000000039
    6    1    9    4        0.0000000108
    6    1   10    4        0.0000608277
    6    1   11    4        0.0001460437
    6    1   12    4       -0.0000000304
    6    1   13    4       -0.0000000051
    6    1   14    4       -0.0000037807
    6    1   15    4        0.0000082344
    6    1   16    4       -0.0000000372
    6    1   17    4        0.0000000242
    6    1   18    4        0.0000218821
    6    1   19    4        0.0000000008
    6    1    5    5       -0.0000475897
    6    1    6    5        0.0000000197
    6    1    7    5        0.0000000479
    6    1    8    5        0.0000000194
    6    1    9    5        0.0000000540
    6    1   10    5        0.0001460068
    6    1   11    5       -0.0000608720
    6    1   12    5       -0.0000001529
    6    1   13    5       -0.0000000260
    6    1   14    5       -0.0000082031
    6    1   15    5       -0.0000038032
    6    1   16    5        0.0000000074
    6    1   17    5       -0.0000000048
    6    1   18    5        0.0000525549
    6    1   19    5        0.0000000038
    6    1    6    6        0.0000000001
    6    1    7    6       -0.0000735541
    6    1    8    6        0.0000028973
    6    1    9    6       -0.0001049027
    6    1   10    6       -0.0000000799
    6    1   11    6        0.0000000160
    6    1   12    6       -0.0000000000
    6    1   13    6        0.0000951811
    6    1   14    6       -0.0000000274
    6    1   15    6       -0.0000000076
    6    1   16    6        0.0000000003
    6    1   17    6       -0.0000000001
    6    1   18    6       -0.0000000575
    6    1   19    6       -0.0000029583
    6    1    7    7       -0.0000000000
    6    1    8    7       -0.0000000000
    6    1    9    7        0.0000000000
    6    1   10    7        0.0000000056
    6    1   11    7        0.0000000277
    6    1   12    7       -0.0000000000
    6    1   13    7        0.0000000003
    6    1   14    7       -0.0000000365
    6    1   15    7        0.0000001524
    6    1   16    7       -0.0001422928
    6    1   17    7       -0.0000010945
    6    1   18    7        0.0000000005
    6    1   19    7        0.0000000000
    6    1    8    8       -0.0000000000
    6    1    9    8        0.0000000000
    6    1   10    8        0.0000000046
    6    1   11    8        0.0000000232
    6    1   12    8       -0.0000000000
    6    1   13    8       -0.0000000001
    6    1   14    8        0.0000000099
    6    1   15    8       -0.0000000416
    6    1   16    8        0.0000379144
    6    1   17    8        0.0001178725
    6    1   18    8       -0.0000000310
    6    1   19    8       -0.0000000000
    6    1    9    9        0.0000000001
    6    1   10    9        0.0000000144
    6    1   11    9        0.0000000718
    6    1   12    9       -0.0000000000
    6    1   13    9        0.0000000002
    6    1   14    9       -0.0000000050
    6    1   15    9        0.0000000210
    6    1   16    9       -0.0000915529
    6    1   17    9        0.0000026368
    6    1   18    9        0.0000000052
    6    1   19    9        0.0000000001
    6    1   10   10        0.0000420876
    6    1   11   10        0.0001008249
    6    1   12   10        0.0000000157
    6    1   13   10       -0.0000000086
    6    1   14   10       -0.0000290913
    6    1   15   10        0.0000630311
    6    1   16   10       -0.0000000508
    6    1   17   10        0.0000000358
    6    1   18   10        0.0000080508
    6    1   19   10        0.0000000021
    6    1   11   11       -0.0000421329
    6    1   12   11        0.0000000785
    6    1   13   11       -0.0000000470
    6    1   14   11       -0.0000630927
    6    1   15   11       -0.0000291282
    6    1   16   11        0.0000000101
    6    1   17   11       -0.0000000072
    6    1   18   11        0.0000193024
    6    1   19   11        0.0000000104
    6    1   12   12        0.0000000001
    6    1   13   12       -0.0000000000
    6    1   14   12        0.0000000142
    6    1   15   12       -0.0000000596
    6    1   16   12       -0.0000000000
    6    1   17   12        0.0000000000
    6    1   18   12        0.0000000083
    6    1   19   12        0.0000000000
    6    1   13   13       -0.0000000003
    6    1   14   13       -0.0000000059
    6    1   15   13        0.0000000238
    6    1   16   13        0.0000689167
    6    1   17   13       -0.0000010224
    6    1   18   13       -0.0000000065
    6    1   19   13       -0.0000000001
    6    1   14   14        0.0000079193
    6    1   15   14       -0.0000156278
    6    1   16   14        0.0000000680
    6    1   17   14        0.0000000173
    6    1   18   14       -0.0000139459
    6    1   19   14        0.0000000054
    6    1   15   15       -0.0000079428
    6    1   16   15        0.0000000154
    6    1   17   15        0.0000000042
    6    1   18   15        0.0000302588
    6    1   19   15       -0.0000000227
    6    1   16   16        0.0000000008
    6    1   17   16        0.0000000004
    6    1   18   16       -0.0000000241
    6    1   19   16        0.0000484110
    6    1   17   17       -0.0000000001
    6    1   18   17       -0.0000000600
    6    1   19   17        0.0000862596
    6    1   18   18        0.0000087889
    6    1   19   18       -0.0000000025
    6    1   19   19       -0.0000000000
    7    1    7    1        0.0010939490
    7    1    8    1       -0.0008113350
    7    1    9    1       -0.0005494851
    7    1   10    1        0.0000000107
    7    1   11    1       -0.0000000022
    7    1   12    1        0.0000000002
    7    1   13    1       -0.0011150696
    7    1   14    1        0.0000000166
    7    1   15    1        0.0000000196
    7    1   16    1        0.0000000131
    7    1   17    1       -0.0000000150
    7    1   18    1        0.0000000012
    7    1   19    1       -0.0013215794
    7    1    2    2       -0.0010972985
    7    1    3    2        0.0004976185
    7    1    4    2        0.0000000814
    7    1    5    2       -0.0000000163
    7    1    6    2        0.0000000000
    7    1    7    2        0.0000327950
    7    1    8    2        0.0001034333
    7    1    9    2       -0.0002612895
    7    1   10    2        0.0000000289
    7    1   11    2       -0.0000000058
    7    1   12    2       -0.0000000000
    7    1   13    2        0.0000330865
    7    1   14    2       -0.0000000105
    7    1   15    2       -0.0000000033
    7    1   16    2       -0.0000000021
    7    1   17    2        0.0000000024
    7    1   18    2        0.0000000007
    7    1   19    2        0.0001726353
    7    1    3    3       -0.0004149524
    7    1    4    3        0.0000000591
    7    1    5    3       -0.0000000118
    7    1    6    3        0.0000000000
    7    1    7    3        0.0000335474
    7    1    8    3        0.0003806242
    7    1    9    3        0.0002505450
    7    1   10    3       -0.0000000470
    7    1   11    3        0.0000000094
    7    1   12    3        0.0000000000
    7    1   13    3       -0.0000012546
    7    1   14    3       -0.0000000213
    7    1   15    3       -0.0000000050
    7    1   16    3        0.0000000002
    7    1   17    3       -0.0000000009
    7    1   18    3        0.0000000187
    7    1   19    3        0.0001530657
    7    1    4    4       -0.0006619734
    7    1    5    4       -0.0000000001
    7    1    6    4        0.0000000111
    7    1    7    4       -0.0000000373
    7    1    8    4       -0.0000000081
    7    1    9    4       -0.0000000327
    7    1   10    4       -0.0004551345
    7    1   11    4        0.0000003688
    7    1   12    4       -0.0000000954
    7    1   13    4        0.0000000119
    7    1   14    4        0.0000040429
    7    1   15    4        0.0000001521
    7    1   16    4        0.0000000053
    7    1   17    4       -0.0000000028
    7    1   18    4        0.0003379419
    7    1   19    4        0.0000000010
    7    1    5    5       -0.0006619318
    7    1    6    5        0.0000000555
    7    1    7    5        0.0000000075
    7    1    8    5        0.0000000016
    7    1    9    5        0.0000000065
    7    1   10    5       -0.0000003689
    7    1   11    5       -0.0004553970
    7    1   12    5        0.0000000194
    7    1   13    5       -0.0000000024
    7    1   14    5        0.0000000571
    7    1   15    5       -0.0000034360
    7    1   16    5        0.0000000260
    7    1   17    5       -0.0000000137
    7    1   18    5        0.0000001648
    7    1   19    5        0.0000000002
    7    1    6    6       -0.0003110609
    7    1    7    6       -0.0000000000
    7    1    8    6       -0.0000000000
    7    1    9    6       -0.0000000000
    7    1   10    6        0.0000000097
    7    1   11    6        0.0000000485
    7    1   12    6        0.0000000000
    7    1   13    6        0.0000000002
    7    1   14    6        0.0000000022
    7    1   15    6       -0.0000000094
    7    1   16    6       -0.0000755464
    7    1   17    6        0.0003851335
    7    1   18    6        0.0000000076
    7    1   19    6        0.0000000000
    7    1    7    7       -0.0001742165
    7    1    8    7        0.0000552926
    7    1    9    7       -0.0000293363
    7    1   10    7       -0.0000000137
    7    1   11    7        0.0000000028
    7    1   12    7       -0.0000000000
    7    1   13    7        0.0000500086
    7    1   14    7        0.0000000961
    7    1   15    7        0.0000000222
    7    1   16    7       -0.0000000011
    7    1   17    7       -0.0000000009
    7    1   18    7       -0.0000000056
    7    1   19    7        0.0001853462
    7    1    8    8        0.0001344330
    7    1    9    8       -0.0001861554
    7    1   10    8       -0.0000000142
    7    1   11    8        0.0000000029
    7    1   12    8       -0.0000000000
    7    1   13    8        0.0000654755
    7    1   14    8       -0.0000000287
    7    1   15    8       -0.0000000081
    7    1   16    8       -0.0000000021
    7    1   17    8        0.0000000012
    7    1   18    8        0.0000001009
    7    1   19    8        0.0002701351
    7    1    9    9       -0.0002502501
    7    1   10    9       -0.0000000445
    7    1   11    9        0.0000000089
    7    1   12    9       -0.0000000000
    7    1   13    9        0.0000403704
    7    1   14    9        0.0000000154
    7    1   15    9        0.0000000034
    7    1   16    9        0.0000000010
    7    1   17    9        0.0000000003
    7    1   18    9       -0.0000000163
    7    1   19    9       -0.0004146183
    7    1   10   10       -0.0004763611
    7    1   11   10        0.0000000001
    7    1   12   10        0.0000000474
    7    1   13   10        0.0000000317
    7    1   14   10        0.0000248934
    7    1   15   10        0.0000009167
    7    1   16   10        0.0000000068
    7    1   17   10       -0.0000000038
    7    1   18   10       -0.0001969082
    7    1   19   10       -0.0000000014
    7    1   11   11       -0.0004764333
    7    1   12   11       -0.0000000097
    7    1   13   11       -0.0000000067
    7    1   14   11        0.0000009685
    7    1   15   11       -0.0000251917
    7    1   16   11        0.0000000334
    7    1   17   11       -0.0000000191
    7    1   18   11        0.0000000635
    7    1   19   11        0.0000000000
    7    1   12   12       -0.0004558333
    7    1   13   12       -0.0000000000
    7    1   14   12        0.0000000457
    7    1   15   12        0.0000000109
    7    1   16   12        0.0000000000
    7    1   17   12       -0.0000000000
    7    1   18   12        0.0000000221
    7    1   19   12       -0.0000000000
    7    1   13   13       -0.0001883573
    7    1   14   13        0.0000000179
    7    1   15   13        0.0000000040
    7    1   16   13        0.0000000014
    7    1   17   13        0.0000000011
    7    1   18   13        0.0000000211
    7    1   19   13        0.0000076890
    7    1   14   14       -0.0002468564
    7    1   15   14       -0.0000000087
    7    1   16   14       -0.0000000094
    7    1   17   14       -0.0000000023
    7    1   18   14       -0.0000240637
    7    1   19   14       -0.0000000114
    7    1   15   15       -0.0002467780
    7    1   16   15        0.0000000393
    7    1   17   15        0.0000000099
    7    1   18   15       -0.0000008940
    7    1   19   15       -0.0000000036
    7    1   16   16       -0.0002180799
    7    1   17   16       -0.0000064609
    7    1   18   16        0.0000000036
    7    1   19   16       -0.0000000034
    7    1   17   17        0.0001003106
    7    1   18   17        0.0000000071
    7    1   19   17        0.0000000021
    7    1   18   18        0.0002495162
    7    1   19   18        0.0000000066
    7    1   19   19        0.0003458995
    8    1    8    1        0.0007102432
    8    1    9    1        0.0002817471
    8    1   10    1       -0.0000000037
    8    1   11    1        0.0000000007
    8    1   12    1       -0.0000000002
    8    1   13    1        0.0008143012
    8    1   14    1       -0.0000000149
    8    1   15    1       -0.0000000155
    8    1   16    1       -0.0000000116
    8    1   17    1        0.0000000135
    8    1   18    1        0.0000000013
    8    1   19    1        0.0011714881
    8    1    2    2       -0.0002363374
    8    1    3    2        0.0000982098
    8    1    4    2       -0.0000000084
    8    1    5    2        0.0000000016
    8    1    6    2       -0.0000000000
    8    1    7    2        0.0001830066
    8    1    8    2       -0.0000924120
    8    1    9    2       -0.0000429747
    8    1   10    2       -0.0000000005
    8    1   11    2        0.0000000001
    8    1   12    2        0.0000000000
    8    1   13    2       -0.0002008715
    8    1   14    2        0.0000000139
    8    1   15    2        0.0000000061
    8    1   16    2        0.0000000023
    8    1   17    2       -0.0000000023
    8    1   18    2       -0.0000000114
    8    1   19    2       -0.0001960288
    8    1    3    3       -0.0000588151
    8    1    4    3       -0.0000000130
    8    1    5    3        0.0000000026
    8    1    6    3        0.0000000000
    8    1    7    3       -0.0000745999
    8    1    8    3        0.0000507369
    8    1    9    3        0.0000389071
    8    1   10    3        0.0000000174
    8    1   11    3       -0.0000000034
    8    1   12    3       -0.0000000000
    8    1   13    3        0.0000953462
    8    1   14    3        0.0000000105
    8    1   15    3        0.0000000012
    8    1   16    3       -0.0000000010
    8    1   17    3        0.0000000010
    8    1   18    3       -0.0000000316
    8    1   19    3        0.0000734414
    8    1    4    4       -0.0000960744
    8    1    5    4        0.0000000001
    8    1    6    4       -0.0000000011
    8    1    7    4        0.0000000132
    8    1    8    4       -0.0000000234
    8    1    9    4        0.0000000034
    8    1   10    4       -0.0000967110
    8    1   11    4        0.0000000781
    8    1   12    4        0.0000000142
    8    1   13    4       -0.0000000012
    8    1   14    4        0.0000958230
    8    1   15    4        0.0000036059
    8    1   16    4       -0.0000000020
    8    1   17    4       -0.0000000031
    8    1   18    4       -0.0000472918
    8    1   19    4       -0.0000000086
    8    1    5    5       -0.0000961454
    8    1    6    5       -0.0000000056
    8    1    7    5       -0.0000000026
    8    1    8    5        0.0000000047
    8    1    9    5       -0.0000000007
    8    1   10    5       -0.0000000784
    8    1   11    5       -0.0000967879
    8    1   12    5       -0.0000000029
    8    1   13    5       -0.0000000009
    8    1   14    5        0.0000036179
    8    1   15    5       -0.0000959122
    8    1   16    5       -0.0000000101
    8    1   17    5       -0.0000000156
    8    1   18    5       -0.0000000231
    8    1   19    5        0.0000000016
    8    1    6    6       -0.0000234859
    8    1    7    6        0.0000000000
    8    1    8    6       -0.0000000000
    8    1    9    6       -0.0000000000
    8    1   10    6       -0.0000000008
    8    1   11    6       -0.0000000041
    8    1   12    6       -0.0000000000
    8    1   13    6        0.0000000000
    8    1   14    6        0.0000000012
    8    1   15    6       -0.0000000051
    8    1   16    6       -0.0000214455
    8    1   17    6        0.0000171473
    8    1   18    6       -0.0000000044
    8    1   19    6       -0.0000000000
    8    1    7    7       -0.0000831790
    8    1    8    7        0.0000543489
    8    1    9    7        0.0000248156
    8    1   10    7        0.0000000035
    8    1   11    7       -0.0000000007
    8    1   12    7       -0.0000000000
    8    1   13    7        0.0000728195
    8    1   14    7       -0.0000000272
    8    1   15    7       -0.0000000075
    8    1   16    7       -0.0000000009
    8    1   17    7        0.0000000011
    8    1   18    7        0.0000000054
    8    1   19    7        0.0000927371
    8    1    8    8       -0.0000578808
    8    1    9    8       -0.0000054119
    8    1   10    8        0.0000000168
    8    1   11    8       -0.0000000034
    8    1   12    8        0.0000000000
    8    1   13    8       -0.0000587780
    8    1   14    8        0.0000000106
    8    1   15    8        0.0000000034
    8    1   16    8        0.0000000010
    8    1   17    8       -0.0000000010
    8    1   18    8       -0.0000000488
    8    1   19    8       -0.0000997318
    8    1    9    9       -0.0000397783
    8    1   10    9        0.0000000094
    8    1   11    9       -0.0000000019
    8    1   12    9        0.0000000000
    8    1   13    9       -0.0000333970
    8    1   14    9       -0.0000000069
    8    1   15    9       -0.0000000013
    8    1   16    9        0.0000000003
    8    1   17    9       -0.0000000003
    8    1   18    9        0.0000000046
    8    1   19    9       -0.0000179673
    8    1   10   10       -0.0001165302
    8    1   11   10       -0.0000000002
    8    1   12   10       -0.0000000123
    8    1   13   10       -0.0000000033
    8    1   14   10        0.0000889769
    8    1   15   10        0.0000032761
    8    1   16   10       -0.0000000020
    8    1   17   10       -0.0000000004
    8    1   18   10       -0.0000706667
[...]
   16   13   16   16       -0.0000000131
   16   13   17   16        0.0000000014
   16   13   18   16       -0.0000103052
   16   13   19   16       -0.0001918655
   16   13   17   17       -0.0000000032
   16   13   18   17        0.0000081381
   16   13   19   17        0.0002822012
   16   13   18   18        0.0001461564
   16   13   19   18       -0.0000016662
   16   13   19   19        0.0000000002
   17   13   17   13        0.0020884178
   17   13   18   13       -0.0000022716
   17   13   19   13        0.0000000000
   17   13   14   14       -0.0000929590
   17   13   15   14        0.0001834741
   17   13   16   14        0.0000024643
   17   13   17   14       -0.0000103168
   17   13   18   14        0.0001555240
   17   13   19   14       -0.0000021172
   17   13   15   15        0.0000932585
   17   13   16   15        0.0000006001
   17   13   17   15       -0.0000024643
   17   13   18   15       -0.0003365693
   17   13   19   15        0.0000088154
   17   13   16   16        0.0000000033
   17   13   17   16        0.0000000075
   17   13   18   16       -0.0000004875
   17   13   19   16       -0.0000151685
   17   13   17   17       -0.0000000033
   17   13   18   17       -0.0000298199
   17   13   19   17        0.0003350846
   17   13   18   18        0.0003729711
   17   13   19   18       -0.0000028330
   17   13   19   19       -0.0000000027
   18   13   18   13        0.0011040447
   18   13   19   13        0.0000074105
   18   13   14   14       -0.0000205751
   18   13   15   14       -0.0000063350
   18   13   16   14       -0.0001901064
   18   13   17   14        0.0000013670
   18   13   18   14       -0.0000045102
   18   13   19   14       -0.0004832275
   18   13   15   15       -0.0000083424
   18   13   16   15        0.0004124898
   18   13   17   15       -0.0000023385
   18   13   18   15       -0.0000018335
   18   13   19   15       -0.0000179546
   18   13   16   16       -0.0000421278
   18   13   17   16       -0.0000015784
   18   13   18   16        0.0001595195
   18   13   19   16       -0.0000005601
   18   13   17   17       -0.0000526454
   18   13   18   17        0.0002848907
   18   13   19   17       -0.0000011237
   18   13   18   18       -0.0000264532
   18   13   19   18        0.0000758414
   18   13   19   19       -0.0000416341
   19   13   19   13        0.0033054790
   19   13   14   14        0.0008178719
   19   13   15   14       -0.0000004212
   19   13   16   14       -0.0000033548
   19   13   17   14       -0.0000026612
   19   13   18   14       -0.0015200531
   19   13   19   14       -0.0000267031
   19   13   15   15        0.0008220265
   19   13   16   15        0.0000139714
   19   13   17   15        0.0000110931
   19   13   18   15       -0.0000564928
   19   13   19   15       -0.0000063957
   19   13   16   16        0.0000712231
   19   13   17   16        0.0004334452
   19   13   18   16       -0.0000011545
   19   13   19   16        0.0000000065
   19   13   17   17        0.0017225163
   19   13   18   17       -0.0000020857
   19   13   19   17       -0.0000000024
   19   13   18   18        0.0007776813
   19   13   19   18       -0.0000058826
   19   13   19   19        0.0008991666
   14   14   14   14        0.0782160672
   14   14   15   14        0.0016051153
   14   14   16   14       -0.0000133389
   14   14   17   14       -0.0000032846
   14   14   18   14       -0.0020776637
   14   14   19   14       -0.0000122421
   14   14   15   15        0.0676363351
   14   14   16   15        0.0000088299
   14   14   17   15        0.0000033835
   14   14   18   15       -0.0007472772
   14   14   19   15       -0.0000013043
   14   14   16   16        0.0670283047
   14   14   17   16        0.0019419293
   14   14   18   16        0.0000025004
   14   14   19   16        0.0002490924
   14   14   17   17        0.0632333606
   14   14   18   17        0.0000116751
   14   14   19   17        0.0002399188
   14   14   18   18        0.0690428121
   14   14   19   18        0.0000376954
   14   14   19   19        0.0627109408
   15   14   15   14        0.0029402456
   15   14   16   14        0.0000167130
   15   14   17   14        0.0000035052
   15   14   18   14       -0.0007325341
   15   14   19   14       -0.0000070393
   15   14   15   15       -0.0016074611
   15   14   16   15        0.0000226981
   15   14   17   15        0.0000057720
   15   14   18   15        0.0001760876
   15   14   19   15       -0.0000049331
   15   14   16   16       -0.0000003390
   15   14   17   16       -0.0000003473
   15   14   18   16       -0.0000080436
   15   14   19   16       -0.0004914451
   15   14   17   17       -0.0000006140
   15   14   18   17       -0.0000150665
   15   14   19   17       -0.0004733193
   15   14   18   18        0.0017061229
   15   14   19   18        0.0000180073
   15   14   19   19        0.0000000968
   16   14   16   14        0.0040140164
   16   14   17   14        0.0008328959
   16   14   18   14        0.0000014613
   16   14   19   14        0.0005398828
   16   14   15   15        0.0000245893
   16   14   16   15       -0.0000000265
   16   14   17   15       -0.0000002617
   16   14   18   15        0.0000019388
   16   14   19   15       -0.0010655311
   16   14   16   16        0.0000248416
   16   14   17   16        0.0000015134
   16   14   18   16        0.0000531946
   16   14   19   16        0.0000132628
   16   14   17   17        0.0000206723
   16   14   18   17       -0.0020388210
   16   14   19   17        0.0000188421
   16   14   18   18       -0.0000122761
   16   14   19   18       -0.0003235276
   16   14   19   19        0.0000134020
   17   14   17   14        0.0011592351
   17   14   18   14        0.0000010666
   17   14   19   14        0.0003873779
   17   14   15   15        0.0000057908
   17   14   16   15       -0.0000005911
   17   14   17   15       -0.0000000637
   17   14   18   15        0.0000008617
   17   14   19   15       -0.0007639686
   17   14   16   16        0.0000052094
   17   14   17   16        0.0000020814
   17   14   18   16       -0.0004875372
   17   14   19   16        0.0000041490
   17   14   17   17        0.0000016693
   17   14   18   17       -0.0001049902
   17   14   19   17        0.0000069791
   17   14   18   18       -0.0000043566
   17   14   19   18        0.0000541509
   17   14   19   19        0.0000026712
   18   14   18   14        0.0030865922
   18   14   19   14        0.0000118997
   18   14   15   15       -0.0001641851
   18   14   16   15       -0.0000117368
   18   14   17   15       -0.0000087351
   18   14   18   15        0.0002539322
   18   14   19   15        0.0000051867
   18   14   16   16       -0.0011164095
   18   14   17   16       -0.0010763277
   18   14   18   16       -0.0000005476
   18   14   19   16       -0.0000215039
   18   14   17   17       -0.0018924994
   18   14   18   17       -0.0000026770
   18   14   19   17       -0.0000009333
   18   14   18   18       -0.0026168126
   18   14   19   18       -0.0000050325
   18   14   19   19       -0.0015728567
   19   14   19   14        0.0017849163
   19   14   15   15        0.0000191067
   19   14   16   15       -0.0010647032
   19   14   17   15       -0.0007644429
   19   14   18   15        0.0000043877
   19   14   19   15       -0.0000000649
   19   14   16   16        0.0000339074
   19   14   17   16        0.0000044155
   19   14   18   16       -0.0000859891
   19   14   19   16        0.0000019188
   19   14   17   17        0.0000141006
   19   14   18   17       -0.0000271135
   19   14   19   17        0.0000029617
   19   14   18   18       -0.0000062041
   19   14   19   18       -0.0003404386
   19   14   19   19        0.0000002057
   15   15   15   15        0.0782292100
   15   15   16   15       -0.0000558201
   15   15   17   15       -0.0000138613
   15   15   18   15        0.0006647736
   15   15   19   15        0.0000029018
   15   15   16   16        0.0670317616
   15   15   17   16        0.0019451924
   15   15   18   16       -0.0000061501
   15   15   19   16       -0.0002492541
   15   15   17   17        0.0632392650
   15   15   18   17       -0.0000199372
   15   15   19   17       -0.0002400238
   15   15   18   18        0.0618524442
   15   15   19   18       -0.0000298160
   15   15   19   19        0.0627133792
   16   15   16   15        0.0040141698
   16   15   17   15        0.0008369509
   16   15   18   15       -0.0000036904
   16   15   19   15       -0.0005403722
   16   15   16   16       -0.0001039314
   16   15   17   16       -0.0000063367
   16   15   18   16        0.0000019717
   16   15   19   16        0.0000031716
   16   15   17   17       -0.0000864951
   16   15   18   17       -0.0000756665
   16   15   19   17        0.0000045036
   16   15   18   18       -0.0000049212
   16   15   19   18        0.0007018848
   16   15   19   19       -0.0000560901
   17   15   17   15        0.0011600439
   17   15   18   15       -0.0000028403
   17   15   19   15       -0.0003875108
   17   15   16   16       -0.0000218273
   17   15   17   16       -0.0000087079
   17   15   18   16       -0.0000181063
   17   15   19   16        0.0000009948
   17   15   17   17       -0.0000070330
   17   15   18   17       -0.0000038858
   17   15   19   17        0.0000016732
   17   15   18   18        0.0000022849
   17   15   19   18       -0.0001157665
   17   15   19   19       -0.0000111945
   18   15   18   15        0.0008831337
   18   15   19   15       -0.0000030350
   18   15   16   16       -0.0000414640
   18   15   17   16       -0.0000399720
   18   15   18   16       -0.0000015650
   18   15   19   16        0.0000465732
   18   15   17   17       -0.0000702885
   18   15   18   17        0.0000030118
   18   15   19   17        0.0000023079
   18   15   18   18       -0.0007185480
   18   15   19   18       -0.0000029046
   18   15   19   19       -0.0000585361
   19   15   19   15        0.0017860991
   19   15   16   16        0.0000081053
   19   15   17   16        0.0000010523
   19   15   18   16        0.0001866496
   19   15   19   16       -0.0000080305
   19   15   17   17        0.0000033609
   19   15   18   17        0.0000603225
   19   15   19   17       -0.0000123978
   19   15   18   18        0.0000032231
   19   15   19   18       -0.0000126983
   19   15   19   19        0.0000000217
   16   16   16   16        0.0695585815
   16   16   17   16        0.0018719895
   16   16   18   16       -0.0000031494
   16   16   19   16       -0.0000000011
   16   16   17   17        0.0645159959
   16   16   18   17       -0.0000140500
   16   16   19   17        0.0000000240
   16   16   18   18        0.0630082110
   16   16   19   18       -0.0000086336
   16   16   19   19        0.0602061988
   17   16   17   16        0.0023678035
   17   16   18   16       -0.0000023001
   17   16   19   16        0.0000000110
   17   16   17   17        0.0010025843
   17   16   18   17       -0.0000008921
   17   16   19   17        0.0000000133
   17   16   18   18        0.0009633817
   17   16   19   18       -0.0000011713
   17   16   19   19        0.0012785951
   18   16   18   16        0.0012200138
   18   16   19   16        0.0000016125
   18   16   17   17       -0.0000030626
   18   16   18   17        0.0002980223
   18   16   19   17       -0.0000024702
   18   16   18   18        0.0000008278
   18   16   19   18        0.0001047824
   18   16   19   19       -0.0000014883
   19   16   19   16        0.0011216021
   19   16   17   17       -0.0000000140
   19   16   18   17       -0.0000045024
   19   16   19   17        0.0009809537
   19   16   18   18       -0.0000514684
   19   16   19   18       -0.0000004175
   19   16   19   19       -0.0000000153
   17   17   17   17        0.0730098745
   17   17   18   17       -0.0000232610
   17   17   19   17        0.0000000006
   17   17   18   18        0.0672170321
   17   17   19   18       -0.0000307568
   17   17   19   19        0.0625931959
   18   17   18   17        0.0042138671
   18   17   19   17       -0.0000137750
   18   17   18   18        0.0000124950
   18   17   19   18        0.0007354770
   18   17   19   19       -0.0000073351
   19   17   19   17        0.0031924308
   19   17   18   18        0.0000910024
   19   17   19   18       -0.0000022340
   19   17   19   19        0.0000000016
   18   18   18   18        0.0758630307
   18   18   19   18        0.0000553501
   18   18   19   19        0.0647407254
   19   18   19   18        0.0036353308
   19   18   19   19        0.0000596348
   19   19   19   19        0.0653328363
 end_two_electron_integrals


 output epsi filename:./pspw_hf_LiH.emovecs

 Total PSPW energy     :  -0.7388943609E+00


=== Spin Contamination ===

 <Sexact^2> =    0.0000000000000000     
 <S^2>      =    0.0000000000000000     



== Center of Charge ==

spin up     (    0.0000,    0.0000,    2.2643 )
spin down   (    0.0000,    0.0000,    2.2643 )
     total  (    0.0000,    0.0000,    2.2643 )
ionic       (    0.0000,    0.0000,    0.8976 )


== Molecular Dipole wrt Center of Mass ==

mu   =  (   -0.0000,   -0.0000,   -2.7334 ) au
|mu| =     2.7334 au,       6.9472 Debye

 output psi filename:./pspw_hf_LiH.movecs

 Writing Crystallographic Information File:./LiH.cif
   - cell not shifted (nwpw:cif_shift_cell .false.)


== Timing ==

cputime in seconds
  prologue    :   0.891529E+02
  main loop   :   0.107518E+04
  epilogue    :   0.806727E-01
  total       :   0.116441E+04
  cputime/step:   0.839983E+01       (     128 evalulations,      58 linesearches)


Time spent doing                        total          step       percent
  total time                 :   0.116442E+04  0.909705E+01       100.0 %
  i/o time                   :   0.241730E+01  0.188851E-01         0.2 %
  FFTs                       :   0.850310E+03  0.664305E+01        73.0 %
  dot products               :   0.505030E+01  0.394555E-01         0.4 %
  geodesic                   :   0.100093E+00  0.781978E-03         0.0 %
  ffm_dgemm                  :   0.226536E-01  0.176982E-03         0.0 %
  fmf_dgemm                  :   0.445888E-01  0.348350E-03         0.0 %
  mmm_dgemm                  :   0.310002E-02  0.242189E-04         0.0 %
  m_diagonalize              :   0.139901E-02  0.109298E-04         0.0 %
  local pseudopotentials     :   0.600774E-02  0.469355E-04         0.0 %
  non-local pseudopotentials :   0.260094E+01  0.203199E-01         0.2 %
  structure factors          :   0.498538E+00  0.389483E-02         0.0 %
  phase factors              :   0.126490E-04  0.988203E-07         0.0 %
  masking and packing        :   0.593498E+02  0.463670E+00         5.1 %
  queue fft                  :   0.150035E+01  0.117215E-01         0.1 %
  queue fft (serial)         :   0.542903E+00  0.424143E-02         0.0 %
  queue fft (message passing):   0.888406E+00  0.694067E-02         0.1 %
  HFX potential              :   0.676266E+03  0.528333E+01        58.1 %
  non-local psp FFM          :   0.205071E+01  0.160212E-01         0.2 %
  non-local psp FMF          :   0.139806E+00  0.109223E-02         0.0 %
  non-local psp FFM A        :   0.249530E+00  0.194946E-02         0.0 %
  non-local psp FFM B        :   0.219904E+00  0.171800E-02         0.0 %

== HFX Counters ==
  HFX Evalulations         =   128
  Lin ACE HFX Evalulations =     0


     >>>  JOB COMPLETED     AT Mon May  5 02:46:54 2025  <<<

 Task  times  cpu:     1088.7s     wall:     1164.4s


                                NWChem Input Module
                                -------------------


 Summary of allocated global arrays
-----------------------------------
  No active global arrays


MA_summarize_allocated_blocks: starting scan ...
MA_summarize_allocated_blocks: scan completed: 0 heap blocks, 0 stack blocks
MA usage statistics:

	allocation statistics:
					      heap	     stack
					      ----	     -----
	current number of blocks	         0	         0
	maximum number of blocks	       315	        19
	current total bytes		         0	         0
	maximum total bytes		 127233560	  29398984
	maximum total K-bytes		    127234	     29399
	maximum total M-bytes		       128	        30


                                     CITATION
                                     --------
                Please cite the following reference when publishing
                           results obtained with NWChem:

          E. Apra, E. J. Bylaska, W. A. de Jong, N. Govind, K. Kowalski,
       T. P. Straatsma, M. Valiev, H. J. J. van Dam, Y. Alexeev, J. Anchell,
       V. Anisimov, F. W. Aquino, R. Atta-Fynn, J. Autschbach, N. P. Bauman,
     J. C. Becca, D. E. Bernholdt, K. Bhaskaran-Nair, S. Bogatko, P. Borowski,
         J. Boschen, J. Brabec, A. Bruner, E. Cauet, Y. Chen, G. N. Chuev,
      C. J. Cramer, J. Daily, M. J. O. Deegan, T. H. Dunning Jr., M. Dupuis,
   K. G. Dyall, G. I. Fann, S. A. Fischer, A. Fonari, H. Fruchtl, L. Gagliardi,
      J. Garza, N. Gawande, S. Ghosh, K. Glaesemann, A. W. Gotz, J. Hammond,
       V. Helms, E. D. Hermes, K. Hirao, S. Hirata, M. Jacquelin, L. Jensen,
   B. G. Johnson, H. Jonsson, R. A. Kendall, M. Klemm, R. Kobayashi, V. Konkov,
      S. Krishnamoorthy, M. Krishnan, Z. Lin, R. D. Lins, R. J. Littlefield,
      A. J. Logsdail, K. Lopata, W. Ma, A. V. Marenich, J. Martin del Campo,
   D. Mejia-Rodriguez, J. E. Moore, J. M. Mullin, T. Nakajima, D. R. Nascimento,
    J. A. Nichols, P. J. Nichols, J. Nieplocha, A. Otero-de-la-Roza, B. Palmer,
    A. Panyala, T. Pirojsirikul, B. Peng, R. Peverati, J. Pittner, L. Pollack,
   R. M. Richard, P. Sadayappan, G. C. Schatz, W. A. Shelton, D. W. Silverstein,
   D. M. A. Smith, T. A. Soares, D. Song, M. Swart, H. L. Taylor, G. S. Thomas,
            V. Tipparaju, D. G. Truhlar, K. Tsemekhman, T. Van Voorhis,
      A. Vazquez-Mayagoitia, P. Verma, O. Villa, A. Vishnu, K. D. Vogiatzis,
        D. Wang, J. H. Weare, M. J. Williamson, T. L. Windus, K. Wolinski,
        A. T. Wong, Q. Wu, C. Yang, Q. Yu, M. Zacharias, Z. Zhang, Y. Zhao,
                                and R. J. Harrison
                        "NWChem: Past, present, and future
                         J. Chem. Phys. 152, 184102 (2020)
                               doi:10.1063/5.0004997

                                      AUTHORS
                                      -------
  E. Apra, E. J. Bylaska, N. Govind, K. Kowalski, M. Valiev, D. Mejia-Rodriguez,
       A. Kunitsa, N. P. Bauman, A. Panyala, W. A. de Jong, T. P. Straatsma,
   H. J. J. van Dam, D. Wang, T. L. Windus, J. Hammond, J. Autschbach, A. Woods,
    K. Bhaskaran-Nair, J. Brabec, K. Lopata, S. A. Fischer, S. Krishnamoorthy,
     M. Jacquelin, W. Ma, M. Klemm, O. Villa, Y. Chen, V. Anisimov, F. Aquino,
     S. Hirata, M. T. Hackler, E. Hermes, L. Jensen, J. E. Moore, J. C. Becca,
      V. Konjkov, T. Risthaus, M. Malagoli, A. Marenich, A. Otero-de-la-Roza,
        J. Mullin, P. Nichols, R. Peverati, J. Pittner, Y. Zhao, P.-D. Fan,
        A. Fonari, M. J. Williamson, R. J. Harrison, J. R. Rehr, M. Dupuis,
     D. Silverstein, D. M. A. Smith, J. Nieplocha, V. Tipparaju, M. Krishnan,
     B. E. Van Kuiken, A. Vazquez-Mayagoitia, M. Swart, Q. Wu, T. Van Voorhis,
     A. A. Auer, M. Nooijen, L. D. Crosby, E. Brown, G. Cisneros, G. I. Fann,
   H. Fruchtl, J. Garza, K. Hirao, R. A. Kendall, J. A. Nichols, K. Tsemekhman,
    K. Wolinski, J. Anchell, D. E. Bernholdt, P. Borowski, T. Clark, D. Clerc,
   H. Dachsel, M. J. O. Deegan, K. Dyall, D. Elwood, E. Glendening, M. Gutowski,
   A. C. Hess, J. Jaffe, B. G. Johnson, J. Ju, R. Kobayashi, R. Kutteh, Z. Lin,
   R. Littlefield, X. Long, B. Meng, T. Nakajima, S. Niu, L. Pollack, M. Rosing,
   K. Glaesemann, G. Sandrone, M. Stave, H. Taylor, G. Thomas, J. H. van Lenthe,
                               A. T. Wong, Z. Zhang.

 Total times  cpu:     1088.8s     wall:     1164.5s
