 argument  1 = ../data/PW_LiH_data/3x3_aperiodic/NWChem/18nocovo/H1Li1-4.5.nw



============================== echo of input deck ==============================
title "swnc: e theory=pspw4 xc=pbe formula=LiH charge=0 mult=1"
#machinejob:expert

echo

start pspw_hf_LiH

memory heap 1200 mb stack 2400 mb global 400 mb

charge 0

geometry
Li    0.00000    0.00000   -2.25000
H     0.00000    0.00000    2.25000
end

nwpw
  ### pseudopotential block begin ###
  ### pseudopotential block end   ###
  simulation_cell
     SC 28.345889835
     boundary_conditions aperiodic
  end

  cutoff 50.0
  mult 1
  xc hf
  lmbfgs
  tolerances 1.0e-9 1.0e-9

  virtual 18
end
set nwpw:cif_filename LiH

#set nwpw:CI_maxit_orb 15
#set nwpw:CI_maxit_linesearch 15

set nwpw:2qintegrals .true.
#set nwpw:3x3_virtual .true.

task pspw energy
================================================================================


                                         
                                         


             Northwest Computational Chemistry Package (NWChem) 7.2.3
             --------------------------------------------------------


                    Environmental Molecular Sciences Laboratory
                       Pacific Northwest National Laboratory
                                Richland, WA 99352

                              Copyright (c) 1994-2022
                       Pacific Northwest National Laboratory
                            Battelle Memorial Institute

             NWChem is an open-source computational chemistry package
                        distributed under the terms of the
                      Educational Community License (ECL) 2.0
             A copy of the license is included with this distribution
                              in the LICENSE.TXT file

                                  ACKNOWLEDGMENT
                                  --------------

            This software and its documentation were developed at the
            EMSL at Pacific Northwest National Laboratory, a multiprogram
            national laboratory, operated for the U.S. Department of Energy
            by Battelle under Contract Number DE-AC05-76RL01830. Support
            for this work was provided by the Department of Energy Office
            of Biological and Environmental Research, Office of Basic
            Energy Sciences, and the Office of Advanced Scientific Computing.


           Job information
           ---------------

    hostname        = mqs-al
    program         = nwchem
    date            = Mon May  5 05:21:25 2025

    compiled        = Thu_Oct_31_08:55:15_2024
    source          = /home/conda/feedstock_root/build_artifacts/nwchem_1730356057992/work
    nwchem branch   = 7.2.3
    nwchem revision = c400b04
    ga revision     = 5.8.0
    use scalapack   = T
    input           = ../data/PW_LiH_data/3x3_aperiodic/NWChem/18nocovo/H1Li1-4.5.nw
    prefix          = pspw_hf_LiH.
    data base       = ./pspw_hf_LiH.db
    status          = startup
    nproc           =       24
    time left       =     -1s



           Memory information
           ------------------

    heap     =  157286398 doubles =   1200.0 Mbytes
    stack    =  314572795 doubles =   2400.0 Mbytes
    global   =   52428800 doubles =    400.0 Mbytes (distinct from heap & stack)
    total    =  524287993 doubles =   4000.0 Mbytes
    verify   = yes
    hardfail = no 


           Directory information
           ---------------------

  0 permanent = .
  0 scratch   = .




                                NWChem Input Module
                                -------------------


              swnc: e theory=pspw4 xc=pbe formula=LiH charge=0 mult=1
              -------------------------------------------------------

 Scaling coordinates for geometry "geometry" by  1.889725989
 (inverse scale =  0.529177249)

  zeroes
  zeroes
  zeroes
  zeroes
  zeroes
  zeroes
  zeroes
  zeroes
  zeroes
  zeroes
  zeroes
  zeroes
  zeroes
  zeroes
  zeroes
  zeroes
  zeroes
  zeroes
  zeroes
  zeroes
  zeroes
  zeroes
  zeroes
  zeroes
  zeroes
  zeroes
  zeroes
  zeroes
  zeroes
  zeroes
  zeroes
  zeroes
  zeroes
  zeroes
  zeroes
  zeroes
  zeroes
  zeroes
  zeroes
  zeroes
  zeroes
  zeroes
  zeroes
  zeroes
  zeroes
  zeroes
  zeroes
  zeroes
 ORDER OF PRIMARY AXIS IS BEING SET TO 4
 C4V symmetry detected

          ------
          auto-z
          ------
     1 autoz failed with cvr_scaling = 1.2 changing to 1.3
     2 autoz failed with cvr_scaling = 1.3 changing to 1.4
     3 autoz failed with cvr_scaling = 1.4 changing to 1.5
     4 autoz failed with cvr_scaling = 1.5 changing to 1.6
     5 autoz failed with cvr_scaling = 1.6 changing to 1.7

 AUTOZ failed to generate good internal coordinates.
 Cartesian coordinates will be used in optimizations.



                             Geometry "geometry" -> ""
                             -------------------------

 Output coordinates in angstroms (scale by  1.889725989 to convert to a.u.)

  No.       Tag          Charge          X              Y              Z
 ---- ---------------- ---------- -------------- -------------- --------------
    1 Li                   3.0000     0.00000000     0.00000000    -1.12500000
    2 H                    1.0000     0.00000000     0.00000000     3.37500000

      Atomic Mass 
      ----------- 

      Li                 7.016000
      H                  1.007825


 Effective nuclear repulsion energy (a.u.)       0.3527848327

            Nuclear Dipole moment (a.u.) 
            ----------------------------
        X                 Y               Z
 ---------------- ---------------- ----------------
     0.0000000000     0.0000000000     0.0000000000

      Symmetry information
      --------------------

 Group name             C4v       
 Group number             18
 Group order               8
 No. of unique centers     2

      Symmetry unique atoms

     1    2


            XYZ format geometry
            -------------------
     2
 geometry
 Li                    0.00000000     0.00000000    -1.12500000
 H                     0.00000000     0.00000000     3.37500000

          ****************************************************
          *                                                  *
          *               NWPW PSPW Calculation              *
          *                                                  *
          * [ (Grassmann/Stiefel manifold implementation)  ] *
          *                                                  *
          *      [ NorthWest Chemistry implementation ]      *
          *                                                  *
          *            version #5.10   06/12/02              *
          *                                                  *
          *    This code was developed by Eric J. Bylaska,   *
          *    and was based upon algorithms and code        *
          *    developed by the group of Prof. John H. Weare *
          *                                                  *
          ****************************************************
     >>>  JOB STARTED       AT Mon May  5 05:21:25 2025  <<<
          ================ input data ========================

 input psi filename:./pspw_hf_LiH.movecs

 number of processors used:        24
 processor grid           :  24 x   1
 parallel mapping         :2d-hilbert
 parallel mapping         :  balanced
 number of threads        :         1
 parallel io              :       off

 options:
      boundary conditions  = aperiodic   (version4)
      electron spin        = restricted
      exchange-correlation = Hartree-Fock
      - HFX relaxed
      - HFX restricted orbitals :    1
      - HFX free-space coulomb solver


 elements involved in the cluster:
      1: Li  valence charge:  1.0000  lmax=  1
             comment    : Hamann pseudopotential
             pseudpotential type            :   0
             highest angular component      :   1
             local potential used           :   1
             number of non-local projections:   1
             aperiodic cutoff radius        :  1.000
             semicore corrections included  :  1.000 (radius)  0.769 (charge)
             cutoff =   1.869   1.551

      2: H   valence charge:  1.0000  lmax=  1
             comment    : Parameterized (Chem.Phys.Lett., vol 322, page 447) Hamman psp
             pseudpotential type            :   0
             highest angular component      :   1
             local potential used           :   1
             number of non-local projections:   1
             aperiodic cutoff radius        :  1.000
             cutoff =   0.800   0.800


 total charge:   0.000

 atomic composition:
     Li  :    1     H   :    1

 number of electrons: spin up=     1 (   1 per task)  down=     1 (   1 per task) (Fourier space)
 number of orbitals : spin up=     1 (   1 per task)  down=     1 (   1 per task) (Fourier space)

 supercell:
      cell_name:  cell_default                                      
      lattice:    a1=<  28.346   0.000   0.000 >
                  a2=<   0.000  28.346   0.000 >
                  a3=<   0.000   0.000  28.346 >
      reciprocal: b1=<   0.222   0.000   0.000 >
                  b2=<   0.000   0.222   0.000 >
                  b3=<   0.000   0.000   0.222 >
      lattice:    a=      28.346 b=     28.346 c=      28.346
                  alpha=  90.000 beta=  90.000 gamma=  90.000
                  omega=     22775.6

      density cutoff=100.000  fft=140x140x140(   544264 waves    22677 per task)
      wavefnc cutoff= 50.000  fft=140x140x140(   192294 waves     8012 per task)

 technical parameters:
      time step=      5.80     fictitious mass=  400000.0
      tolerance=0.100E-08 (energy)   0.100E-08 (density)
      maximum iterations =      1000 (   10 inner    100 outer )





== Energy Calculation ==


          ============ Grassmann lmbfgs iteration ============
     >>>  ITERATION STARTED AT Mon May  5 05:22:54 2025  <<<
    iter.           Energy         DeltaE       DeltaRho 
    ------------------------------------------------------
      10   -0.6146151050E+00   -0.18358E-02    0.13403E-01
     -  10 steepest descent iterations performed
      20   -0.6203748495E+00   -0.16801E-03    0.11552E-03
      30   -0.6208166514E+00   -0.18742E-04    0.83933E-05
      40   -0.6208977768E+00   -0.36198E-05    0.82030E-06
      50   -0.6209159218E+00   -0.71039E-06    0.13567E-06
      60   -0.6209207779E+00   -0.25462E-06    0.32145E-07
      70   -0.6209220517E+00   -0.59072E-07    0.70563E-08
      80   -0.6209223243E+00   -0.16485E-07    0.23858E-08
      90   -0.6209223934E+00   -0.22902E-08    0.76971E-09
     100   -0.6209223995E+00   -0.82303E-09    0.93019E-11
  *** tolerance ok. iteration terminated
     >>>  ITERATION ENDED   AT Mon May  5 05:24:51 2025  <<<


==  Summary Of Results  ==

 number of electrons: spin up=    1.00000  down=    1.00000 (real space)

 total     energy    :  -0.6209223995E+00 (   -0.31046E+00/ion)
 total orbital energy:  -0.3877004806E+00 (   -0.38770E+00/electron)
 hartree   energy    :   0.7016337262E+00 (    0.70163E+00/electron)
 exc-corr  energy    :   0.0000000000E+00 (    0.00000E+00/electron)
 HF exchange energy  :  -0.3508168631E+00 (   -0.35082E+00/electron)
 ion-ion   energy    :   0.1175949442E+00 (    0.58797E-01/ion)

 kinetic (planewave) :   0.4487564624E+00 (    0.44876E+00/electron)
 V_local (planewave) :  -0.1447335322E+01 (   -0.14473E+01/electron)
 V_nl    (planewave) :  -0.9075534743E-01 (   -0.90755E-01/electron)
 V_Coul  (planewave) :   0.1403267452E+01 (    0.14033E+01/electron)
 V_xc.   (planewave) :   0.0000000000E+00 (    0.00000E+00/electron)
 K.S. HFX energy     :  -0.7016337262E+00 (   -0.70163E+00/electron)
 Virial Coefficient  :  -0.3004373822E+00

 orbital energies:
    -0.1938502E+00 (  -5.275eV)


== Virtual Orbital Calculation ==


 input epsi filename:./pspw_hf_LiH.emovecs
     orbital   1 current e=-0.625E-01 (error=0.942E-09) iterations 101(  61 preconditioned, Ep,Sp= 20.0  200.0)
     orbital   2 current e=-0.520E-02 (error=0.973E-09) iterations  88(  38 preconditioned, Ep,Sp= 20.0  200.0)
     orbital   3 current e=-0.520E-02 (error=0.978E-09) iterations  87(  39 preconditioned, Ep,Sp= 20.0  200.0)
     orbital   4 current e=-0.307E-02 (error=0.166E-07) iterations 121(  90 preconditioned, Ep,Sp= 20.0  200.0)
     orbital   4 current e=-0.307E-02 (error=0.945E-09) iterations  34(   1 preconditioned, Ep,Sp= 20.0  200.0)
     orbital   5 current e= 0.803E-02 (error=0.539E-08) iterations 121(  87 preconditioned, Ep,Sp= 20.0  200.0)
     orbital   5 current e= 0.803E-02 (error=0.953E-09) iterations  38(   1 preconditioned, Ep,Sp= 20.0  200.0)
     orbital   6 current e= 0.163E-01 (error=0.953E-09) iterations  50(  13 preconditioned, Ep,Sp= 20.0  200.0)
     orbital   7 current e= 0.276E-01 (error=0.932E-09) iterations 104(  50 preconditioned, Ep,Sp= 20.0  200.0)
     orbital   8 current e= 0.276E-01 (error=0.930E-09) iterations 106(  52 preconditioned, Ep,Sp= 20.0  200.0)
     orbital   9 current e= 0.290E-01 (error=0.209E-06) iterations 121( 120 preconditioned, Ep,Sp= 20.0  200.0)
     orbital   9 current e= 0.290E-01 (error=0.232E-07) iterations 121(   1 preconditioned, Ep,Sp= 20.0  200.0)
     orbital   9 current e= 0.303E-01 (error=0.232E-04) iterations 121( 120 preconditioned, Ep,Sp= 20.0  200.0)
     orbital   9 current e= 0.291E-01 (error=0.574E-05) iterations 121( 120 preconditioned, Ep,Sp= 20.0  200.0)
     orbital   9 current e= 0.290E-01 (error=0.121E-07) iterations 121(  48 preconditioned, Ep,Sp= 20.0  200.0)
     orbital   9 current e= 0.290E-01 (error=0.997E-09) iterations  94(   1 preconditioned, Ep,Sp= 20.0  200.0)
     orbital  10 current e= 0.310E-01 (error=0.344E-06) iterations 121( 120 preconditioned, Ep,Sp= 20.0  200.0)
     orbital  10 current e= 0.310E-01 (error=0.721E-08) iterations 121(   1 preconditioned, Ep,Sp= 20.0  200.0)
     orbital  10 current e= 0.313E-01 (error=0.206E-04) iterations 121( 120 preconditioned, Ep,Sp= 20.0  200.0)
     orbital  10 current e= 0.310E-01 (error=0.884E-06) iterations 121( 120 preconditioned, Ep,Sp= 20.0  200.0)
     orbital  10 current e= 0.310E-01 (error=0.916E-08) iterations 121(  17 preconditioned, Ep,Sp= 20.0  200.0)
     orbital  10 current e= 0.310E-01 (error=0.990E-09) iterations  60(   1 preconditioned, Ep,Sp= 20.0  200.0)
     orbital  11 current e= 0.360E-01 (error=0.905E-09) iterations  84(  29 preconditioned, Ep,Sp= 20.0  200.0)
     orbital  12 current e= 0.343E-01 (error=0.910E-08) iterations 121(  81 preconditioned, Ep,Sp= 20.0  200.0)
     orbital  12 current e= 0.343E-01 (error=0.993E-09) iterations  31(   1 preconditioned, Ep,Sp= 20.0  200.0)
     orbital  13 current e= 0.399E-01 (error=0.964E-09) iterations 115(  37 preconditioned, Ep,Sp= 20.0  200.0)
     orbital  14 current e= 0.399E-01 (error=0.956E-09) iterations 115(  37 preconditioned, Ep,Sp= 20.0  200.0)
     orbital  15 current e= 0.444E-01 (error=0.906E-09) iterations  68(  19 preconditioned, Ep,Sp= 20.0  200.0)
     orbital  16 current e= 0.521E-01 (error=0.776E-09) iterations  76(  26 preconditioned, Ep,Sp= 20.0  200.0)
     orbital  17 current e= 0.551E-01 (error=0.702E-07) iterations 121(  42 preconditioned, Ep,Sp= 20.0  200.0)
     orbital  17 current e= 0.551E-01 (error=0.960E-09) iterations  82(   1 preconditioned, Ep,Sp= 20.0  200.0)
     orbital  18 current e= 0.539E-01 (error=0.253E-06) iterations 121( 120 preconditioned, Ep,Sp= 20.0  200.0)
     orbital  18 current e= 0.539E-01 (error=0.972E-09) iterations  84(   1 preconditioned, Ep,Sp= 20.0  200.0)

 virtual orbital energies:
     0.5509887E-01 (   1.499eV)
     0.5386615E-01 (   1.466eV)
     0.5208750E-01 (   1.417eV)
     0.4435003E-01 (   1.207eV)
     0.3990816E-01 (   1.086eV)
     0.3990816E-01 (   1.086eV)
     0.3595491E-01 (   0.978eV)
     0.3425263E-01 (   0.932eV)
     0.3098421E-01 (   0.843eV)
     0.2900449E-01 (   0.789eV)
     0.2762479E-01 (   0.752eV)
     0.2762479E-01 (   0.752eV)
     0.1625564E-01 (   0.442eV)
     0.8031776E-02 (   0.219eV)
    -0.3070927E-02 (  -0.084eV)
    -0.5196160E-02 (  -0.141eV)
    -0.5196160E-02 (  -0.141eV)
    -0.6250977E-01 (  -1.701eV)


 == Generating One-Electron and Two-Electron Integrals ==

 begin_one_electron_integrals
    1    1        -0.5446671034
    2    1         0.0764441819
    3    1        -0.0000004081
    4    1         0.0000000811
    5    1         0.0118743514
    6    1         0.0302675146
    7    1         0.0000000000
    8    1        -0.0000000468
    9    1         0.0000002248
   10    1        -0.0103753835
   11    1         0.0037722615
   12    1        -0.0266875299
   13    1        -0.0000000011
   14    1         0.0000002668
   15    1         0.0000000533
   16    1         0.0000000001
   17    1        -0.0000000007
   18    1        -0.0315687950
   19    1        -0.0000014266
    2    2        -0.3025448948
    3    2         0.0000014334
    4    2        -0.0000002860
    5    2        -0.0305847711
    6    2        -0.0370640519
    7    2         0.0000000000
    8    2         0.0000000960
    9    2        -0.0000004558
   10    2         0.0193051465
   11    2        -0.0107069408
   12    2         0.0183914842
   13    2         0.0000000007
   14    2        -0.0000001070
   15    2        -0.0000000212
   16    2        -0.0000000002
   17    2         0.0000000006
   18    2         0.0265299285
   19    2         0.0000011319
    3    3        -0.1995797393
    4    3        -0.0000000001
    5    3        -0.0000035421
    6    3         0.0000015323
    7    3        -0.0000000862
    8    3         0.0000000082
    9    3         0.0370404856
   10    3        -0.0000003180
   11    3         0.0000005666
   12    3         0.0000001669
   13    3        -0.0000000754
   14    3         0.0188275278
   15    3         0.0000165860
   16    3        -0.0000000919
   17    3        -0.0000000122
   18    3        -0.0000002395
   19    3        -0.0078432326
    4    4        -0.1995775040
    5    4         0.0000007090
    6    4        -0.0000003068
    7    4        -0.0000004347
    8    4         0.0370424369
    9    4        -0.0000000080
   10    4         0.0000000593
   11    4        -0.0000001043
   12    4        -0.0000000322
   13    4         0.0000000151
   14    4         0.0000165838
   15    4        -0.0188257240
   16    4        -0.0000004668
   17    4         0.0000000935
   18    4         0.0000004748
   19    4        -0.0000000070
    5    5        -0.1401774735
    6    5        -0.0224236943
    7    5        -0.0000000000
    8    5        -0.0000003002
    9    5         0.0000015394
   10    5         0.0212613282
   11    5        -0.0202619767
   12    5         0.0015237663
   13    5        -0.0000000000
   14    5         0.0000011698
   15    5         0.0000002352
   16    5        -0.0000000002
   17    5         0.0000000004
   18    5         0.0196896305
   19    5         0.0000003688
    6    6        -0.1748227447
    7    6         0.0000000000
    8    6         0.0000001492
    9    6        -0.0000007206
   10    6         0.0072614129
   11    6        -0.0171610241
   12    6         0.0421305520
   13    6         0.0000000016
   14    6        -0.0000005424
   15    6        -0.0000001088
   16    6        -0.0000000002
   17    6         0.0000000010
   18    6         0.0443058272
   19    6         0.0000021166
    7    7        -0.1149217521
    8    7         0.0000002649
    9    7         0.0000000531
   10    7         0.0000000000
   11    7         0.0000000000
   12    7         0.0000000000
   13    7         0.0000000000
   14    7        -0.0000000418
   15    7         0.0000002045
   16    7        -0.0201648635
   17    7         0.0051553058
   18    7        -0.0000000002
   19    7        -0.0000000712
    8    8        -0.1137373970
    9    8        -0.0000000001
   10    8         0.0000000559
   11    8         0.0000000054
   12    8        -0.0000000913
   13    8        -0.0000000024
   14    8        -0.0000074022
   15    8         0.0084012907
   16    8         0.0000004376
   17    8        -0.0000001190
   18    8         0.0000001150
   19    8         0.0000000010
    9    9        -0.1137248475
   10    9        -0.0000002766
   11    9        -0.0000000247
   12    9         0.0000004381
   13    9         0.0000000119
   14    9        -0.0084068037
   15    9        -0.0000074077
   16    9         0.0000000886
   17    9        -0.0000000415
   18    9         0.0000009413
   19    9        -0.0064014080
   10   10        -0.1035224644
   11   10         0.0025209180
   12   10        -0.0122230179
   13   10        -0.0000000004
   14   10        -0.0000000747
   15   10        -0.0000000161
   16   10         0.0000000001
   17   10        -0.0000000005
   18   10        -0.0197906310
   19   10        -0.0000009867
   11   11        -0.1124903498
   12   11         0.0054826544
   13   11         0.0000000002
   14   11        -0.0000000127
   15   11        -0.0000000004
   16   11        -0.0000000002
   17   11         0.0000000005
   18   11         0.0244248936
   19   11         0.0000013861
   12   12        -0.1149223997
   13   12        -0.0000000002
   14   12         0.0000001941
   15   12         0.0000000394
   16   12         0.0000000002
   17   12        -0.0000000009
   18   12        -0.0399615424
   19   12        -0.0000015866
   13   13        -0.1081433321
   14   13         0.0000000041
   15   13         0.0000000008
   16   13        -0.0000000000
   17   13        -0.0000000000
   18   13        -0.0000000015
   19   13        -0.0000000274
   14   14        -0.1047474545
   15   14         0.0000000013
   16   14         0.0000000319
   17   14         0.0000001037
   18   14        -0.0000004203
   19   14         0.0148484082
   15   15        -0.1047488366
   16   15        -0.0000001713
   17   15        -0.0000002592
   18   15         0.0000006906
   19   15         0.0000130742
   16   16        -0.0927815820
   17   16         0.0059274501
   18   16         0.0000000000
   19   16        -0.0000000523
   17   17        -0.0989430222
   18   17        -0.0000000007
   19   17        -0.0000000310
   18   18        -0.1320811381
   19   18        -0.0000015052
   19   19        -0.1015709188
 end_one_electron_integrals

 begin_two_electron_integrals
    1    1    1    1        0.3508168631
    1    1    2    1       -0.0764444945
    1    1    3    1        0.0000004084
    1    1    4    1       -0.0000000811
    1    1    5    1       -0.0118800426
    1    1    6    1       -0.0302708831
    1    1    7    1       -0.0000000000
    1    1    8    1        0.0000000468
    1    1    9    1       -0.0000002248
    1    1   10    1        0.0103724158
    1    1   11    1       -0.0037724078
    1    1   12    1        0.0266847538
    1    1   13    1        0.0000000011
    1    1   14    1       -0.0000002668
    1    1   15    1       -0.0000000533
    1    1   16    1       -0.0000000001
    1    1   17    1        0.0000000007
    1    1   18    1        0.0315664278
    1    1   19    1        0.0000014265
    1    1    2    2        0.1385344691
    1    1    3    2       -0.0000009013
    1    1    4    2        0.0000001798
    1    1    5    2        0.0197783393
    1    1    6    2        0.0262119272
    1    1    7    2       -0.0000000000
    1    1    8    2       -0.0000000650
    1    1    9    2        0.0000003085
    1    1   10    2       -0.0131011003
    1    1   11    2        0.0073822326
    1    1   12    2       -0.0146111530
    1    1   13    2       -0.0000000006
    1    1   14    2        0.0000000962
    1    1   15    2        0.0000000191
    1    1   16    2        0.0000000001
    1    1   17    2       -0.0000000005
    1    1   18    2       -0.0207650136
    1    1   19    2       -0.0000008945
    1    1    3    3        0.0989323329
    1    1    4    3        0.0000000000
    1    1    5    3        0.0000017374
    1    1    6    3       -0.0000007936
    1    1    7    3        0.0000000199
    1    1    8    3       -0.0000000043
    1    1    9    3       -0.0195104708
    1    1   10    3        0.0000002305
    1    1   11    3       -0.0000003594
    1    1   12    3       -0.0000000552
    1    1   13    3        0.0000000413
    1    1   14    3       -0.0098958384
    1    1   15    3       -0.0000087177
    1    1   16    3        0.0000000292
    1    1   17    3        0.0000000202
    1    1   18    3        0.0000002667
    1    1   19    3        0.0041613207
    1    1    4    4        0.0989311502
    1    1    5    4       -0.0000003478
    1    1    6    4        0.0000001587
    1    1    7    4        0.0000001013
    1    1    8    4       -0.0195111845
    1    1    9    4        0.0000000042
    1    1   10    4       -0.0000000438
    1    1   11    4        0.0000000671
    1    1   12    4        0.0000000105
    1    1   13    4       -0.0000000083
    1    1   14    4       -0.0000087165
    1    1   15    4        0.0098948535
    1    1   16    4        0.0000001497
    1    1   17    4        0.0000000191
    1    1   18    4       -0.0000002799
    1    1   19    4        0.0000000037
    1    1    5    5        0.0700139458
    1    1    6    5        0.0135379344
    1    1    7    5        0.0000000000
    1    1    8    5        0.0000001499
    1    1    9    5       -0.0000007703
    1    1   10    5       -0.0117317901
    1    1   11    5        0.0109814993
    1    1   12    5       -0.0022386493
    1    1   13    5       -0.0000000000
    1    1   14    5       -0.0000005777
    1    1   15    5       -0.0000001162
    1    1   16    5        0.0000000001
    1    1   17    5       -0.0000000003
    1    1   18    5       -0.0121305620
    1    1   19    5       -0.0000002997
    1    1    6    6        0.0958482950
    1    1    7    6        0.0000000000
    1    1    8    6       -0.0000000808
    1    1    9    6        0.0000003886
    1    1   10    6       -0.0053974455
    1    1   11    6        0.0100419342
    1    1   12    6       -0.0241763238
    1    1   13    6       -0.0000000009
    1    1   14    6        0.0000002744
    1    1   15    6        0.0000000550
    1    1   16    6        0.0000000001
    1    1   17    6       -0.0000000006
    1    1   18    6       -0.0266458853
    1    1   19    6       -0.0000012292
    1    1    7    7        0.0656313429
    1    1    8    7       -0.0000000903
    1    1    9    7       -0.0000000181
    1    1   10    7       -0.0000000000
    1    1   11    7       -0.0000000000
    1    1   12    7       -0.0000000000
    1    1   13    7       -0.0000000000
    1    1   14    7        0.0000000287
    1    1   15    7       -0.0000001409
    1    1   16    7        0.0101230504
    1    1   17    7       -0.0025716086
    1    1   18    7        0.0000000001
    1    1   19    7        0.0000000263
    1    1    8    8        0.0712893846
    1    1    9    8        0.0000000000
    1    1   10    8       -0.0000000228
    1    1   11    8       -0.0000000091
    1    1   12    8        0.0000000487
    1    1   13    8       -0.0000000002
    1    1   14    8        0.0000039561
    1    1   15    8       -0.0044900705
    1    1   16    8       -0.0000001874
    1    1   17    8        0.0000000351
    1    1   18    8       -0.0000000366
    1    1   19    8       -0.0000000007
    1    1    9    9        0.0712830285
    1    1   10    9        0.0000001137
    1    1   11    9        0.0000000418
    1    1   12    9       -0.0000002331
    1    1   13    9        0.0000000012
    1    1   14    9        0.0044924550
    1    1   15    9        0.0000039585
    1    1   16    9       -0.0000000380
    1    1   17    9        0.0000000153
    1    1   18    9       -0.0000005384
    1    1   19    9        0.0030798117
    1    1   10   10        0.0671141899
    1    1   11   10       -0.0018816052
    1    1   12   10        0.0072756974
    1    1   13   10        0.0000000003
    1    1   14   10        0.0000000201
    1    1   15   10        0.0000000047
    1    1   16   10       -0.0000000001
    1    1   17   10        0.0000000003
    1    1   18   10        0.0116987473
    1    1   19   10        0.0000005816
    1    1   11   11        0.0723838893
    1    1   12   11       -0.0036475976
    1    1   13   11       -0.0000000001
    1    1   14   11        0.0000000382
    1    1   15   11        0.0000000065
    1    1   16   11        0.0000000001
    1    1   17   11       -0.0000000003
    1    1   18   11       -0.0137074887
    1    1   19   11       -0.0000007943
    1    1   12   12        0.0769568670
    1    1   13   12        0.0000000002
    1    1   14   12       -0.0000000987
    1    1   15   12       -0.0000000200
    1    1   16   12       -0.0000000001
    1    1   17   12        0.0000000005
    1    1   18   12        0.0232638768
    1    1   19   12        0.0000009187
    1    1   13   13        0.0721552108
    1    1   14   13       -0.0000000131
    1    1   15   13       -0.0000000026
    1    1   16   13       -0.0000000000
    1    1   17   13        0.0000000000
    1    1   18   13        0.0000000009
    1    1   19   13        0.0000000144
    1    1   14   14        0.0725524786
    1    1   15   14       -0.0000000007
    1    1   16   14       -0.0000000089
    1    1   17   14       -0.0000000595
    1    1   18   14        0.0000001693
    1    1   19   14       -0.0075849052
    1    1   15   15        0.0725531653
    1    1   16   15        0.0000000505
    1    1   17   15        0.0000001648
    1    1   18   15       -0.0000003621
    1    1   19   15       -0.0000066786
    1    1   16   16        0.0686143347
    1    1   17   16       -0.0029663627
    1    1   18   16       -0.0000000001
    1    1   19   16        0.0000000179
    1    1   17   17        0.0755417286
    1    1   18   17        0.0000000005
    1    1   19   17        0.0000000271
    1    1   18   18        0.0977762128
    1    1   19   18        0.0000009318
    1    1   19   19        0.0785728371
    2    1    2    1        0.0370338179
    2    1    3    1       -0.0000003700
    2    1    4    1        0.0000000737
    2    1    5    1        0.0089832942
    2    1    6    1        0.0153499917
    2    1    7    1        0.0000000000
    2    1    8    1       -0.0000000340
    2    1    9    1        0.0000001612
    2    1   10    1       -0.0068958515
    2    1   11    1        0.0040572341
    2    1   12    1       -0.0108316767
    2    1   13    1       -0.0000000004
    2    1   14    1        0.0000000855
    2    1   15    1        0.0000000170
    2    1   16    1        0.0000000001
    2    1   17    1       -0.0000000003
    2    1   18    1       -0.0150087488
    2    1   19    1       -0.0000006575
    2    1    2    2        0.0205241371
    2    1    3    2       -0.0000001379
    2    1    4    2        0.0000000277
    2    1    5    2        0.0016158294
    2    1    6    2       -0.0084718111
    2    1    7    2        0.0000000000
    2    1    8    2        0.0000000072
    2    1    9    2       -0.0000000330
    2    1   10    2       -0.0010044290
    2    1   11    2       -0.0034027681
    2    1   12    2        0.0083061681
    2    1   13    2        0.0000000003
    2    1   14    2       -0.0000000912
    2    1   15    2       -0.0000000182
    2    1   16    2       -0.0000000000
    2    1   17    2        0.0000000002
    2    1   18    2        0.0102592316
    2    1   19    2        0.0000004937
    2    1    3    3        0.0208074523
    2    1    4    3        0.0000000000
    2    1    5    3        0.0000008016
    2    1    6    3       -0.0000002894
    2    1    7    3        0.0000000205
    2    1    8    3       -0.0000000016
    2    1    9    3       -0.0071343835
    2    1   10    3        0.0000000616
    2    1   11    3        0.0000002965
    2    1   12    3        0.0000000461
    2    1   13    3        0.0000000419
    2    1   14    3        0.0012305523
    2    1   15    3        0.0000010839
    2    1   16    3        0.0000000195
    2    1   17    3       -0.0000000400
    2    1   18    3        0.0000000084
    2    1   19    3       -0.0027183920
    2    1    4    4        0.0208072144
    2    1    5    4       -0.0000001604
    2    1    6    4        0.0000000581
    2    1    7    4        0.0000001025
    2    1    8    4       -0.0071357517
    2    1    9    4        0.0000000016
    2    1   10    4       -0.0000000115
    2    1   11    4       -0.0000000611
    2    1   12    4       -0.0000000095
    2    1   13    4       -0.0000000084
    2    1   14    4        0.0000010846
    2    1   15    4       -0.0012312290
    2    1   16    4        0.0000000954
    2    1   17    4       -0.0000001574
    2    1   18    4        0.0000001358
    2    1   19    4       -0.0000000000
    2    1    5    5        0.0072071187
    2    1    6    5        0.0027692602
    2    1    7    5       -0.0000000000
    2    1    8    5        0.0000000797
    2    1    9    5       -0.0000003985
    2    1   10    5       -0.0038907040
    2    1   11    5       -0.0014602054
    2    1   12    5        0.0003044917
    2    1   13    5       -0.0000000000
    2    1   14    5        0.0000000577
    2    1   15    5        0.0000000116
    2    1   16    5       -0.0000000000
    2    1   17    5        0.0000000000
    2    1   18    5        0.0013850362
    2    1   19    5       -0.0000000740
    2    1    6    6        0.0091257118
    2    1    7    6       -0.0000000000
    2    1    8    6       -0.0000000302
    2    1    9    6        0.0000001434
    2    1   10    6       -0.0005273390
    2    1   11    6        0.0053752433
    2    1   12    6       -0.0013181107
    2    1   13    6       -0.0000000000
    2    1   14    6       -0.0000000727
    2    1   15    6       -0.0000000146
    2    1   16    6        0.0000000000
    2    1   17    6       -0.0000000000
    2    1   18    6       -0.0010063745
    2    1   19    6       -0.0000000198
    2    1    7    7        0.0057030219
    2    1    8    7       -0.0000000563
    2    1    9    7       -0.0000000111
    2    1   10    7        0.0000000000
    2    1   11    7       -0.0000000000
    2    1   12    7        0.0000000000
    2    1   13    7        0.0000000000
    2    1   14    7       -0.0000000033
    2    1   15    7        0.0000000163
    2    1   16    7       -0.0002266762
    2    1   17    7        0.0041971958
    2    1   18    7       -0.0000000001
    2    1   19    7       -0.0000000311
    2    1    8    8        0.0087578999
    2    1    9    8        0.0000000000
    2    1   10    8       -0.0000000183
    2    1   11    8        0.0000000064
    2    1   12    8        0.0000000039
    2    1   13    8       -0.0000000080
    2    1   14    8        0.0000021171
    2    1   15    8       -0.0024027336
    2    1   16    8       -0.0000000539
    2    1   17    8       -0.0000000189
    2    1   18    8        0.0000001072
    2    1   19    8       -0.0000000024
    2    1    9    9        0.0087577633
    2    1   10    9        0.0000000903
    2    1   11    9       -0.0000000255
    2    1   12    9       -0.0000000144
    2    1   13    9        0.0000000397
    2    1   14    9        0.0024017508
    2    1   15    9        0.0000021163
    2    1   16    9       -0.0000000103
    2    1   17    9       -0.0000000126
    2    1   18    9        0.0000000783
    2    1   19    9       -0.0022585929
    2    1   10   10        0.0032026462
    2    1   11   10       -0.0014729391
    2    1   12   10       -0.0022250666
    2    1   13   10       -0.0000000001
    2    1   14   10        0.0000000604
    2    1   15   10        0.0000000124
    2    1   16   10       -0.0000000000
    2    1   17   10        0.0000000000
    2    1   18   10        0.0002072265
    2    1   19   10       -0.0000000820
    2    1   11   11        0.0028690232
    2    1   12   11       -0.0036483015
    2    1   13   11       -0.0000000002
    2    1   14   11        0.0000000625
    2    1   15   11        0.0000000120
    2    1   16   11        0.0000000000
    2    1   17   11       -0.0000000000
    2    1   18   11       -0.0016755619
    2    1   19   11       -0.0000000909
    2    1   12   12        0.0026537455
    2    1   13   12       -0.0000000003
    2    1   14   12       -0.0000000044
    2    1   15   12       -0.0000000010
    2    1   16   12       -0.0000000000
    2    1   17   12        0.0000000000
    2    1   18   12        0.0023046549
    2    1   19   12        0.0000001269
    2    1   13   13        0.0086181775
    2    1   14   13       -0.0000000185
    2    1   15   13       -0.0000000037
    2    1   16   13       -0.0000000000
    2    1   17   13       -0.0000000000
    2    1   18   13        0.0000000001
    2    1   19   13       -0.0000000229
    2    1   14   14        0.0057053641
    2    1   15   14        0.0000000005
    2    1   16   14       -0.0000000053
    2    1   17   14        0.0000000095
    2    1   18   14       -0.0000001050
    2    1   19   14        0.0016557932
    2    1   15   15        0.0057048443
    2    1   16   15        0.0000000249
    2    1   17   15       -0.0000000208
    2    1   18   15        0.0000000632
    2    1   19   15        0.0000014584
    2    1   16   16        0.0029629214
    2    1   17   16        0.0004355671
    2    1   18   16       -0.0000000000
    2    1   19   16        0.0000000021
    2    1   17   17       -0.0017465288
    2    1   18   17        0.0000000002
    2    1   19   17        0.0000000025
    2    1   18   18        0.0074965115
    2    1   19   18        0.0000004394
    2    1   19   19       -0.0021498899
    3    1    3    1        0.0034810869
    3    1    4    1       -0.0000000000
    3    1    5    1       -0.0000000780
    3    1    6    1       -0.0000000749
    3    1    7    1       -0.0000000464
    3    1    8    1       -0.0000000004
    3    1    9    1       -0.0019957317
    3    1   10    1        0.0000001440
    3    1   11    1       -0.0000001527
    3    1   12    1        0.0000000580
    3    1   13    1        0.0000000072
    3    1   14    1       -0.0009644267
    3    1   15    1       -0.0000008496
    3    1   16    1       -0.0000000336
    3    1   17    1        0.0000000283
    3    1   18    1        0.0000002937
    3    1   19    1        0.0004799120
    3    1    2    2       -0.0000003619
    3    1    3    2        0.0088827044
    3    1    4    2       -0.0000000000
    3    1    5    2       -0.0000009377
    3    1    6    2        0.0000009009
    3    1    7    2       -0.0000003845
    3    1    8    2       -0.0000000009
    3    1    9    2       -0.0042137070
    3    1   10    2        0.0000006148
    3    1   11    2        0.0000003057
    3    1   12    2        0.0000000823
    3    1   13    2        0.0000000190
    3    1   14    2       -0.0005607449
    3    1   15    2       -0.0000004941
    3    1   16    2       -0.0000001040
    3    1   17    2       -0.0000000693
    3    1   18    2        0.0000007731
    3    1   19    2       -0.0005748926
    3    1    3    3        0.0000003023
    3    1    4    3       -0.0000001254
    3    1    5    3        0.0002027562
    3    1    6    3        0.0024655220
    3    1    7    3       -0.0009180472
    3    1    8    3       -0.0000006091
    3    1    9    3        0.0000034022
    3    1   10    3        0.0004101202
    3    1   11    3        0.0010700581
    3    1   12    3       -0.0011340118
    3    1   13    3        0.0036071040
    3    1   14    3       -0.0000026901
    3    1   15    3       -0.0000005572
    3    1   16    3       -0.0005186628
    3    1   17    3       -0.0004667119
    3    1   18    3       -0.0005306772
    3    1   19    3       -0.0000013056
    3    1    4    4        0.0000003721
    3    1    5    4        0.0000000003
    3    1    6    4       -0.0000000002
    3    1    7    4       -0.0022020074
    3    1    8    4        0.0000037055
    3    1    9    4       -0.0000006481
    3    1   10    4        0.0000000000
    3    1   11    4        0.0000000001
    3    1   12    4       -0.0000000001
    3    1   13    4       -0.0015038486
    3    1   14    4        0.0000005506
    3    1   15    4        0.0000031651
    3    1   16    4       -0.0012440081
    3    1   17    4       -0.0011194716
    3    1   18    4        0.0000000000
    3    1   19    4        0.0000002666
    3    1    5    5        0.0000219638
    3    1    6    5       -0.0000152351
    3    1    7    5        0.0000050414
    3    1    8    5       -0.0000000006
    3    1    9    5       -0.0030722627
    3    1   10    5        0.0000022793
    3    1   11    5       -0.0000003219
    3    1   12    5       -0.0000081960
    3    1   13    5        0.0000001824
    3    1   14    5       -0.0011282305
    3    1   15    5       -0.0000009939
    3    1   16    5        0.0000001747
    3    1   17    5       -0.0000004292
    3    1   18    5       -0.0000073302
    3    1   19    5        0.0000465336
    3    1    6    6        0.0000150340
    3    1    7    6       -0.0000033757
    3    1    8    6       -0.0000000003
    3    1    9    6       -0.0014335654
    3    1   10    6        0.0000035623
    3    1   11    6       -0.0000098873
    3    1   12    6        0.0000093451
    3    1   13    6       -0.0000000068
    3    1   14    6       -0.0032881264
    3    1   15    6       -0.0000028966
    3    1   16    6       -0.0000024880
    3    1   17    6        0.0000009085
    3    1   18    6        0.0000021220
    3    1   19    6        0.0006727987
    3    1    7    7        0.0000390165
    3    1    8    7        0.0005615583
    3    1    9    7        0.0002342302
    3    1   10    7       -0.0000016974
    3    1   11    7       -0.0000007720
    3    1   12    7        0.0000010726
    3    1   13    7       -0.0000000054
    3    1   14    7       -0.0003524091
    3    1   15    7        0.0008431840
    3    1   16    7        0.0000065061
    3    1   17    7       -0.0000020454
    3    1   18    7       -0.0000038271
    3    1   19    7       -0.0002922880
    3    1    8    8        0.0000179869
    3    1    9    8       -0.0000031379
    3    1   10    8        0.0000000002
    3    1   11    8       -0.0000000000
    3    1   12    8        0.0000000001
    3    1   13    8       -0.0004436268
    3    1   14    8        0.0000024817
    3    1   15    8        0.0000144984
    3    1   16    8        0.0009547356
    3    1   17    8        0.0003068058
    3    1   18    8        0.0000000004
    3    1   19    8        0.0000010823
    3    1    9    9        0.0000154640
    3    1   10    9        0.0007045158
    3    1   11    9       -0.0004621779
    3    1   12    9        0.0007412191
    3    1   13    9        0.0010644322
    3    1   14    9       -0.0000124622
    3    1   15    9       -0.0000025044
    3    1   16    9        0.0003979764
    3    1   17    9        0.0001278585
    3    1   18    9        0.0004017843
    3    1   19    9       -0.0000053510
    3    1   10   10        0.0000304061
    3    1   11   10       -0.0000000916
    3    1   12   10       -0.0000047079
    3    1   13   10        0.0000000298
    3    1   14   10       -0.0000124988
    3    1   15   10       -0.0000000110
    3    1   16   10       -0.0000041685
    3    1   17   10       -0.0000022900
    3    1   18   10        0.0000010161
    3    1   19   10       -0.0005692852
    3    1   11   11        0.0000359312
    3    1   12   11       -0.0000002836
    3    1   13   11       -0.0000000038
    3    1   14   11        0.0004848267
    3    1   15   11        0.0000004271
    3    1   16   11        0.0000039061
    3    1   17   11       -0.0000044400
    3    1   18   11        0.0000053061
    3    1   19   11       -0.0011957285
    3    1   12   12        0.0000352327
    3    1   13   12        0.0000000072
    3    1   14   12        0.0002687623
    3    1   15   12        0.0000002367
    3    1   16   12       -0.0000000932
    3    1   17   12       -0.0000025297
    3    1   18   12       -0.0000197926
    3    1   19   12       -0.0015914364
    3    1   13   13       -0.0000001010
    3    1   14   13       -0.0011259944
    3    1   15   13       -0.0004706043
    3    1   16   13       -0.0000000058
    3    1   17   13        0.0000000027
    3    1   18   13        0.0000000012
    3    1   19   13       -0.0007866849
    3    1   14   14        0.0000148880
    3    1   15   14        0.0000029926
    3    1   16   14        0.0003453408
    3    1   17   14       -0.0001911866
    3    1   18   14        0.0007988672
    3    1   19   14        0.0000019294
    3    1   15   15        0.0000173724
    3    1   16   15       -0.0008262616
    3    1   17   15        0.0004574938
    3    1   18   15        0.0000007039
    3    1   19   15        0.0000003744
    3    1   16   16        0.0000401335
    3    1   17   16       -0.0000058920
    3    1   18   16       -0.0000005907
    3    1   19   16       -0.0001251102
    3    1   17   17        0.0000389371
    3    1   18   17        0.0000007844
    3    1   19   17        0.0001550151
    3    1   18   18        0.0000227452
    3    1   19   18       -0.0005151617
    3    1   19   19        0.0000155795
    4    1    4    1        0.0034809566
    4    1    5    1        0.0000000155
    4    1    6    1        0.0000000149
    4    1    7    1       -0.0000002316
    4    1    8    1       -0.0019957939
    4    1    9    1        0.0000000004
    4    1   10    1       -0.0000000285
    4    1   11    1        0.0000000300
    4    1   12    1       -0.0000000116
    4    1   13    1       -0.0000000014
    4    1   14    1       -0.0000008495
    4    1   15    1        0.0009643377
    4    1   16    1       -0.0000001674
    4    1   17    1        0.0000001316
    4    1   18    1       -0.0000000850
    4    1   19    1        0.0000000005
    4    1    2    2        0.0000000723
    4    1    3    2       -0.0000000000
    4    1    4    2        0.0088824675
    4    1    5    2        0.0000001876
    4    1    6    2       -0.0000001802
    4    1    7    2       -0.0000019212
    4    1    8    2       -0.0042143018
    4    1    9    2        0.0000000009
    4    1   10    2       -0.0000001225
    4    1   11    2       -0.0000000622
    4    1   12    2       -0.0000000167
    4    1   13    2       -0.0000000038
    4    1   14    2       -0.0000004937
    4    1   15    2        0.0005604559
    4    1   16    2       -0.0000005201
    4    1   17    2       -0.0000003390
    4    1   18    2       -0.0000001274
    4    1   19    2        0.0000000004
    4    1    3    3       -0.0000003188
    4    1    4    3       -0.0000005941
    4    1    5    3        0.0000000003
    4    1    6    3       -0.0000000002
    4    1    7    3       -0.0022020024
    4    1    8    3       -0.0000028393
    4    1    9    3       -0.0000019578
    4    1   10    3        0.0000000000
    4    1   11    3        0.0000000001
    4    1   12    3       -0.0000000001
    4    1   13    3       -0.0015038141
    4    1   14    3        0.0000017458
    4    1   15    3       -0.0000027817
    4    1   16    3       -0.0012440431
    4    1   17    3       -0.0011194447
    4    1   18    3       -0.0000000001
    4    1   19    3        0.0000008198
    4    1    4    4        0.0000001835
    4    1    5    4        0.0002026498
    4    1    6    4        0.0024653840
    4    1    7    4        0.0009180230
    4    1    8    4        0.0000005354
    4    1    9    4       -0.0000030353
    4    1   10    4        0.0004101736
    4    1   11    4        0.0010700330
    4    1   12    4       -0.0011339299
    4    1   13    4       -0.0036070950
    4    1   14    4        0.0000027751
    4    1   15    4        0.0000005742
    4    1   16    4        0.0005186275
    4    1   17    4        0.0004667119
    4    1   18    4       -0.0005306367
    4    1   19    4        0.0000012663
    4    1    5    5       -0.0000043951
    4    1    6    5        0.0000030486
    4    1    7    5        0.0000251933
    4    1    8    5       -0.0030725066
    4    1    9    5        0.0000000007
    4    1   10    5       -0.0000004557
    4    1   11    5        0.0000000637
    4    1   12    5        0.0000016399
    4    1   13    5       -0.0000000365
    4    1   14    5       -0.0000009937
    4    1   15    5        0.0011280534
    4    1   16    5        0.0000008732
    4    1   17    5       -0.0000021475
    4    1   18    5        0.0000014623
    4    1   19    5        0.0000000006
    4    1    6    6       -0.0000030083
    4    1    7    6       -0.0000168690
    4    1    8    6       -0.0014337083
    4    1    9    6        0.0000000002
    4    1   10    6       -0.0000007127
    4    1   11    6        0.0000019781
    4    1   12    6       -0.0000018701
    4    1   13    6        0.0000000013
    4    1   14    6       -0.0000028964
    4    1   15    6        0.0032880545
    4    1   16    6       -0.0000124326
    4    1   17    6        0.0000045281
    4    1   18    6       -0.0000004603
    4    1   19    6        0.0000000003
    4    1    7    7       -0.0000078073
    4    1    8    7       -0.0002341141
    4    1    9    7        0.0005618162
    4    1   10    7       -0.0000084823
    4    1   11    7       -0.0000038588
    4    1   12    7        0.0000053595
    4    1   13    7       -0.0000000274
    4    1   14    7       -0.0008431950
    4    1   15    7       -0.0003524015
    4    1   16    7       -0.0000013018
    4    1   17    7        0.0000004068
    4    1   18    7       -0.0000193187
    4    1   19    7       -0.0007010733
    4    1    8    8        0.0000031658
    4    1    9    8       -0.0000156014
    4    1   10    8        0.0007045151
    4    1   11    8       -0.0004626737
    4    1   12    8        0.0007407535
    4    1   13    8       -0.0010640796
    4    1   14    8        0.0000124198
    4    1   15    8        0.0000024960
    4    1   16    8       -0.0003980311
    4    1   17    8       -0.0001279080
    4    1   18    8        0.0004016559
    4    1   19    8        0.0000053961
    4    1    9    9       -0.0000098620
    4    1   10    9       -0.0000000001
    4    1   11    9        0.0000000002
    4    1   12    9       -0.0000000003
    4    1   13    9       -0.0004437678
    4    1   14    9        0.0000078908
    4    1   15    9       -0.0000124092
    4    1   16    9        0.0009545740
    4    1   17    9        0.0003066778
    4    1   18    9       -0.0000000004
    4    1   19    9        0.0000034061
    4    1   10   10       -0.0000060846
    4    1   11   10        0.0000000186
    4    1   12   10        0.0000009420
    4    1   13   10       -0.0000000058
    4    1   14   10       -0.0000000110
    4    1   15   10        0.0000124662
    4    1   16   10       -0.0000208309
    4    1   17   10       -0.0000114313
    4    1   18   10       -0.0000001715
    4    1   19   10       -0.0000000006
    4    1   11   11       -0.0000071902
    4    1   12   11        0.0000000569
    4    1   13   11        0.0000000005
    4    1   14   11        0.0000004272
    4    1   15   11       -0.0004849311
    4    1   16   11        0.0000195177
    4    1   17   11       -0.0000221680
    4    1   18   11       -0.0000010000
    4    1   19   11       -0.0000000001
    4    1   12   12       -0.0000070501
    4    1   13   12       -0.0000000015
    4    1   14   12        0.0000002369
    4    1   15   12       -0.0002688344
    4    1   16   12       -0.0000004674
    4    1   17   12       -0.0000126138
    4    1   18   12        0.0000040437
    4    1   19   12       -0.0000000003
    4    1   13   13        0.0000000202
    4    1   14   13        0.0004705913
    4    1   15   13       -0.0011259760
    4    1   16   13       -0.0000000295
    4    1   17   13        0.0000000288
    4    1   18   13       -0.0000000450
    4    1   19   13        0.0003279751
    4    1   14   14       -0.0000094860
    4    1   15   14        0.0000149319
    4    1   16   14        0.0008262732
    4    1   17   14       -0.0004574423
    4    1   18   14        0.0000007038
    4    1   19   14       -0.0000011913
    4    1   15   15        0.0000030309
    4    1   16   15        0.0003453248
    4    1   17   15       -0.0001912046
    4    1   18   15       -0.0007988669
    4    1   19   15        0.0000018542
    4    1   16   16       -0.0000080308
    4    1   17   16        0.0000011777
    4    1   18   16       -0.0000030389
    4    1   19   16       -0.0003000808
    4    1   17   17       -0.0000077886
    4    1   18   17        0.0000040350
    4    1   19   17        0.0003718094
    4    1   18   18       -0.0000044966
    4    1   19   18        0.0000000005
    4    1   19   19       -0.0000098935
    5    1    5    1        0.0029213451
    5    1    6    1        0.0046555610
    5    1    7    1        0.0000000000
    5    1    8    1       -0.0000000004
    5    1    9    1       -0.0000000012
    5    1   10    1       -0.0021909489
    5    1   11    1        0.0016965239
    5    1   12    1       -0.0029481915
    5    1   13    1       -0.0000000001
    5    1   14    1        0.0000000145
    5    1   15    1        0.0000000029
    5    1   16    1        0.0000000000
    5    1   17    1       -0.0000000001
    5    1   18    1       -0.0045752747
    5    1   19    1       -0.0000002307
    5    1    2    2        0.0084801319
    5    1    3    2       -0.0000000338
    5    1    4    2        0.0000000068
    5    1    5    2        0.0020601178
    5    1    6    2        0.0000201053
    5    1    7    2       -0.0000000000
    5    1    8    2        0.0000000289
    5    1    9    2       -0.0000001453
    5    1   10    2       -0.0013839199
    5    1   11    2        0.0000474541
    5    1   12    2        0.0012458631
    5    1   13    2        0.0000000000
    5    1   14    2       -0.0000000735
    5    1   15    2       -0.0000000147
    5    1   16    2       -0.0000000000
    5    1   17    2        0.0000000000
    5    1   18    2        0.0012525383
    5    1   19    2        0.0000000692
    5    1    3    3        0.0073974308
    5    1    4    3        0.0000000000
    5    1    5    3        0.0000007132
    5    1    6    3       -0.0000002161
    5    1    7    3        0.0000000630
    5    1    8    3       -0.0000000007
    5    1    9    3       -0.0035186923
    5    1   10    3       -0.0000002125
    5    1   11    3        0.0000000200
    5    1   12    3        0.0000000939
    5    1   13    3       -0.0000002639
    5    1   14    3       -0.0008737559
    5    1   15    3       -0.0000007697
    5    1   16    3        0.0000000226
    5    1   17    3        0.0000000048
    5    1   18    3       -0.0000000124
    5    1   19    3       -0.0004106166
    5    1    4    4        0.0073972528
    5    1    5    4       -0.0000001427
    5    1    6    4        0.0000000433
    5    1    7    4        0.0000003152
    5    1    8    4       -0.0035191722
    5    1    9    4        0.0000000008
    5    1   10    4        0.0000000429
    5    1   11    4       -0.0000000049
    5    1   12    4       -0.0000000189
    5    1   13    4        0.0000000528
    5    1   14    4       -0.0000007695
    5    1   15    4        0.0008735084
    5    1   16    4        0.0000001128
    5    1   17    4        0.0000000287
    5    1   18    4        0.0000000217
    5    1   19    4        0.0000000003
    5    1    5    5        0.0022044279
    5    1    6    5        0.0012814921
    5    1    7    5        0.0000000000
    5    1    8    5       -0.0000000502
    5    1    9    5        0.0000002496
    5    1   10    5       -0.0015571883
    5    1   11    5        0.0003499111
    5    1   12    5       -0.0004769114
    5    1   13    5        0.0000000002
    5    1   14    5       -0.0000000239
    5    1   15    5       -0.0000000048
    5    1   16    5        0.0000000000
    5    1   17    5       -0.0000000000
    5    1   18    5       -0.0009660720
    5    1   19    5        0.0000000063
    5    1    6    6        0.0036817455
    5    1    7    6        0.0000000000
    5    1    8    6        0.0000000214
    5    1    9    6       -0.0000001096
    5    1   10    6       -0.0006360870
    5    1   11    6        0.0018578244
    5    1   12    6       -0.0016006662
    5    1   13    6       -0.0000000002
    5    1   14    6        0.0000003482
    5    1   15    6        0.0000000700
    5    1   16    6        0.0000000000
    5    1   17    6       -0.0000000001
    5    1   18    6       -0.0025526217
    5    1   19    6       -0.0000001677
    5    1    7    7        0.0013987507
    5    1    8    7        0.0000000581
    5    1    9    7        0.0000000117
    5    1   10    7        0.0000000000
    5    1   11    7       -0.0000000000
    5    1   12    7        0.0000000000
    5    1   13    7        0.0000000000
    5    1   14    7        0.0000000476
    5    1   15    7       -0.0000002369
    5    1   16    7        0.0004604522
    5    1   17    7        0.0008302980
    5    1   18    7       -0.0000000000
    5    1   19    7        0.0000000348
    5    1    8    8        0.0030377712
    5    1    9    8        0.0000000001
    5    1   10    8       -0.0000000421
    5    1   11    8        0.0000000169
    5    1   12    8        0.0000000274
    5    1   13    8        0.0000001119
    5    1   14    8        0.0000007125
    5    1   15    8       -0.0008087154
    5    1   16    8       -0.0000001453
    5    1   17    8        0.0000000079
    5    1   18    8        0.0000000187
    5    1   19    8       -0.0000000008
    5    1    9    9        0.0030374590
    5    1   10    9        0.0000002106
    5    1   11    9       -0.0000000831
    5    1   12    9       -0.0000001348
    5    1   13    9       -0.0000005595
    5    1   14    9        0.0008086515
    5    1   15    9        0.0000007126
    5    1   16    9       -0.0000000290
    5    1   17    9       -0.0000000007
    5    1   18    9        0.0000000635
    5    1   19    9       -0.0005533486
    5    1   10   10        0.0013654398
    5    1   11   10       -0.0006961355
    5    1   12   10       -0.0001741304
    5    1   13   10       -0.0000000000
    5    1   14   10        0.0000001431
    5    1   15   10        0.0000000289
    5    1   16   10       -0.0000000000
    5    1   17   10        0.0000000000
    5    1   18   10        0.0008987932
    5    1   19   10        0.0000001943
    5    1   11   11        0.0013776771
    5    1   12   11       -0.0013069048
    5    1   13   11       -0.0000000000
    5    1   14   11       -0.0000003672
    5    1   15   11       -0.0000000740
    5    1   16   11        0.0000000000
    5    1   17   11       -0.0000000000
    5    1   18   11       -0.0016505906
    5    1   19   11        0.0000003376
    5    1   12   12        0.0014780550
    5    1   13   12       -0.0000000001
    5    1   14   12        0.0000002251
    5    1   15   12        0.0000000452
    5    1   16   12       -0.0000000000
    5    1   17   12        0.0000000000
    5    1   18   12        0.0017153910
    5    1   19   12        0.0000004629
    5    1   13   13        0.0022072862
    5    1   14   13        0.0000002669
    5    1   15   13        0.0000000537
    5    1   16   13       -0.0000000000
    5    1   17   13        0.0000000000
    5    1   18   13        0.0000000001
    5    1   19   13        0.0000001551
    5    1   14   14        0.0015776603
    5    1   15   14        0.0000000000
    5    1   16   14       -0.0000000506
    5    1   17   14        0.0000000159
    5    1   18   14       -0.0000000323
    5    1   19   14       -0.0000281247
    5    1   15   15        0.0015775788
    5    1   16   15        0.0000002519
    5    1   17   15       -0.0000000799
    5    1   18   15       -0.0000000085
    5    1   19   15       -0.0000000246
    5    1   16   16        0.0010265469
    5    1   17   16       -0.0000060390
    5    1   18   16       -0.0000000000
    5    1   19   16        0.0000000080
    5    1   17   17       -0.0000181744
    5    1   18   17        0.0000000001
    5    1   19   17       -0.0000000349
    5    1   18   18        0.0038941105
    5    1   19   18        0.0000000866
    5    1   19   19       -0.0000534224
    6    1    6    1        0.0088420695
    6    1    7    1        0.0000000000
    6    1    8    1       -0.0000000125
    6    1    9    1        0.0000000570
    6    1   10    1       -0.0035404342
    6    1   11    1        0.0029241257
    6    1   12    1       -0.0062203829
    6    1   13    1       -0.0000000002
    6    1   14    1        0.0000000065
    6    1   15    1        0.0000000012
    6    1   16    1        0.0000000000
    6    1   17    1       -0.0000000002
    6    1   18    1       -0.0089832141
    6    1   19    1       -0.0000003419
    6    1    2    2        0.0030547857
    6    1    3    2        0.0000002370
    6    1    4    2       -0.0000000473
    6    1    5    2        0.0014515014
    6    1    6    2        0.0009083625
    6    1    7    2       -0.0000000000
    6    1    8    2        0.0000000028
    6    1    9    2       -0.0000000158
    6    1   10    2       -0.0007226059
    6    1   11    2        0.0009879842
    6    1   12    2        0.0006810668
    6    1   13    2        0.0000000001
    6    1   14    2       -0.0000000094
    6    1   15    2       -0.0000000019
    6    1   16    2        0.0000000000
    6    1   17    2        0.0000000000
    6    1   18    2        0.0006873931
    6    1   19    2        0.0000000110
    6    1    3    3        0.0070625807
    6    1    4    3       -0.0000000000
    6    1    5    3       -0.0000000513
    6    1    6    3        0.0000001606
    6    1    7    3       -0.0000000672
    6    1    8    3       -0.0000000008
    6    1    9    3       -0.0034211992
    6    1   10    3        0.0000002588
    6    1   11    3        0.0000000788
    6    1   12    3       -0.0000000632
    6    1   13    3        0.0000004256
    6    1   14    3       -0.0017161565
    6    1   15    3       -0.0000015119
    6    1   16    3       -0.0000000237
    6    1   17    3       -0.0000000265
    6    1   18    3        0.0000001068
    6    1   19    3       -0.0002654215
    6    1    4    4        0.0070623871
    6    1    5    4        0.0000000103
    6    1    6    4       -0.0000000320
    6    1    7    4       -0.0000003357
    6    1    8    4       -0.0034216788
    6    1    9    4        0.0000000007
    6    1   10    4       -0.0000000514
    6    1   11    4       -0.0000000166
    6    1   12    4        0.0000000125
    6    1   13    4       -0.0000000852
    6    1   14    4       -0.0000015115
    6    1   15    4        0.0017159344
    6    1   16    4       -0.0000001185
    6    1   17    4       -0.0000001299
    6    1   18    4       -0.0000000095
    6    1   19    4        0.0000000004
    6    1    5    5        0.0020463693
    6    1    6    5        0.0005983715
    6    1    7    5        0.0000000000
    6    1    8    5        0.0000001307
    6    1    9    5       -0.0000006547
    6    1   10    5       -0.0016482048
    6    1   11    5        0.0003150855
    6    1   12    5       -0.0007720971
    6    1   13    5       -0.0000000002
    6    1   14    5       -0.0000001005
    6    1   15    5       -0.0000000202
    6    1   16    5        0.0000000000
    6    1   17    5       -0.0000000000
    6    1   18    5       -0.0016174151
    6    1   19    5       -0.0000001568
    6    1    6    6        0.0025775600
    6    1    7    6        0.0000000000
    6    1    8    6       -0.0000000311
    6    1    9    6        0.0000001533
    6    1   10    6       -0.0001780911
    6    1   11    6        0.0011010700
    6    1   12    6       -0.0010256626
    6    1   13    6        0.0000000001
    6    1   14    6       -0.0000004581
    6    1   15    6       -0.0000000920
    6    1   16    6        0.0000000000
    6    1   17    6       -0.0000000001
    6    1   18    6       -0.0023850121
    6    1   19    6        0.0000000207
    6    1    7    7        0.0018905006
    6    1    8    7       -0.0000000308
    6    1    9    7       -0.0000000061
    6    1   10    7        0.0000000000
    6    1   11    7        0.0000000000
    6    1   12    7       -0.0000000000
    6    1   13    7        0.0000000000
    6    1   14    7       -0.0000000407
    6    1   15    7        0.0000002026
    6    1   16    7        0.0010034605
    6    1   17    7        0.0009831010
    6    1   18    7       -0.0000000000
    6    1   19    7       -0.0000000501
    6    1    8    8        0.0031188321
    6    1    9    8       -0.0000000001
    6    1   10    8        0.0000000192
    6    1   11    8        0.0000000012
    6    1   12    8       -0.0000000271
    6    1   13    8       -0.0000001070
    6    1   14    8        0.0000005376
    6    1   15    8       -0.0006100810
    6    1   16    8        0.0000001159
    6    1   17    8       -0.0000000065
    6    1   18    8        0.0000000638
    6    1   19    8       -0.0000000010
    6    1    9    9        0.0031187971
    6    1   10    9       -0.0000000956
    6    1   11    9       -0.0000000041
    6    1   12    9        0.0000001374
    6    1   13    9        0.0000005345
    6    1   14    9        0.0006100854
    6    1   15    9        0.0000005376
    6    1   16    9        0.0000000234
    6    1   17    9       -0.0000000051
    6    1   18    9       -0.0000000524
    6    1   19    9       -0.0009734275
    6    1   10   10        0.0015480104
    6    1   11   10       -0.0008409400
    6    1   12   10       -0.0003306668
    6    1   13   10        0.0000000000
    6    1   14   10       -0.0000001083
    6    1   15   10       -0.0000000217
    6    1   16   10       -0.0000000000
    6    1   17   10        0.0000000000
    6    1   18   10        0.0012324944
    6    1   19   10       -0.0000001629
    6    1   11   11        0.0013894837
    6    1   12   11       -0.0010360971
    6    1   13   11       -0.0000000001
    6    1   14   11        0.0000003997
    6    1   15   11        0.0000000802
    6    1   16   11        0.0000000000
    6    1   17   11       -0.0000000000
    6    1   18   11       -0.0015230399
    6    1   19   11       -0.0000005553
    6    1   12   12        0.0009724694
    6    1   13   12        0.0000000000
    6    1   14   12       -0.0000001672
    6    1   15   12       -0.0000000336
    6    1   16   12       -0.0000000000
    6    1   17   12        0.0000000000
    6    1   18   12        0.0005824559
    6    1   19   12       -0.0000004033
    6    1   13   13        0.0026341060
    6    1   14   13       -0.0000003461
    6    1   15   13       -0.0000000696
    6    1   16   13       -0.0000000000
    6    1   17   13       -0.0000000000
    6    1   18   13       -0.0000000000
    6    1   19   13       -0.0000001440
    6    1   14   14        0.0017495324
    6    1   15   14        0.0000000001
    6    1   16   14        0.0000000469
    6    1   17   14       -0.0000000207
    6    1   18   14        0.0000000768
    6    1   19   14       -0.0002074282
    6    1   15   15        0.0017494968
    6    1   16   15       -0.0000002331
    6    1   17   15        0.0000000990
    6    1   18   15        0.0000000043
    6    1   19   15       -0.0000001826
    6    1   16   16        0.0016176165
    6    1   17   16       -0.0001762832
    6    1   18   16       -0.0000000000
    6    1   19   16       -0.0000000116
    6    1   17   17        0.0000528964
    6    1   18   17        0.0000000000
    6    1   19   17        0.0000000405
    6    1   18   18        0.0026589515
    6    1   19   18        0.0000001932
    6    1   19   19       -0.0000810118
    7    1    7    1        0.0000852932
    7    1    8    1        0.0000000845
    7    1    9    1        0.0000000169
    7    1   10    1       -0.0000000000
    7    1   11    1        0.0000000000
    7    1   12    1       -0.0000000000
    7    1   13    1       -0.0000000000
    7    1   14    1        0.0000000156
    7    1   15    1       -0.0000000775
    7    1   16    1        0.0000827701
    7    1   17    1        0.0000144812
    7    1   18    1        0.0000000000
    7    1   19    1       -0.0000000186
    7    1    2    2       -0.0000000000
    7    1    3    2       -0.0000001302
    7    1    4    2       -0.0000006500
    7    1    5    2       -0.0000000000
    7    1    6    2       -0.0000000000
    7    1    7    2        0.0002679905
    7    1    8    2        0.0000001062
    7    1    9    2        0.0000000213
    7    1   10    2        0.0000000000
    7    1   11    2       -0.0000000000
    7    1   12    2        0.0000000000
    7    1   13    2        0.0000000000
    7    1   14    2       -0.0000000063
    7    1   15    2        0.0000000316
    7    1   16    2        0.0001542390
    7    1   17    2        0.0001656327
    7    1   18    2       -0.0000000000
    7    1   19    2        0.0000000089
    7    1    3    3       -0.0002670543
    7    1    4    3       -0.0006405497
    7    1    5    3        0.0000001156
    7    1    6    3       -0.0000000771
    7    1    7    3        0.0000007055
    7    1    8    3        0.0002783499
    7    1    9    3        0.0001160473
    7    1   10    3       -0.0000000806
    7    1   11    3       -0.0000000288
    7    1   12    3        0.0000000435
    7    1   13    3        0.0000001509
    7    1   14    3       -0.0000285174
    7    1   15    3        0.0000682423
    7    1   16    3        0.0000002588
    7    1   17    3        0.0000002180
    7    1   18    3       -0.0000000074
    7    1   19    3       -0.0000336808
    7    1    4    4        0.0002670473
    7    1    5    4        0.0000005776
    7    1    6    4       -0.0000003850
    7    1    7    4       -0.0000001411
    7    1    8    4       -0.0001160452
    7    1    9    4        0.0002783488
    7    1   10    4       -0.0000004024
    7    1   11    4       -0.0000001444
    7    1   12    4        0.0000002170
    7    1   13    4        0.0000007542
    7    1   14    4       -0.0000682429
    7    1   15    4       -0.0000285257
    7    1   16    4       -0.0000000517
    7    1   17    4       -0.0000000439
    7    1   18    4       -0.0000000600
    7    1   19    4       -0.0000807867
    7    1    5    5       -0.0000000000
    7    1    6    5        0.0000000000
    7    1    7    5       -0.0003895508
    7    1    8    5        0.0000009043
    7    1    9    5        0.0000001810
    7    1   10    5       -0.0000000000
    7    1   11    5        0.0000000000
    7    1   12    5       -0.0000000000
    7    1   13    5       -0.0000000000
    7    1   14    5        0.0000000303
    7    1   15    5       -0.0000001507
    7    1   16    5       -0.0000119434
    7    1   17    5       -0.0000762101
    7    1   18    5       -0.0000000000
    7    1   19    5        0.0000000224
    7    1    6    6        0.0000000000
    7    1    7    6        0.0002464406
    7    1    8    6       -0.0000001242
    7    1    9    6       -0.0000000248
    7    1   10    6        0.0000000000
    7    1   11    6        0.0000000000
    7    1   12    6       -0.0000000000
    7    1   13    6        0.0000000000
    7    1   14    6        0.0000001609
    7    1   15    6       -0.0000008003
    7    1   16    6        0.0003516150
    7    1   17    6       -0.0000322737
    7    1   18    6        0.0000000000
    7    1   19    6       -0.0000000322
    7    1    7    7       -0.0000000000
    7    1    8    7       -0.0000000146
    7    1    9    7        0.0000000730
    7    1   10    7        0.0003166286
    7    1   11    7        0.0001111654
    7    1   12    7       -0.0002462131
    7    1   13    7        0.0000000000
    7    1   14    7        0.0000004311
    7    1   15    7        0.0000000867
    7    1   16    7       -0.0000000000
    7    1   17    7        0.0000000000
    7    1   18    7        0.0002190446
    7    1   19    7        0.0000003945
    7    1    8    8        0.0000316554
    7    1    9    8       -0.0000758713
    7    1   10    8        0.0000001960
    7    1   11    8       -0.0000000793
    7    1   12    8       -0.0000002110
    7    1   13    8        0.0000009463
    7    1   14    8       -0.0002004371
    7    1   15    8       -0.0000837684
    7    1   16    8        0.0000000563
    7    1   17    8        0.0000000023
    7    1   18    8        0.0000000709
    7    1   19    8       -0.0000565468
    7    1    9    9       -0.0000316074
    7    1   10    9        0.0000000392
    7    1   11    9       -0.0000000159
    7    1   12    9       -0.0000000423
    7    1   13    9        0.0000001894
    7    1   14    9       -0.0000837634
    7    1   15    9        0.0002004116
    7    1   16    9       -0.0000002809
    7    1   17    9       -0.0000000125
    7    1   18    9        0.0000000172
    7    1   19    9       -0.0000235777
    7    1   10   10       -0.0000000000
    7    1   11   10       -0.0000000000
    7    1   12   10       -0.0000000000
    7    1   13   10       -0.0000000000
    7    1   14   10        0.0000000383
    7    1   15   10       -0.0000001903
    7    1   16   10        0.0002952563
    7    1   17   10        0.0001880847
    7    1   18   10       -0.0000000000
    7    1   19   10        0.0000000587
    7    1   11   11       -0.0000000000
    7    1   12   11        0.0000000000
    7    1   13   11        0.0000000000
    7    1   14   11       -0.0000001244
    7    1   15   11        0.0000006186
    7    1   16   11       -0.0001483895
    7    1   17   11        0.0002647619
    7    1   18   11       -0.0000000000
    7    1   19   11        0.0000001440
    7    1   12   12       -0.0000000000
    7    1   13   12        0.0000000000
    7    1   14   12        0.0000000600
    7    1   15   12       -0.0000002986
    7    1   16   12       -0.0001278948
    7    1   17   12        0.0001104245
    7    1   18   12       -0.0000000000
    7    1   19   12        0.0000001424
    7    1   13   13       -0.0000000000
    7    1   14   13       -0.0000001065
    7    1   15   13        0.0000005300
    7    1   16   13        0.0000000000
    7    1   17   13       -0.0000000000
    7    1   18   13        0.0000000000
    7    1   19   13       -0.0000000625
    7    1   14   14       -0.0000348064
    7    1   15   14        0.0000830682
    7    1   16   14       -0.0000004731
    7    1   17   14        0.0000001852
    7    1   18   14       -0.0000000213
    7    1   19   14        0.0000215401
    7    1   15   15        0.0000348012
    7    1   16   15       -0.0000000951
    7    1   17   15        0.0000000370
    7    1   18   15        0.0000000904
    7    1   19   15       -0.0000515404
    7    1   16   16       -0.0000000000
    7    1   17   16        0.0000000000
    7    1   18   16        0.0000973301
    7    1   19   16        0.0000001028
    7    1   17   17        0.0000000000
    7    1   18   17        0.0000612233
    7    1   19   17       -0.0000003384
    7    1   18   18        0.0000000000
    7    1   19   18       -0.0000000197
    7    1   19   19        0.0000051527
    8    1    8    1        0.0012165872
    8    1    9    1        0.0000000000
    8    1   10    1        0.0000000116
    8    1   11    1       -0.0000000128
    8    1   12    1        0.0000000088
    8    1   13    1       -0.0000000029
    8    1   14    1        0.0000005173
    8    1   15    1       -0.0005870833
    8    1   16    1        0.0000000625
    8    1   17    1       -0.0000000490
    8    1   18    1        0.0000000418
    8    1   19    1       -0.0000000003
    8    1    2    2       -0.0000000184
    8    1    3    2       -0.0000000011
    8    1    4    2       -0.0047902414
    8    1    5    2       -0.0000000485
    8    1    6    2        0.0000000598
    8    1    7    2        0.0000006885
    8    1    8    2        0.0025326526
    8    1    9    2       -0.0000000000
    8    1   10    2        0.0000000463
    8    1   11    2        0.0000000189
    8    1   12    2        0.0000000069
    8    1   13    2       -0.0000000122
    8    1   14    2        0.0000004540
    8    1   15    2       -0.0005152074
    8    1   16    2        0.0000002230
    8    1   17    2        0.0000001248
    8    1   18    2        0.0000000507
    8    1   19    2       -0.0000000002
    8    1    3    3        0.0000000924
    8    1    4    3        0.0000002508
    8    1    5    3       -0.0000000001
    8    1    6    3       -0.0000000004
    8    1    7    3        0.0010168540
    8    1    8    3        0.0000009919
    8    1    9    3        0.0000006569
    8    1   10    3        0.0000000001
    8    1   11    3       -0.0000000001
    8    1   12    3        0.0000000000
    8    1   13    3        0.0006412531
    8    1   14    3       -0.0000006124
    8    1   15    3        0.0000010346
    8    1   16    3        0.0006927586
    8    1   17    3        0.0005240726
    8    1   18    3        0.0000000002
    8    1   19    3       -0.0000002762
    8    1    4    4       -0.0000000547
    8    1    5    4       -0.0006506287
    8    1    6    4       -0.0015784068
    8    1    7    4       -0.0004239294
    8    1    8    4       -0.0000001585
    8    1    9    4        0.0000010273
    8    1   10    4        0.0001209351
    8    1   11    4       -0.0006430860
    8    1   12    4        0.0006395817
    8    1   13    4        0.0015381239
    8    1   14    4       -0.0000009791
    8    1   15    4       -0.0000001936
    8    1   16    4       -0.0002888062
    8    1   17    4       -0.0002184922
    8    1   18    4        0.0004552880
    8    1   19    4       -0.0000004098
    8    1    5    5        0.0000015180
    8    1    6    5       -0.0000010758
    8    1    7    5       -0.0000088690
    8    1    8    5        0.0013566104
    8    1    9    5        0.0000000006
    8    1   10    5        0.0000000218
    8    1   11    5        0.0000000317
    8    1   12    5       -0.0000005305
    8    1   13    5        0.0000000701
    8    1   14    5        0.0000004256
    8    1   15    5       -0.0004835295
    8    1   16    5       -0.0000010124
    8    1   17    5        0.0000006722
    8    1   18    5       -0.0000005290
    8    1   19    5       -0.0000000005
    8    1    6    6        0.0000010895
    8    1    7    6        0.0000062524
    8    1    8    6        0.0009423280
    8    1    9    6       -0.0000000004
    8    1   10    6        0.0000003443
    8    1   11    6       -0.0000007339
    8    1   12    6        0.0000005990
    8    1   13    6       -0.0000000332
    8    1   14    6        0.0000012439
    8    1   15    6       -0.0014112234
    8    1   16    6        0.0000049302
    8    1   17    6       -0.0000017169
    8    1   18    6        0.0000002181
    8    1   19    6       -0.0000000002
    8    1    7    7        0.0000028034
[...]
   16   13   16   16        0.0000000000
   16   13   17   16       -0.0000000000
   16   13   18   16        0.0000000002
   16   13   19   16       -0.0000013520
   16   13   17   17       -0.0000000000
   16   13   18   17        0.0000000000
   16   13   19   17       -0.0000023595
   16   13   18   18       -0.0000000001
   16   13   19   18        0.0000001801
   16   13   19   19        0.0000000003
   17   13   17   13        0.0006155477
   17   13   18   13        0.0000000000
   17   13   19   13        0.0000000239
   17   13   14   14       -0.0000000003
   17   13   15   14       -0.0000000050
   17   13   16   14        0.0000003121
   17   13   17   14       -0.0000048333
   17   13   18   14        0.0000000346
   17   13   19   14        0.0000002015
   17   13   15   15        0.0000000001
   17   13   16   15        0.0000000671
   17   13   17   15       -0.0000009771
   17   13   18   15       -0.0000001172
   17   13   19   15       -0.0002290357
   17   13   16   16       -0.0000000002
   17   13   17   16        0.0000000000
   17   13   18   16       -0.0000000000
   17   13   19   16       -0.0000002975
   17   13   17   17        0.0000000000
   17   13   18   17       -0.0000000003
   17   13   19   17        0.0000024633
   17   13   18   18        0.0000000002
   17   13   19   18       -0.0000005414
   17   13   19   19       -0.0000000005
   18   13   18   13        0.0008012904
   18   13   19   13       -0.0000001441
   18   13   14   14       -0.0010234228
   18   13   15   14       -0.0004287815
   18   13   16   14        0.0000005626
   18   13   17   14       -0.0000000404
   18   13   18   14       -0.0000050861
   18   13   19   14       -0.0000200013
   18   13   15   15        0.0010233664
   18   13   16   15       -0.0000031309
   18   13   17   15        0.0000005358
   18   13   18   15       -0.0000010077
   18   13   19   15       -0.0000083500
   18   13   16   16        0.0000000017
   18   13   17   16        0.0000000003
   18   13   18   16       -0.0000000002
   18   13   19   16       -0.0000001565
   18   13   17   17       -0.0000000003
   18   13   18   17        0.0000000007
   18   13   19   17        0.0000003571
   18   13   18   18       -0.0000001117
   18   13   19   18       -0.0000024649
   18   13   19   19       -0.0004338960
   19   13   19   13        0.0042650816
   19   13   14   14       -0.0000241108
   19   13   15   14        0.0000040909
   19   13   16   14       -0.0000011397
   19   13   17   14        0.0000011328
   19   13   18   14       -0.0002249781
   19   13   19   14       -0.0000244737
   19   13   15   15       -0.0000205865
   19   13   16   15        0.0012941334
   19   13   17   15       -0.0012868543
   19   13   18   15       -0.0000940555
   19   13   19   15        0.0000041900
   19   13   16   16       -0.0000546265
   19   13   17   16       -0.0000000586
   19   13   18   16        0.0000009427
   19   13   19   16        0.0000000001
   19   13   17   17       -0.0000016696
   19   13   18   17       -0.0000032672
   19   13   19   17       -0.0000000007
   19   13   18   18       -0.0000368427
   19   13   19   18        0.0001738318
   19   13   19   19       -0.0000219909
   14   14   14   14        0.0815142022
   14   14   15   14        0.0003069851
   14   14   16   14       -0.0000096640
   14   14   17   14        0.0000044570
   14   14   18   14        0.0000205330
   14   14   19   14       -0.0000700214
   14   14   15   15        0.0734918499
   14   14   16   15       -0.0000046910
   14   14   17   15       -0.0000014360
   14   14   18   15        0.0000089344
   14   14   19   15       -0.0007183950
   14   14   16   16        0.0692674696
   14   14   17   16       -0.0020345420
   14   14   18   16       -0.0000025743
   14   14   19   16        0.0000022904
   14   14   17   17        0.0623211463
   14   14   18   17       -0.0001704554
   14   14   19   17       -0.0000089724
   14   14   18   18        0.0771091356
   14   14   19   18        0.0000188674
   14   14   19   19        0.0678836283
   15   14   15   14        0.0034067230
   15   14   16   14        0.0000223343
   15   14   17   14       -0.0000085006
   15   14   18   14        0.0000063749
   15   14   19   14       -0.0007198068
   15   14   15   15       -0.0003070993
   15   14   16   15        0.0000148410
   15   14   17   15       -0.0000072257
   15   14   18   15       -0.0000098966
   15   14   19   15        0.0003670546
   15   14   16   16       -0.0000000003
   15   14   17   16        0.0000000003
   15   14   18   16        0.0000061230
   15   14   19   16       -0.0000062452
   15   14   17   17       -0.0000000016
   15   14   18   17        0.0004068584
   15   14   19   17        0.0000148958
   15   14   18   18        0.0000001593
   15   14   19   18        0.0000059087
   15   14   19   19        0.0010469874
   16   14   16   14        0.0038596172
   16   14   17   14       -0.0010727071
   16   14   18   14       -0.0003309678
   16   14   19   14        0.0000007274
   16   14   15   15        0.0000202743
   16   14   16   15       -0.0000000285
   16   14   17   15        0.0000000175
   16   14   18   15        0.0007898148
   16   14   19   15        0.0000051228
   16   14   16   16        0.0000194417
   16   14   17   16       -0.0000007941
   16   14   18   16        0.0000055206
   16   14   19   16        0.0003269445
   16   14   17   17        0.0000147845
   16   14   18   17        0.0000055364
   16   14   19   17        0.0015822503
   16   14   18   18        0.0000082811
   16   14   19   18       -0.0001736778
   16   14   19   19       -0.0000105386
   17   14   17   14        0.0014261222
   17   14   18   14        0.0000035905
   17   14   19   14       -0.0000014180
   17   14   15   15       -0.0000086396
   17   14   16   15        0.0000000174
   17   14   17   15       -0.0000000204
   17   14   18   15       -0.0000085107
   17   14   19   15       -0.0000027287
   17   14   16   16       -0.0000057919
   17   14   17   16        0.0000018331
   17   14   18   16        0.0000031335
   17   14   19   16        0.0004400948
   17   14   17   17       -0.0000030454
   17   14   18   17        0.0000039552
   17   14   19   17       -0.0007158860
   17   14   18   18       -0.0000029772
   17   14   19   18        0.0001328040
   17   14   19   19        0.0000068093
   18   14   18   14        0.0029323618
   18   14   19   14        0.0000025246
   18   14   15   15        0.0000024211
   18   14   16   15        0.0007899563
   18   14   17   15       -0.0000085722
   18   14   18   15        0.0000000351
   18   14   19   15        0.0000006698
   18   14   16   16        0.0000100702
   18   14   17   16       -0.0000046963
   18   14   18   16       -0.0000003872
   18   14   19   16       -0.0002532881
   18   14   17   17        0.0000102768
   18   14   18   17       -0.0000001787
   18   14   19   17        0.0000513382
   18   14   18   18        0.0000176911
   18   14   19   18        0.0007644309
   18   14   19   19        0.0000128501
   19   14   19   14        0.0053876257
   19   14   15   15        0.0020314934
   19   14   16   15       -0.0000171724
   19   14   17   15        0.0000164720
   19   14   18   15        0.0000015519
   19   14   19   15        0.0002041513
   19   14   16   16        0.0001635445
   19   14   17   16        0.0014702546
   19   14   18   16       -0.0000020554
   19   14   19   16       -0.0000014755
   19   14   17   17       -0.0042215261
   19   14   18   17        0.0001684829
   19   14   19   17        0.0000051528
   19   14   18   18        0.0011655249
   19   14   19   18       -0.0000064728
   19   14   19   19       -0.0053413779
   15   15   15   15        0.0815131551
   15   15   16   15       -0.0000480874
   15   15   17   15        0.0000222761
   15   15   18   15       -0.0000042211
   15   15   19   15        0.0007201657
   15   15   16   16        0.0692671792
   15   15   17   16       -0.0020348519
   15   15   18   16        0.0000025570
   15   15   19   16       -0.0000051232
   15   15   17   17        0.0623218578
   15   15   18   17        0.0001704709
   15   15   19   17        0.0000164937
   15   15   18   18        0.0771073873
   15   15   19   18        0.0000000974
   15   15   19   19        0.0617045591
   16   15   16   15        0.0038595921
   16   15   17   15       -0.0010729504
   16   15   18   15        0.0003309217
   16   15   19   15       -0.0000032628
   16   15   16   16       -0.0000967117
   16   15   17   16        0.0000039544
   16   15   18   16        0.0000011261
   16   15   19   16        0.0000002933
   16   15   17   17       -0.0000734859
   16   15   18   17        0.0000011976
   16   15   19   17        0.0000013556
   16   15   18   18       -0.0000409607
   16   15   19   18        0.0004155772
   16   15   19   19       -0.0000087378
   17   15   17   15        0.0014264008
   17   15   18   15       -0.0000035669
   17   15   19   15        0.0000044557
   17   15   16   16        0.0000288187
   17   15   17   16       -0.0000090867
   17   15   18   16        0.0000006530
   17   15   19   16        0.0000003846
   17   15   17   17        0.0000150611
   17   15   18   17        0.0000007538
   17   15   19   17       -0.0000005949
   17   15   18   18        0.0000146473
   17   15   19   18       -0.0003178335
   17   15   19   19       -0.0000157670
   18   15   18   15        0.0029319448
   18   15   19   15       -0.0000019272
   18   15   16   16        0.0000020321
   18   15   17   16       -0.0000008660
   18   15   18   16        0.0000020920
   18   15   19   16        0.0006060106
   18   15   17   17        0.0000018451
   18   15   18   17        0.0000007523
   18   15   19   17       -0.0001229210
   18   15   18   18        0.0000036915
   18   15   19   18        0.0000006896
   18   15   19   19        0.0000058267
   19   15   19   15        0.0010654808
   19   15   16   16        0.0000001441
   19   15   17   16        0.0000012948
   19   15   18   16        0.0000049156
   19   15   19   16        0.0000026718
   19   15   17   17       -0.0000037169
   19   15   18   17       -0.0004031576
   19   15   19   17       -0.0000082223
   19   15   18   18        0.0000009886
   19   15   19   18       -0.0000020640
   19   15   19   19       -0.0009206066
   16   16   16   16        0.0710974701
   16   16   17   16       -0.0021607794
   16   16   18   16        0.0000000004
   16   16   19   16       -0.0000010688
   16   16   17   17        0.0634402106
   16   16   18   17       -0.0000000029
   16   16   19   17        0.0000114930
   16   16   18   18        0.0681241459
   16   16   19   18        0.0000142013
   16   16   19   19        0.0622598833
   17   16   17   16        0.0027451336
   17   16   18   16       -0.0000000009
   17   16   19   16        0.0000034530
   17   16   17   17       -0.0024968289
   17   16   18   17        0.0000000005
   17   16   19   17       -0.0000020035
   17   16   18   18       -0.0010768881
   17   16   19   18       -0.0000034106
   17   16   19   19       -0.0020323701
   18   16   18   16        0.0012566750
   18   16   19   16        0.0000148994
   18   16   17   17        0.0000000009
   18   16   18   17        0.0000476073
   18   16   19   17       -0.0000065147
   18   16   18   18        0.0000000002
   18   16   19   18       -0.0000003704
   18   16   19   19        0.0000049911
   19   16   19   16        0.0013488134
   19   16   17   17       -0.0000032141
   19   16   18   17       -0.0000045284
   19   16   19   17       -0.0004664612
   19   16   18   18       -0.0000004215
   19   16   19   18       -0.0000941906
   19   16   19   19        0.0000017275
   17   17   17   17        0.0739562522
   17   17   18   17       -0.0000000059
   17   17   19   17        0.0000227268
   17   17   18   18        0.0623255841
   17   17   19   18        0.0000285651
   17   17   19   19        0.0672937901
   18   17   18   17        0.0012751287
   18   17   19   17        0.0000274633
   18   17   18   18       -0.0000000013
   18   17   19   18        0.0000015841
   18   17   19   19        0.0000613180
   19   17   19   17        0.0039116319
   19   17   18   18        0.0000043197
   19   17   19   18       -0.0000614585
   19   17   19   19       -0.0000159903
   18   18   18   18        0.0915487372
   18   18   19   18        0.0000160013
   18   18   19   19        0.0643513806
   19   18   19   18        0.0010372024
   19   18   19   19        0.0000333659
   19   19   19   19        0.0754866734
 end_two_electron_integrals


 output epsi filename:./pspw_hf_LiH.emovecs

 Total PSPW energy     :  -0.6209223995E+00


=== Spin Contamination ===

 <Sexact^2> =    0.0000000000000000     
 <S^2>      =    0.0000000000000000     



== Center of Charge ==

spin up     (    0.0000,    0.0000,    5.0955 )
spin down   (    0.0000,    0.0000,    5.0955 )
     total  (    0.0000,    0.0000,    5.0955 )
ionic       (    0.0000,    0.0000,    2.1259 )


== Molecular Dipole wrt Center of Mass ==

mu   =  (   -0.0000,   -0.0000,   -5.9391 ) au
|mu| =     5.9391 au,      15.0949 Debye

 output psi filename:./pspw_hf_LiH.movecs

 Writing Crystallographic Information File:./LiH.cif
   - cell not shifted (nwpw:cif_shift_cell .false.)


== Timing ==

cputime in seconds
  prologue    :   0.890535E+02
  main loop   :   0.213669E+04
  epilogue    :   0.794677E-01
  total       :   0.222582E+04
  cputime/step:   0.962471E+01       (     222 evalulations,      95 linesearches)


Time spent doing                        total          step       percent
  total time                 :   0.222583E+04  0.100263E+02       100.0 %
  i/o time                   :   0.233259E+01  0.105072E-01         0.1 %
  FFTs                       :   0.173043E+04  0.779473E+01        77.7 %
  dot products               :   0.117608E+02  0.529765E-01         0.5 %
  geodesic                   :   0.165877E+00  0.747194E-03         0.0 %
  ffm_dgemm                  :   0.404343E-01  0.182137E-03         0.0 %
  fmf_dgemm                  :   0.720520E-01  0.324559E-03         0.0 %
  mmm_dgemm                  :   0.521803E-02  0.235046E-04         0.0 %
  m_diagonalize              :   0.218609E-02  0.984726E-05         0.0 %
  local pseudopotentials     :   0.595757E-02  0.268359E-04         0.0 %
  non-local pseudopotentials :   0.609188E+01  0.274409E-01         0.3 %
  structure factors          :   0.121342E+01  0.546586E-02         0.1 %
  phase factors              :   0.194110E-04  0.874369E-07         0.0 %
  masking and packing        :   0.706601E+02  0.318289E+00         3.2 %
  queue fft                  :   0.260076E+01  0.117151E-01         0.1 %
  queue fft (serial)         :   0.944762E+00  0.425568E-02         0.0 %
  queue fft (message passing):   0.153507E+01  0.691472E-02         0.1 %
  HFX potential              :   0.163065E+04  0.734528E+01        73.3 %
  non-local psp FFM          :   0.474196E+01  0.213602E-01         0.2 %
  non-local psp FMF          :   0.317629E+00  0.143076E-02         0.0 %
  non-local psp FFM A        :   0.594395E+00  0.267746E-02         0.0 %
  non-local psp FFM B        :   0.533606E+00  0.240363E-02         0.0 %

== HFX Counters ==
  HFX Evalulations         =   222
  Lin ACE HFX Evalulations =     0


     >>>  JOB COMPLETED     AT Mon May  5 05:58:31 2025  <<<

 Task  times  cpu:     2079.9s     wall:     2225.8s


                                NWChem Input Module
                                -------------------


 Summary of allocated global arrays
-----------------------------------
  No active global arrays


MA_summarize_allocated_blocks: starting scan ...
MA_summarize_allocated_blocks: scan completed: 0 heap blocks, 0 stack blocks
MA usage statistics:

	allocation statistics:
					      heap	     stack
					      ----	     -----
	current number of blocks	         0	         0
	maximum number of blocks	       315	        19
	current total bytes		         0	         0
	maximum total bytes		 127233576	  29398968
	maximum total K-bytes		    127234	     29399
	maximum total M-bytes		       128	        30


                                     CITATION
                                     --------
                Please cite the following reference when publishing
                           results obtained with NWChem:

          E. Apra, E. J. Bylaska, W. A. de Jong, N. Govind, K. Kowalski,
       T. P. Straatsma, M. Valiev, H. J. J. van Dam, Y. Alexeev, J. Anchell,
       V. Anisimov, F. W. Aquino, R. Atta-Fynn, J. Autschbach, N. P. Bauman,
     J. C. Becca, D. E. Bernholdt, K. Bhaskaran-Nair, S. Bogatko, P. Borowski,
         J. Boschen, J. Brabec, A. Bruner, E. Cauet, Y. Chen, G. N. Chuev,
      C. J. Cramer, J. Daily, M. J. O. Deegan, T. H. Dunning Jr., M. Dupuis,
   K. G. Dyall, G. I. Fann, S. A. Fischer, A. Fonari, H. Fruchtl, L. Gagliardi,
      J. Garza, N. Gawande, S. Ghosh, K. Glaesemann, A. W. Gotz, J. Hammond,
       V. Helms, E. D. Hermes, K. Hirao, S. Hirata, M. Jacquelin, L. Jensen,
   B. G. Johnson, H. Jonsson, R. A. Kendall, M. Klemm, R. Kobayashi, V. Konkov,
      S. Krishnamoorthy, M. Krishnan, Z. Lin, R. D. Lins, R. J. Littlefield,
      A. J. Logsdail, K. Lopata, W. Ma, A. V. Marenich, J. Martin del Campo,
   D. Mejia-Rodriguez, J. E. Moore, J. M. Mullin, T. Nakajima, D. R. Nascimento,
    J. A. Nichols, P. J. Nichols, J. Nieplocha, A. Otero-de-la-Roza, B. Palmer,
    A. Panyala, T. Pirojsirikul, B. Peng, R. Peverati, J. Pittner, L. Pollack,
   R. M. Richard, P. Sadayappan, G. C. Schatz, W. A. Shelton, D. W. Silverstein,
   D. M. A. Smith, T. A. Soares, D. Song, M. Swart, H. L. Taylor, G. S. Thomas,
            V. Tipparaju, D. G. Truhlar, K. Tsemekhman, T. Van Voorhis,
      A. Vazquez-Mayagoitia, P. Verma, O. Villa, A. Vishnu, K. D. Vogiatzis,
        D. Wang, J. H. Weare, M. J. Williamson, T. L. Windus, K. Wolinski,
        A. T. Wong, Q. Wu, C. Yang, Q. Yu, M. Zacharias, Z. Zhang, Y. Zhao,
                                and R. J. Harrison
                        "NWChem: Past, present, and future
                         J. Chem. Phys. 152, 184102 (2020)
                               doi:10.1063/5.0004997

                                      AUTHORS
                                      -------
  E. Apra, E. J. Bylaska, N. Govind, K. Kowalski, M. Valiev, D. Mejia-Rodriguez,
       A. Kunitsa, N. P. Bauman, A. Panyala, W. A. de Jong, T. P. Straatsma,
   H. J. J. van Dam, D. Wang, T. L. Windus, J. Hammond, J. Autschbach, A. Woods,
    K. Bhaskaran-Nair, J. Brabec, K. Lopata, S. A. Fischer, S. Krishnamoorthy,
     M. Jacquelin, W. Ma, M. Klemm, O. Villa, Y. Chen, V. Anisimov, F. Aquino,
     S. Hirata, M. T. Hackler, E. Hermes, L. Jensen, J. E. Moore, J. C. Becca,
      V. Konjkov, T. Risthaus, M. Malagoli, A. Marenich, A. Otero-de-la-Roza,
        J. Mullin, P. Nichols, R. Peverati, J. Pittner, Y. Zhao, P.-D. Fan,
        A. Fonari, M. J. Williamson, R. J. Harrison, J. R. Rehr, M. Dupuis,
     D. Silverstein, D. M. A. Smith, J. Nieplocha, V. Tipparaju, M. Krishnan,
     B. E. Van Kuiken, A. Vazquez-Mayagoitia, M. Swart, Q. Wu, T. Van Voorhis,
     A. A. Auer, M. Nooijen, L. D. Crosby, E. Brown, G. Cisneros, G. I. Fann,
   H. Fruchtl, J. Garza, K. Hirao, R. A. Kendall, J. A. Nichols, K. Tsemekhman,
    K. Wolinski, J. Anchell, D. E. Bernholdt, P. Borowski, T. Clark, D. Clerc,
   H. Dachsel, M. J. O. Deegan, K. Dyall, D. Elwood, E. Glendening, M. Gutowski,
   A. C. Hess, J. Jaffe, B. G. Johnson, J. Ju, R. Kobayashi, R. Kutteh, Z. Lin,
   R. Littlefield, X. Long, B. Meng, T. Nakajima, S. Niu, L. Pollack, M. Rosing,
   K. Glaesemann, G. Sandrone, M. Stave, H. Taylor, G. Thomas, J. H. van Lenthe,
                               A. T. Wong, Z. Zhang.

 Total times  cpu:     2079.9s     wall:     2225.9s
