 argument  1 = H1Li1-1.3.nw



============================== echo of input deck ==============================
# queue_nwchem_JobId: 61c94da5ea88854f1bdd7095
# queue_nwchem_restart_count: 0
#
#nwchem_input  H1Li1.nw
#nwchem_output H1Li1.out00
#nwchem_done   H1Li1.done
#
#mformula_off
#
#transfer_files *.nw *.xyz *.ion_motion *.emotion *.fei *.cif *.hist *.gr *.dat *.meta_gaussians *.cube *.neb_epath *.neb_final_epath
#bad_files md_xs
#
#curdir we31869.emsl.pnl.gov:/media/seagate2/Projects/Duo/COVOs/LiH/3x3_aperiodic_1covo/R-1.3
#
#permdir H1Li1-3x3a-1covo-1.3
#deletescratch no
#queuesave no
#
#machine aerosol8
#cputime 22:05:00
#ncpus 32
#queue regular
#
title "swnc: e theory=pspw4 xc=pbe formula=LiH charge=0 mult=1"
#machinejob:expert

echo

start pspw_hf_LiH

memory heap 2200 mb stack 2200 mb global 10 mb

charge 0

geometry
Li    0.00000    0.00000   -0.65000
H     0.00000    0.00000    0.65000
end

nwpw
  ### pseudopotential block begin ###
  ### pseudopotential block end   ###
  simulation_cell
     SC 28.345889835
     boundary_conditions aperiodic
  end

  cutoff 50.0
  mult 1
  xc hf
  lmbfgs
  tolerances 1.0e-9 1.0e-9

end
set nwpw:cif_filename LiH

#set nwpw:CI_maxit_orb 15
#set nwpw:CI_maxit_linesearch 15
set pspw:HFX_screening_radius 14.0


set nwpw:2qintegrals .true.
#set nwpw:3x3_virtual .true.

task pspw energy

================================================================================


                                         
                                         


             Northwest Computational Chemistry Package (NWChem) 7.2.2
             --------------------------------------------------------


                    Environmental Molecular Sciences Laboratory
                       Pacific Northwest National Laboratory
                                Richland, WA 99352

                              Copyright (c) 1994-2022
                       Pacific Northwest National Laboratory
                            Battelle Memorial Institute

             NWChem is an open-source computational chemistry package
                        distributed under the terms of the
                      Educational Community License (ECL) 2.0
             A copy of the license is included with this distribution
                              in the LICENSE.TXT file

                                  ACKNOWLEDGMENT
                                  --------------

            This software and its documentation were developed at the
            EMSL at Pacific Northwest National Laboratory, a multiprogram
            national laboratory, operated for the U.S. Department of Energy
            by Battelle under Contract Number DE-AC05-76RL01830. Support
            for this work was provided by the Department of Energy Office
            of Biological and Environmental Research, Office of Basic
            Energy Sciences, and the Office of Advanced Scientific Computing.


           Job information
           ---------------

    hostname        = LAPTOP-JJQSTSEL
    program         = nwchem
    date            = Sat May  3 22:59:07 2025

    compiled        = Fri_Jun_07_07:50:04_2024
    source          = /home/conda/feedstock_root/build_artifacts/nwchem_1717738148552/work
    nwchem branch   = 7.2.2
    nwchem revision = 64ba0f0
    ga revision     = 5.8.0
    use scalapack   = T
    input           = H1Li1-1.3.nw
    prefix          = pspw_hf_LiH.
    data base       = ./pspw_hf_LiH.db
    status          = startup
    nproc           =        1
    time left       =     -1s



           Memory information
           ------------------

    heap     =  288358394 doubles =   2200.0 Mbytes
    stack    =  288358399 doubles =   2200.0 Mbytes
    global   =    1310720 doubles =     10.0 Mbytes (distinct from heap & stack)
    total    =  578027513 doubles =   4410.0 Mbytes
    verify   = yes
    hardfail = no 


           Directory information
           ---------------------

  0 permanent = .
  0 scratch   = .




                                NWChem Input Module
                                -------------------


              swnc: e theory=pspw4 xc=pbe formula=LiH charge=0 mult=1
              -------------------------------------------------------

 Scaling coordinates for geometry "geometry" by  1.889725989
 (inverse scale =  0.529177249)

 ORDER OF PRIMARY AXIS IS BEING SET TO 4
 C4V symmetry detected

          ------
          auto-z
          ------
  no constraints, skipping    0.0000000000000000     
  no constraints, skipping    0.0000000000000000     


                             Geometry "geometry" -> ""
                             -------------------------

 Output coordinates in angstroms (scale by  1.889725989 to convert to a.u.)

  No.       Tag          Charge          X              Y              Z
 ---- ---------------- ---------- -------------- -------------- --------------
    1 Li                   3.0000     0.00000000     0.00000000    -0.32500000
    2 H                    1.0000     0.00000000     0.00000000     0.97500000

      Atomic Mass 
      ----------- 

      Li                 7.016000
      H                  1.007825


 Effective nuclear repulsion energy (a.u.)       1.2211782669

            Nuclear Dipole moment (a.u.) 
            ----------------------------
        X                 Y               Z
 ---------------- ---------------- ----------------
     0.0000000000     0.0000000000     0.0000000000

      Symmetry information
      --------------------

 Group name             C4v       
 Group number             18
 Group order               8
 No. of unique centers     2

      Symmetry unique atoms

     1    2



                                Z-matrix (autoz)
                                -------- 

 Units are Angstrom for bonds and degrees for angles

      Type          Name      I     J     K     L     M      Value
      ----------- --------  ----- ----- ----- ----- ----- ----------
    1 Stretch                  1     2                       1.30000


            XYZ format geometry
            -------------------
     2
 geometry
 Li                    0.00000000     0.00000000    -0.32500000
 H                     0.00000000     0.00000000     0.97500000

 ==============================================================================
                                internuclear distances
 ------------------------------------------------------------------------------
       center one      |      center two      | atomic units |  angstroms
 ------------------------------------------------------------------------------
    2 H                |   1 Li               |     2.45664  |     1.30000
 ------------------------------------------------------------------------------
                         number of included internuclear distances:          1
 ==============================================================================



          ****************************************************
          *                                                  *
          *               NWPW PSPW Calculation              *
          *                                                  *
          * [ (Grassmann/Stiefel manifold implementation)  ] *
          *                                                  *
          *      [ NorthWest Chemistry implementation ]      *
          *                                                  *
          *            version #5.10   06/12/02              *
          *                                                  *
          *    This code was developed by Eric J. Bylaska,   *
          *    and was based upon algorithms and code        *
          *    developed by the group of Prof. John H. Weare *
          *                                                  *
          ****************************************************
     >>>  JOB STARTED       AT Sat May  3 22:59:07 2025  <<<
          ================ input data ========================
  library name resolved from: environment
  NWCHEM_NWPW_LIBRARY set to: </home/blanch/miniconda3/envs/adrienv/share/nwchem/libraryps/>
 Generating 1d pseudopotential for Li  

 Generated formatted_filename: ./Li.vpp
  library name resolved from: environment
  NWCHEM_NWPW_LIBRARY set to: </home/blanch/miniconda3/envs/adrienv/share/nwchem/libraryps/>
 Generating 1d pseudopotential for H   

 Generated formatted_filename: ./H.vpp
 random planewave guess, initial psi:pspw_hf_LiH.movecs                                
 -   spin, nalpha, nbeta:                    1                    1                    0

 input psi filename:./pspw_hf_LiH.movecs

 Warning - K.S. orbitals are not orthonormal. Applying Gram-Schmidt orthonormalization.
         - exact norm=0.100000E+01 norm=0.786638E+00 corrected norm=0.100000E+01 (error=0.213362E+00)


 number of processors used:         1
 processor grid           :   1 x   1
 parallel mapping         :2d-hilbert
 parallel mapping         :  balanced
 number of threads        :         1
 parallel io              :       off

 options:
      boundary conditions  = aperiodic   (version4)
      electron spin        = restricted
      exchange-correlation = Hartree-Fock
      - HFX relaxed
      - HFX restricted orbitals :    1
      - HFX free-space coulomb solver


 elements involved in the cluster:
      1: Li  valence charge:  1.0000  lmax=  1
             comment    : Hamann pseudopotential
             pseudpotential type            :   0
             highest angular component      :   1
             local potential used           :   1
             number of non-local projections:   1
             aperiodic cutoff radius        :  1.000
             semicore corrections included  :  1.000 (radius)  0.769 (charge)
             cutoff =   1.869   1.551

      2: H   valence charge:  1.0000  lmax=  1
             comment    : Parameterized (Chem.Phys.Lett., vol 322, page 447) Hamman psp
             pseudpotential type            :   0
             highest angular component      :   1
             local potential used           :   1
             number of non-local projections:   1
             aperiodic cutoff radius        :  1.000
             cutoff =   0.800   0.800


 total charge:   0.000

 atomic composition:
     Li  :    1     H   :    1

 number of electrons: spin up=     1 (   1 per task)  down=     1 (   1 per task) (Fourier space)
 number of orbitals : spin up=     1 (   1 per task)  down=     1 (   1 per task) (Fourier space)

 supercell:
      cell_name:  cell_default                                      
      lattice:    a1=<  28.346   0.000   0.000 >
                  a2=<   0.000  28.346   0.000 >
                  a3=<   0.000   0.000  28.346 >
      reciprocal: b1=<   0.222   0.000   0.000 >
                  b2=<   0.000   0.222   0.000 >
                  b3=<   0.000   0.000   0.222 >
      lattice:    a=      28.346 b=     28.346 c=      28.346
                  alpha=  90.000 beta=  90.000 gamma=  90.000
                  omega=     22775.6

      density cutoff= 25.000  fft= 70x 70x 70(    67942 waves    67942 per task)
      wavefnc cutoff= 12.500  fft= 70x 70x 70(    23969 waves    23969 per task)

 technical parameters:
      time step=      5.80     fictitious mass=  400000.0
      tolerance=0.100E-08 (energy)   0.100E-08 (density)
      maximum iterations =      1000 (   10 inner    100 outer )





== Energy Calculation ==


          ============ Grassmann lmbfgs iteration ============
     >>>  ITERATION STARTED AT Sat May  3 22:59:22 2025  <<<
    iter.           Energy         DeltaE       DeltaRho 
    ------------------------------------------------------
     -  15 steepest descent iterations performed
      10   -0.6330039992E+00   -0.28400E-01    0.45183E-01
     -  10 steepest descent iterations performed
      20   -0.7246961333E+00   -0.31901E-03    0.68192E-02
      30   -0.7252243104E+00   -0.40879E-05    0.18755E-05
      40   -0.7252304763E+00   -0.23799E-07    0.54002E-07
      50   -0.7252305202E+00   -0.76675E-09    0.25267E-09
  *** tolerance ok. iteration terminated
     >>>  ITERATION ENDED   AT Sat May  3 23:00:04 2025  <<<


==  Summary Of Results  ==

 number of electrons: spin up=    1.00000  down=    1.00000 (real space)

 total     energy    :  -0.7252305202E+00 (   -0.36262E+00/ion)
 total orbital energy:  -0.6207203735E+00 (   -0.62072E+00/electron)
 hartree   energy    :   0.1023139138E+01 (    0.10231E+01/electron)
 exc-corr  energy    :   0.0000000000E+00 (    0.00000E+00/electron)
 HF exchange energy  :  -0.5115695690E+00 (   -0.51157E+00/electron)
 ion-ion   energy    :   0.4070594223E+00 (    0.20353E+00/ion)

 kinetic (planewave) :   0.7009793953E+00 (    0.70098E+00/electron)
 V_local (planewave) :  -0.2268674000E+01 (   -0.22687E+01/electron)
 V_nl    (planewave) :  -0.7616490677E-01 (   -0.76165E-01/electron)
 V_Coul  (planewave) :   0.2046278276E+01 (    0.20463E+01/electron)
 V_xc.   (planewave) :   0.0000000000E+00 (    0.00000E+00/electron)
 K.S. HFX energy     :  -0.1023139138E+01 (   -0.10231E+01/electron)
 Virial Coefficient  :  -0.4259192678E+00

 orbital energies:
    -0.3103602E+00 (  -8.445eV)

 Total PSPW energy     :  -0.7252305202E+00


=== Spin Contamination ===

 <Sexact^2> =    0.0000000000000000     
 <S^2>      =    0.0000000000000000     



== Center of Charge ==

spin up     (   -0.0000,   -0.0000,    1.7148 )
spin down   (   -0.0000,   -0.0000,    1.7148 )
     total  (   -0.0000,   -0.0000,    1.7148 )
ionic       (    0.0000,    0.0000,    0.6142 )


== Molecular Dipole wrt Center of Mass ==

mu   =  (    0.0000,    0.0000,   -2.2013 ) au
|mu| =     2.2013 au,       5.5949 Debye

 output psi filename:./pspw_hf_LiH.movecs

 Writing Crystallographic Information File:./LiH.cif
   - cell not shifted (nwpw:cif_shift_cell .false.)


== Timing ==

cputime in seconds
  prologue    :   0.154062E+02
  main loop   :   0.401780E+02
  epilogue    :   0.856234E-02
  total       :   0.555928E+02
  cputime/step:   0.293270E+00       (     137 evalulations,      48 linesearches)


Time spent doing                        total          step       percent
  total time                 :   0.555930E+02  0.405788E+00       100.0 %
  i/o time                   :   0.942689E+01  0.688094E-01        17.0 %
  FFTs                       :   0.350967E+02  0.256180E+00        63.1 %
  dot products               :   0.195031E-01  0.142358E-03         0.0 %
  geodesic                   :   0.465269E-01  0.339613E-03         0.1 %
  ffm_dgemm                  :   0.534352E-02  0.390038E-04         0.0 %
  fmf_dgemm                  :   0.206111E-01  0.150446E-03         0.0 %
  mmm_dgemm                  :   0.119535E-02  0.872520E-05         0.0 %
  m_diagonalize              :   0.539983E-03  0.394148E-05         0.0 %
  local pseudopotentials     :   0.703573E-02  0.513557E-04         0.0 %
  non-local pseudopotentials :   0.630209E-01  0.460007E-03         0.1 %
  structure factors          :   0.274445E-01  0.200324E-03         0.0 %
  phase factors              :   0.181000E-04  0.132117E-06         0.0 %
  masking and packing        :   0.285252E+00  0.208213E-02         0.5 %
  queue fft                  :   0.128311E+01  0.936576E-02         2.3 %
  queue fft (serial)         :   0.748266E+00  0.546179E-02         1.3 %
  queue fft (message passing):   0.488431E+00  0.356519E-02         0.9 %
  HFX potential              :   0.181848E+02  0.132736E+00        32.7 %
  non-local psp FFM          :   0.300664E-01  0.219463E-03         0.1 %
  non-local psp FMF          :   0.700078E-02  0.511006E-04         0.0 %
  non-local psp FFM A        :   0.870331E-02  0.635278E-04         0.0 %
  non-local psp FFM B        :   0.534993E-02  0.390506E-04         0.0 %

== HFX Counters ==
  HFX Evalulations         =   137
  Lin ACE HFX Evalulations =     0


     >>>  JOB COMPLETED     AT Sat May  3 23:00:04 2025  <<<
          ****************************************************
          *                                                  *
          *               NWPW PSPW Calculation              *
          *                                                  *
          * [ (Grassmann/Stiefel manifold implementation)  ] *
          *                                                  *
          *      [ NorthWest Chemistry implementation ]      *
          *                                                  *
          *            version #5.10   06/12/02              *
          *                                                  *
          *    This code was developed by Eric J. Bylaska,   *
          *    and was based upon algorithms and code        *
          *    developed by the group of Prof. John H. Weare *
          *                                                  *
          ****************************************************
     >>>  JOB STARTED       AT Sat May  3 23:00:04 2025  <<<
          ================ input data ========================
 pseudopotential is not correctly formatted:Li.vpp                                            

 Generated formatted_filename: ./Li.vpp
 pseudopotential is not correctly formatted:H.vpp                                             

 Generated formatted_filename: ./H.vpp
 Error reading psi - bad grid
 nfft :                   70                   70                   70
 ngrid:                   96                   96                   96
 Error reading psi - bad grid
 nfft :                   70                   70                   70
 ngrid:                   96                   96                   96
 Error reading psi - bad grid

 Grid is being converted:
 ------------------------

 To turn off automatic grid conversion:

 set nwpw:psi_nogrid .false.

 old_filename: pspw_hf_LiH.movecs                                
 new_filename: pspw_hf_LiH.movecs                                
 converting  :  70x 70x 70 -->  96x 96x 96
converting .... psi:    1 spin: 1

 input psi filename:./pspw_hf_LiH.movecs

 number of processors used:         1
 processor grid           :   1 x   1
 parallel mapping         :2d-hilbert
 parallel mapping         :  balanced
 number of threads        :         1
 parallel io              :       off

 options:
      boundary conditions  = aperiodic   (version4)
      electron spin        = restricted
      exchange-correlation = Hartree-Fock
      - HFX relaxed
      - HFX restricted orbitals :    1
      - HFX free-space coulomb solver


 elements involved in the cluster:
      1: Li  valence charge:  1.0000  lmax=  1
             comment    : Hamann pseudopotential
             pseudpotential type            :   0
             highest angular component      :   1
             local potential used           :   1
             number of non-local projections:   1
             aperiodic cutoff radius        :  1.000
             semicore corrections included  :  1.000 (radius)  0.769 (charge)
             cutoff =   1.869   1.551

      2: H   valence charge:  1.0000  lmax=  1
             comment    : Parameterized (Chem.Phys.Lett., vol 322, page 447) Hamman psp
             pseudpotential type            :   0
             highest angular component      :   1
             local potential used           :   1
             number of non-local projections:   1
             aperiodic cutoff radius        :  1.000
             cutoff =   0.800   0.800


 total charge:   0.000

 atomic composition:
     Li  :    1     H   :    1

 number of electrons: spin up=     1 (   1 per task)  down=     1 (   1 per task) (Fourier space)
 number of orbitals : spin up=     1 (   1 per task)  down=     1 (   1 per task) (Fourier space)

 supercell:
      cell_name:  cell_default                                      
      lattice:    a1=<  28.346   0.000   0.000 >
                  a2=<   0.000  28.346   0.000 >
                  a3=<   0.000   0.000  28.346 >
      reciprocal: b1=<   0.222   0.000   0.000 >
                  b2=<   0.000   0.222   0.000 >
                  b3=<   0.000   0.000   0.222 >
      lattice:    a=      28.346 b=     28.346 c=      28.346
                  alpha=  90.000 beta=  90.000 gamma=  90.000
                  omega=     22775.6

      density cutoff= 50.000  fft= 96x 96x 96(   192294 waves   192294 per task)
      wavefnc cutoff= 25.000  fft= 96x 96x 96(    67942 waves    67942 per task)

 technical parameters:
      time step=      5.80     fictitious mass=  400000.0
      tolerance=0.100E-08 (energy)   0.100E-08 (density)
      maximum iterations =      1000 (   10 inner    100 outer )





== Energy Calculation ==


          ============ Grassmann lmbfgs iteration ============
     >>>  ITERATION STARTED AT Sat May  3 23:00:38 2025  <<<
    iter.           Energy         DeltaE       DeltaRho 
    ------------------------------------------------------
      10   -0.7257747973E+00   -0.87577E-08    0.37770E-05
      20   -0.7257748181E+00   -0.88143E-09    0.75435E-09
  *** tolerance ok. iteration terminated
     >>>  ITERATION ENDED   AT Sat May  3 23:01:13 2025  <<<


==  Summary Of Results  ==

 number of electrons: spin up=    1.00000  down=    1.00000 (real space)

 total     energy    :  -0.7257748181E+00 (   -0.36289E+00/ion)
 total orbital energy:  -0.6209486928E+00 (   -0.62095E+00/electron)
 hartree   energy    :   0.1023771095E+01 (    0.10238E+01/electron)
 exc-corr  energy    :   0.0000000000E+00 (    0.00000E+00/electron)
 HF exchange energy  :  -0.5118855476E+00 (   -0.51189E+00/electron)
 ion-ion   energy    :   0.4070594223E+00 (    0.20353E+00/ion)

 kinetic (planewave) :   0.7023678981E+00 (    0.70237E+00/electron)
 V_local (planewave) :  -0.2269983385E+01 (   -0.22700E+01/electron)
 V_nl    (planewave) :  -0.7710430076E-01 (   -0.77104E-01/electron)
 V_Coul  (planewave) :   0.2047542190E+01 (    0.20475E+01/electron)
 V_xc.   (planewave) :   0.0000000000E+00 (    0.00000E+00/electron)
 K.S. HFX energy     :  -0.1023771095E+01 (   -0.10238E+01/electron)
 Virial Coefficient  :  -0.4264794796E+00

 orbital energies:
    -0.3104743E+00 (  -8.449eV)

 Total PSPW energy     :  -0.7257748181E+00


=== Spin Contamination ===

 <Sexact^2> =    0.0000000000000000     
 <S^2>      =    0.0000000000000000     



== Center of Charge ==

spin up     (   -0.0000,    0.0000,    1.7150 )
spin down   (   -0.0000,    0.0000,    1.7150 )
     total  (   -0.0000,    0.0000,    1.7150 )
ionic       (    0.0000,    0.0000,    0.6142 )


== Molecular Dipole wrt Center of Mass ==

mu   =  (    0.0000,   -0.0000,   -2.2016 ) au
|mu| =     2.2016 au,       5.5956 Debye

 output psi filename:./pspw_hf_LiH.movecs

 Writing Crystallographic Information File:./LiH.cif
   - cell not shifted (nwpw:cif_shift_cell .false.)


== Timing ==

cputime in seconds
  prologue    :   0.327492E+02
  main loop   :   0.334059E+02
  epilogue    :   0.127480E-01
  total       :   0.661679E+02
  cputime/step:   0.795378E+00       (      42 evalulations,      18 linesearches)


Time spent doing                        total          step       percent
  total time                 :   0.661683E+02  0.157544E+01       100.0 %
  i/o time                   :   0.252133E+02  0.600316E+00        38.1 %
  FFTs                       :   0.287739E+02  0.685093E+00        43.5 %
  dot products               :   0.236737E-01  0.563660E-03         0.0 %
  geodesic                   :   0.472258E-01  0.112442E-02         0.1 %
  ffm_dgemm                  :   0.533463E-02  0.127015E-03         0.0 %
  fmf_dgemm                  :   0.306466E-01  0.729680E-03         0.0 %
  mmm_dgemm                  :   0.680683E-03  0.162067E-04         0.0 %
  m_diagonalize              :   0.282022E-03  0.671481E-05         0.0 %
  local pseudopotentials     :   0.220886E-01  0.525919E-03         0.0 %
  non-local pseudopotentials :   0.609982E-01  0.145234E-02         0.1 %
  structure factors          :   0.276670E-01  0.658737E-03         0.0 %
  phase factors              :   0.776200E-05  0.184810E-06         0.0 %
  masking and packing        :   0.380643E+00  0.906294E-02         0.6 %
  queue fft                  :   0.107168E+01  0.255161E-01         1.6 %
  queue fft (serial)         :   0.440179E+00  0.104805E-01         0.7 %
  queue fft (message passing):   0.584634E+00  0.139198E-01         0.9 %
  HFX potential              :   0.148952E+02  0.354646E+00        22.5 %
  non-local psp FFM          :   0.296687E-01  0.706397E-03         0.0 %
  non-local psp FMF          :   0.792452E-02  0.188679E-03         0.0 %
  non-local psp FFM A        :   0.974096E-02  0.231928E-03         0.0 %
  non-local psp FFM B        :   0.654899E-02  0.155928E-03         0.0 %

== HFX Counters ==
  HFX Evalulations         =    42
  Lin ACE HFX Evalulations =     0


     >>>  JOB COMPLETED     AT Sat May  3 23:01:13 2025  <<<
          ****************************************************
          *                                                  *
          *               NWPW PSPW Calculation              *
          *                                                  *
          * [ (Grassmann/Stiefel manifold implementation)  ] *
          *                                                  *
          *      [ NorthWest Chemistry implementation ]      *
          *                                                  *
          *            version #5.10   06/12/02              *
          *                                                  *
          *    This code was developed by Eric J. Bylaska,   *
          *    and was based upon algorithms and code        *
          *    developed by the group of Prof. John H. Weare *
          *                                                  *
          ****************************************************
     >>>  JOB STARTED       AT Sat May  3 23:01:13 2025  <<<
          ================ input data ========================
 pseudopotential is not correctly formatted:Li.vpp                                            

 Generated formatted_filename: ./Li.vpp
 pseudopotential is not correctly formatted:H.vpp                                             

 Generated formatted_filename: ./H.vpp
 Error reading psi - bad grid
 nfft :                   96                   96                   96
 ngrid:                  112                  112                  112
 Error reading psi - bad grid
 nfft :                   96                   96                   96
 ngrid:                  112                  112                  112
 Error reading psi - bad grid

 Grid is being converted:
 ------------------------

 To turn off automatic grid conversion:

 set nwpw:psi_nogrid .false.

 old_filename: pspw_hf_LiH.movecs                                
 new_filename: pspw_hf_LiH.movecs                                
 converting  :  96x 96x 96 --> 112x112x112
converting .... psi:    1 spin: 1

 input psi filename:./pspw_hf_LiH.movecs

 number of processors used:         1
 processor grid           :   1 x   1
 parallel mapping         :2d-hilbert
 parallel mapping         :  balanced
 number of threads        :         1
 parallel io              :       off

 options:
      boundary conditions  = aperiodic   (version4)
      electron spin        = restricted
      exchange-correlation = Hartree-Fock
      - HFX relaxed
      - HFX restricted orbitals :    1
      - HFX free-space coulomb solver


 elements involved in the cluster:
      1: Li  valence charge:  1.0000  lmax=  1
             comment    : Hamann pseudopotential
             pseudpotential type            :   0
             highest angular component      :   1
             local potential used           :   1
             number of non-local projections:   1
             aperiodic cutoff radius        :  1.000
             semicore corrections included  :  1.000 (radius)  0.769 (charge)
             cutoff =   1.869   1.551

      2: H   valence charge:  1.0000  lmax=  1
             comment    : Parameterized (Chem.Phys.Lett., vol 322, page 447) Hamman psp
             pseudpotential type            :   0
             highest angular component      :   1
             local potential used           :   1
             number of non-local projections:   1
             aperiodic cutoff radius        :  1.000
             cutoff =   0.800   0.800


 total charge:   0.000

 atomic composition:
     Li  :    1     H   :    1

 number of electrons: spin up=     1 (   1 per task)  down=     1 (   1 per task) (Fourier space)
 number of orbitals : spin up=     1 (   1 per task)  down=     1 (   1 per task) (Fourier space)

 supercell:
      cell_name:  cell_default                                      
      lattice:    a1=<  28.346   0.000   0.000 >
                  a2=<   0.000  28.346   0.000 >
                  a3=<   0.000   0.000  28.346 >
      reciprocal: b1=<   0.222   0.000   0.000 >
                  b2=<   0.000   0.222   0.000 >
                  b3=<   0.000   0.000   0.222 >
      lattice:    a=      28.346 b=     28.346 c=      28.346
                  alpha=  90.000 beta=  90.000 gamma=  90.000
                  omega=     22775.6

      density cutoff= 75.000  fft=112x112x112(   353312 waves   353312 per task)
      wavefnc cutoff= 37.500  fft=112x112x112(   125012 waves   125012 per task)

 technical parameters:
      time step=      5.80     fictitious mass=  400000.0
      tolerance=0.100E-08 (energy)   0.100E-08 (density)
      maximum iterations =      1000 (   10 inner    100 outer )





== Energy Calculation ==


          ============ Grassmann lmbfgs iteration ============
     >>>  ITERATION STARTED AT Sat May  3 23:02:03 2025  <<<
    iter.           Energy         DeltaE       DeltaRho 
    ------------------------------------------------------
      10   -0.7262629876E+00   -0.78689E-08    0.55463E-05
      20   -0.7262630132E+00   -0.88142E-09    0.14949E-08
      30   -0.7262630139E+00   -0.66099E-09    0.82696E-12
  *** tolerance ok. iteration terminated
     >>>  ITERATION ENDED   AT Sat May  3 23:03:05 2025  <<<


==  Summary Of Results  ==

 number of electrons: spin up=    1.00000  down=    1.00000 (real space)

 total     energy    :  -0.7262630139E+00 (   -0.36313E+00/ion)
 total orbital energy:  -0.6211549611E+00 (   -0.62115E+00/electron)
 hartree   energy    :   0.1024334950E+01 (    0.10243E+01/electron)
 exc-corr  energy    :   0.0000000000E+00 (    0.00000E+00/electron)
 HF exchange energy  :  -0.5121674751E+00 (   -0.51217E+00/electron)
 ion-ion   energy    :   0.4070594223E+00 (    0.20353E+00/ion)

 kinetic (planewave) :   0.7036728076E+00 (    0.70367E+00/electron)
 V_local (planewave) :  -0.2271185557E+01 (   -0.22712E+01/electron)
 V_nl    (planewave) :  -0.7797716170E-01 (   -0.77977E-01/electron)
 V_Coul  (planewave) :   0.2048669901E+01 (    0.20487E+01/electron)
 V_xc.   (planewave) :   0.0000000000E+00 (    0.00000E+00/electron)
 K.S. HFX energy     :  -0.1024334950E+01 (   -0.10243E+01/electron)
 Virial Coefficient  :  -0.4270348594E+00

 orbital energies:
    -0.3105775E+00 (  -8.451eV)

 Total PSPW energy     :  -0.7262630139E+00


=== Spin Contamination ===

 <Sexact^2> =    0.0000000000000000     
 <S^2>      =    0.0000000000000000     



== Center of Charge ==

spin up     (   -0.0000,   -0.0000,    1.7151 )
spin down   (   -0.0000,   -0.0000,    1.7151 )
     total  (   -0.0000,   -0.0000,    1.7151 )
ionic       (    0.0000,    0.0000,    0.6142 )


== Molecular Dipole wrt Center of Mass ==

mu   =  (    0.0000,    0.0000,   -2.2019 ) au
|mu| =     2.2019 au,       5.5963 Debye

 output psi filename:./pspw_hf_LiH.movecs

 Writing Crystallographic Information File:./LiH.cif
   - cell not shifted (nwpw:cif_shift_cell .false.)


== Timing ==

cputime in seconds
  prologue    :   0.471782E+02
  main loop   :   0.589202E+02
  epilogue    :   0.171669E-01
  total       :   0.106116E+03
  cputime/step:   0.117840E+01       (      50 evalulations,      21 linesearches)


Time spent doing                        total          step       percent
  total time                 :   0.106116E+03  0.212232E+01       100.0 %
  i/o time                   :   0.398619E+02  0.797238E+00        37.6 %
  FFTs                       :   0.511360E+02  0.102272E+01        48.2 %
  dot products               :   0.460625E-01  0.921251E-03         0.0 %
  geodesic                   :   0.939634E-01  0.187927E-02         0.1 %
  ffm_dgemm                  :   0.893086E-02  0.178617E-03         0.0 %
  fmf_dgemm                  :   0.668079E-01  0.133616E-02         0.1 %
  mmm_dgemm                  :   0.780010E-03  0.156002E-04         0.0 %
  m_diagonalize              :   0.609273E-03  0.121855E-04         0.0 %
  local pseudopotentials     :   0.237201E-01  0.474403E-03         0.0 %
  non-local pseudopotentials :   0.117094E+00  0.234188E-02         0.1 %
  structure factors          :   0.493633E-01  0.987265E-03         0.0 %
  phase factors              :   0.619000E-05  0.123800E-06         0.0 %
  masking and packing        :   0.651798E+00  0.130360E-01         0.6 %
  queue fft                  :   0.210622E+01  0.421244E-01         2.0 %
  queue fft (serial)         :   0.100662E+01  0.201324E-01         0.9 %
  queue fft (message passing):   0.102117E+01  0.204234E-01         1.0 %
  HFX potential              :   0.262262E+02  0.524523E+00        24.7 %
  non-local psp FFM          :   0.588154E-01  0.117631E-02         0.1 %
  non-local psp FMF          :   0.153891E-01  0.307782E-03         0.0 %
  non-local psp FFM A        :   0.201330E-01  0.402661E-03         0.0 %
  non-local psp FFM B        :   0.135605E-01  0.271210E-03         0.0 %

== HFX Counters ==
  HFX Evalulations         =    50
  Lin ACE HFX Evalulations =     0


     >>>  JOB COMPLETED     AT Sat May  3 23:03:05 2025  <<<
          ****************************************************
          *                                                  *
          *               NWPW PSPW Calculation              *
          *                                                  *
          * [ (Grassmann/Stiefel manifold implementation)  ] *
          *                                                  *
          *      [ NorthWest Chemistry implementation ]      *
          *                                                  *
          *            version #5.10   06/12/02              *
          *                                                  *
          *    This code was developed by Eric J. Bylaska,   *
          *    and was based upon algorithms and code        *
          *    developed by the group of Prof. John H. Weare *
          *                                                  *
          ****************************************************
     >>>  JOB STARTED       AT Sat May  3 23:03:05 2025  <<<
          ================ input data ========================
 pseudopotential is not correctly formatted:Li.vpp                                            

 Generated formatted_filename: ./Li.vpp
 pseudopotential is not correctly formatted:H.vpp                                             

 Generated formatted_filename: ./H.vpp
 Error reading psi - bad grid
 nfft :                  112                  112                  112
 ngrid:                  140                  140                  140
 Error reading psi - bad grid
 nfft :                  112                  112                  112
 ngrid:                  140                  140                  140
 Error reading psi - bad grid

 Grid is being converted:
 ------------------------

 To turn off automatic grid conversion:

 set nwpw:psi_nogrid .false.

 old_filename: pspw_hf_LiH.movecs                                
 new_filename: pspw_hf_LiH.movecs                                
 converting  : 112x112x112 --> 140x140x140
converting .... psi:    1 spin: 1

 input psi filename:./pspw_hf_LiH.movecs

 number of processors used:         1
 processor grid           :   1 x   1
 parallel mapping         :2d-hilbert
 parallel mapping         :  balanced
 number of threads        :         1
 parallel io              :       off

 options:
      boundary conditions  = aperiodic   (version4)
      electron spin        = restricted
      exchange-correlation = Hartree-Fock
      - HFX relaxed
      - HFX restricted orbitals :    1
      - HFX free-space coulomb solver


 elements involved in the cluster:
      1: Li  valence charge:  1.0000  lmax=  1
             comment    : Hamann pseudopotential
             pseudpotential type            :   0
             highest angular component      :   1
             local potential used           :   1
             number of non-local projections:   1
             aperiodic cutoff radius        :  1.000
             semicore corrections included  :  1.000 (radius)  0.769 (charge)
             cutoff =   1.869   1.551

      2: H   valence charge:  1.0000  lmax=  1
             comment    : Parameterized (Chem.Phys.Lett., vol 322, page 447) Hamman psp
             pseudpotential type            :   0
             highest angular component      :   1
             local potential used           :   1
             number of non-local projections:   1
             aperiodic cutoff radius        :  1.000
             cutoff =   0.800   0.800


 total charge:   0.000

 atomic composition:
     Li  :    1     H   :    1

 number of electrons: spin up=     1 (   1 per task)  down=     1 (   1 per task) (Fourier space)
 number of orbitals : spin up=     1 (   1 per task)  down=     1 (   1 per task) (Fourier space)

 supercell:
      cell_name:  cell_default                                      
      lattice:    a1=<  28.346   0.000   0.000 >
                  a2=<   0.000  28.346   0.000 >
                  a3=<   0.000   0.000  28.346 >
      reciprocal: b1=<   0.222   0.000   0.000 >
                  b2=<   0.000   0.222   0.000 >
                  b3=<   0.000   0.000   0.222 >
      lattice:    a=      28.346 b=     28.346 c=      28.346
                  alpha=  90.000 beta=  90.000 gamma=  90.000
                  omega=     22775.6

      density cutoff=100.000  fft=140x140x140(   544264 waves   544264 per task)
      wavefnc cutoff= 50.000  fft=140x140x140(   192294 waves   192294 per task)

 technical parameters:
      time step=      5.80     fictitious mass=  400000.0
      tolerance=0.100E-08 (energy)   0.100E-08 (density)
      maximum iterations =      1000 (   10 inner    100 outer )





== Energy Calculation ==


          ============ Grassmann lmbfgs iteration ============
     >>>  ITERATION STARTED AT Sat May  3 23:06:02 2025  <<<
    iter.           Energy         DeltaE       DeltaRho 
    ------------------------------------------------------
      10   -0.7262865736E+00   -0.18496E-09    0.96013E-07
      20   -0.7262865738E+00   -0.12495E-09    0.46176E-12
  *** tolerance ok. iteration terminated
     >>>  ITERATION ENDED   AT Sat May  3 23:07:09 2025  <<<


==  Summary Of Results  ==

 number of electrons: spin up=    1.00000  down=    1.00000 (real space)

 total     energy    :  -0.7262865738E+00 (   -0.36314E+00/ion)
 total orbital energy:  -0.6211666090E+00 (   -0.62117E+00/electron)
 hartree   energy    :   0.1024358774E+01 (    0.10244E+01/electron)
 exc-corr  energy    :   0.0000000000E+00 (    0.00000E+00/electron)
 HF exchange energy  :  -0.5121793871E+00 (   -0.51218E+00/electron)
 ion-ion   energy    :   0.4070594223E+00 (    0.20353E+00/ion)

 kinetic (planewave) :   0.7037396351E+00 (    0.70374E+00/electron)
 V_local (planewave) :  -0.2271236464E+01 (   -0.22712E+01/electron)
 V_nl    (planewave) :  -0.7802855453E-01 (   -0.78029E-01/electron)
 V_Coul  (planewave) :   0.2048717548E+01 (    0.20487E+01/electron)
 V_xc.   (planewave) :   0.0000000000E+00 (    0.00000E+00/electron)
 K.S. HFX energy     :  -0.1024358774E+01 (   -0.10244E+01/electron)
 Virial Coefficient  :  -0.4270719667E+00

 orbital energies:
    -0.3105833E+00 (  -8.451eV)

 Total PSPW energy     :  -0.7262865738E+00


=== Spin Contamination ===

 <Sexact^2> =    0.0000000000000000     
 <S^2>      =    0.0000000000000000     



== Center of Charge ==

spin up     (   -0.0000,   -0.0000,    1.7151 )
spin down   (   -0.0000,   -0.0000,    1.7151 )
     total  (   -0.0000,   -0.0000,    1.7151 )
ionic       (    0.0000,    0.0000,    0.6142 )


== Molecular Dipole wrt Center of Mass ==

mu   =  (    0.0000,    0.0000,   -2.2019 ) au
|mu| =     2.2019 au,       5.5965 Debye

 output psi filename:./pspw_hf_LiH.movecs

 Writing Crystallographic Information File:./LiH.cif
   - cell not shifted (nwpw:cif_shift_cell .false.)


== Timing ==

cputime in seconds
  prologue    :   0.170162E+03
  main loop   :   0.655000E+02
  epilogue    :   0.313176E-01
  total       :   0.235694E+03
  cputime/step:   0.233929E+01       (      28 evalulations,      11 linesearches)


Time spent doing                        total          step       percent
  total time                 :   0.235694E+03  0.841763E+01       100.0 %
  i/o time                   :   0.726842E+02  0.259586E+01        30.8 %
  FFTs                       :   0.574378E+02  0.205135E+01        24.4 %
  dot products               :   0.388769E-01  0.138846E-02         0.0 %
  geodesic                   :   0.757813E-01  0.270647E-02         0.0 %
  ffm_dgemm                  :   0.713651E-02  0.254875E-03         0.0 %
  fmf_dgemm                  :   0.570990E-01  0.203925E-02         0.0 %
  mmm_dgemm                  :   0.521429E-03  0.186225E-04         0.0 %
  m_diagonalize              :   0.334744E-03  0.119551E-04         0.0 %
  local pseudopotentials     :   0.463828E-01  0.165653E-02         0.0 %
  non-local pseudopotentials :   0.113622E+00  0.405794E-02         0.0 %
  structure factors          :   0.502816E-01  0.179577E-02         0.0 %
  phase factors              :   0.661000E-05  0.236071E-06         0.0 %
  masking and packing        :   0.691579E+00  0.246993E-01         0.3 %
  queue fft                  :   0.230667E+01  0.823811E-01         1.0 %
  queue fft (serial)         :   0.111673E+01  0.398834E-01         0.5 %
  queue fft (message passing):   0.110768E+01  0.395600E-01         0.5 %
  HFX potential              :   0.293165E+02  0.104702E+01        12.4 %
  non-local psp FFM          :   0.560147E-01  0.200053E-02         0.0 %
  non-local psp FMF          :   0.145325E-01  0.519017E-03         0.0 %
  non-local psp FFM A        :   0.194597E-01  0.694988E-03         0.0 %
  non-local psp FFM B        :   0.132815E-01  0.474338E-03         0.0 %

== HFX Counters ==
  HFX Evalulations         =    28
  Lin ACE HFX Evalulations =     0


     >>>  JOB COMPLETED     AT Sat May  3 23:07:09 2025  <<<

 Task  times  cpu:      481.4s     wall:      463.6s
 Summary of allocated global arrays
-----------------------------------
  No active global arrays


MA_summarize_allocated_blocks: starting scan ...
MA_summarize_allocated_blocks: scan completed: 0 heap blocks, 0 stack blocks
MA usage statistics:

	allocation statistics:
					      heap	     stack
					      ----	     -----
	current number of blocks	         0	         0
	maximum number of blocks	       304	        15
	current total bytes		         0	         0
	maximum total bytes		2743632360	 692625688
	maximum total K-bytes		   2743633	    692626
	maximum total M-bytes		      2744	       693


                                NWChem Input Module
                                -------------------




                                     CITATION
                                     --------
                Please cite the following reference when publishing
                           results obtained with NWChem:

          E. Apra, E. J. Bylaska, W. A. de Jong, N. Govind, K. Kowalski,
       T. P. Straatsma, M. Valiev, H. J. J. van Dam, Y. Alexeev, J. Anchell,
       V. Anisimov, F. W. Aquino, R. Atta-Fynn, J. Autschbach, N. P. Bauman,
     J. C. Becca, D. E. Bernholdt, K. Bhaskaran-Nair, S. Bogatko, P. Borowski,
         J. Boschen, J. Brabec, A. Bruner, E. Cauet, Y. Chen, G. N. Chuev,
      C. J. Cramer, J. Daily, M. J. O. Deegan, T. H. Dunning Jr., M. Dupuis,
   K. G. Dyall, G. I. Fann, S. A. Fischer, A. Fonari, H. Fruchtl, L. Gagliardi,
      J. Garza, N. Gawande, S. Ghosh, K. Glaesemann, A. W. Gotz, J. Hammond,
       V. Helms, E. D. Hermes, K. Hirao, S. Hirata, M. Jacquelin, L. Jensen,
   B. G. Johnson, H. Jonsson, R. A. Kendall, M. Klemm, R. Kobayashi, V. Konkov,
      S. Krishnamoorthy, M. Krishnan, Z. Lin, R. D. Lins, R. J. Littlefield,
      A. J. Logsdail, K. Lopata, W. Ma, A. V. Marenich, J. Martin del Campo,
   D. Mejia-Rodriguez, J. E. Moore, J. M. Mullin, T. Nakajima, D. R. Nascimento,
    J. A. Nichols, P. J. Nichols, J. Nieplocha, A. Otero-de-la-Roza, B. Palmer,
    A. Panyala, T. Pirojsirikul, B. Peng, R. Peverati, J. Pittner, L. Pollack,
   R. M. Richard, P. Sadayappan, G. C. Schatz, W. A. Shelton, D. W. Silverstein,
   D. M. A. Smith, T. A. Soares, D. Song, M. Swart, H. L. Taylor, G. S. Thomas,
            V. Tipparaju, D. G. Truhlar, K. Tsemekhman, T. Van Voorhis,
      A. Vazquez-Mayagoitia, P. Verma, O. Villa, A. Vishnu, K. D. Vogiatzis,
        D. Wang, J. H. Weare, M. J. Williamson, T. L. Windus, K. Wolinski,
        A. T. Wong, Q. Wu, C. Yang, Q. Yu, M. Zacharias, Z. Zhang, Y. Zhao,
                                and R. J. Harrison
                        "NWChem: Past, present, and future
                         J. Chem. Phys. 152, 184102 (2020)
                               doi:10.1063/5.0004997

                                      AUTHORS
                                      -------
  E. Apra, E. J. Bylaska, N. Govind, K. Kowalski, M. Valiev, D. Mejia-Rodriguez,
       A. Kunitsa, N. P. Bauman, A. Panyala, W. A. de Jong, T. P. Straatsma,
   H. J. J. van Dam, D. Wang, T. L. Windus, J. Hammond, J. Autschbach, A. Woods,
    K. Bhaskaran-Nair, J. Brabec, K. Lopata, S. A. Fischer, S. Krishnamoorthy,
     M. Jacquelin, W. Ma, M. Klemm, O. Villa, Y. Chen, V. Anisimov, F. Aquino,
     S. Hirata, M. T. Hackler, E. Hermes, L. Jensen, J. E. Moore, J. C. Becca,
      V. Konjkov, T. Risthaus, M. Malagoli, A. Marenich, A. Otero-de-la-Roza,
        J. Mullin, P. Nichols, R. Peverati, J. Pittner, Y. Zhao, P.-D. Fan,
        A. Fonari, M. J. Williamson, R. J. Harrison, J. R. Rehr, M. Dupuis,
     D. Silverstein, D. M. A. Smith, J. Nieplocha, V. Tipparaju, M. Krishnan,
     B. E. Van Kuiken, A. Vazquez-Mayagoitia, M. Swart, Q. Wu, T. Van Voorhis,
     A. A. Auer, M. Nooijen, L. D. Crosby, E. Brown, G. Cisneros, G. I. Fann,
   H. Fruchtl, J. Garza, K. Hirao, R. A. Kendall, J. A. Nichols, K. Tsemekhman,
    K. Wolinski, J. Anchell, D. E. Bernholdt, P. Borowski, T. Clark, D. Clerc,
   H. Dachsel, M. J. O. Deegan, K. Dyall, D. Elwood, E. Glendening, M. Gutowski,
   A. C. Hess, J. Jaffe, B. G. Johnson, J. Ju, R. Kobayashi, R. Kutteh, Z. Lin,
   R. Littlefield, X. Long, B. Meng, T. Nakajima, S. Niu, L. Pollack, M. Rosing,
   K. Glaesemann, G. Sandrone, M. Stave, H. Taylor, G. Thomas, J. H. van Lenthe,
                               A. T. Wong, Z. Zhang.

 Total times  cpu:      481.4s     wall:      463.6s
