 argument  1 = H2-3.0.nw



============================== echo of input deck ==============================
title "swnc: e theory=pspw4 xc=hf formula=H2 charge=0 mult=1"
#machinejob:expert

echo

start pspw_hf_H2

memory heap 1200 mb stack 1200 mb global 10 mb

charge 0

geometry
H    0.00000    0.00000   -1.50000
H    0.00000    0.00000    1.50000
end

nwpw
  ### pseudopotential block begin ###
  ### pseudopotential block end   ###
  simulation_cell
     SC 15.0000
     boundary_conditions aperiodic
  end

  cutoff 50.0
  mult 1
  xc hf
  lmbfgs
  tolerances 1.0e-9 1.0e-9

  virtual 8
end
set nwpw:cif_filename H2

#set nwpw:CI_maxit_orb 15
#set nwpw:CI_maxit_linesearch 15
set pspw:HFX_screening_radius 14.0


set nwpw:2qintegrals .true.
set nwpw:3x3_virtual .true.

task pspw energy
================================================================================


                                         
                                         


             Northwest Computational Chemistry Package (NWChem) 7.2.3
             --------------------------------------------------------


                    Environmental Molecular Sciences Laboratory
                       Pacific Northwest National Laboratory
                                Richland, WA 99352

                              Copyright (c) 1994-2022
                       Pacific Northwest National Laboratory
                            Battelle Memorial Institute

             NWChem is an open-source computational chemistry package
                        distributed under the terms of the
                      Educational Community License (ECL) 2.0
             A copy of the license is included with this distribution
                              in the LICENSE.TXT file

                                  ACKNOWLEDGMENT
                                  --------------

            This software and its documentation were developed at the
            EMSL at Pacific Northwest National Laboratory, a multiprogram
            national laboratory, operated for the U.S. Department of Energy
            by Battelle under Contract Number DE-AC05-76RL01830. Support
            for this work was provided by the Department of Energy Office
            of Biological and Environmental Research, Office of Basic
            Energy Sciences, and the Office of Advanced Scientific Computing.


           Job information
           ---------------

    hostname        = mqs-al
    program         = nwchem
    date            = Sat Apr  5 15:32:04 2025

    compiled        = Thu_Oct_31_08:55:15_2024
    source          = /home/conda/feedstock_root/build_artifacts/nwchem_1730356057992/work
    nwchem branch   = 7.2.3
    nwchem revision = c400b04
    ga revision     = 5.8.0
    use scalapack   = T
    input           = H2-3.0.nw
    prefix          = pspw_hf_H2.
    data base       = ./pspw_hf_H2.db
    status          = startup
    nproc           =       24
    time left       =     -1s



           Memory information
           ------------------

    heap     =  157286396 doubles =   1200.0 Mbytes
    stack    =  157286401 doubles =   1200.0 Mbytes
    global   =    1310720 doubles =     10.0 Mbytes (distinct from heap & stack)
    total    =  315883517 doubles =   2410.0 Mbytes
    verify   = yes
    hardfail = no 


           Directory information
           ---------------------

  0 permanent = .
  0 scratch   = .




                                NWChem Input Module
                                -------------------


               swnc: e theory=pspw4 xc=hf formula=H2 charge=0 mult=1
               -----------------------------------------------------

 Scaling coordinates for geometry "geometry" by  1.889725989
 (inverse scale =  0.529177249)

  zeroes
  zeroes
  zeroes
  zeroes
  zeroes
  zeroes
  zeroes
  zeroes
  zeroes
  zeroes
  zeroes
  zeroes
  zeroes
  zeroes
  zeroes
  zeroes
  zeroes
  zeroes
  zeroes
  zeroes
  zeroes
  zeroes
  zeroes
  zeroes
  zeroes
  zeroes
  zeroes
  zeroes
  zeroes
  zeroes
  zeroes
  zeroes
  zeroes
  zeroes
  zeroes
  zeroes
  zeroes
  zeroes
  zeroes
  zeroes
  zeroes
  zeroes
  zeroes
  zeroes
  zeroes
  zeroes
  zeroes
  zeroes
 ORDER OF PRIMARY AXIS IS BEING SET TO 4
 D4H symmetry detected

          ------
          auto-z
          ------
     1 autoz failed with cvr_scaling = 1.2 changing to 1.3
     2 autoz failed with cvr_scaling = 1.3 changing to 1.4
     3 autoz failed with cvr_scaling = 1.4 changing to 1.5
     4 autoz failed with cvr_scaling = 1.5 changing to 1.6
     5 autoz failed with cvr_scaling = 1.6 changing to 1.7

 AUTOZ failed to generate good internal coordinates.
 Cartesian coordinates will be used in optimizations.



                             Geometry "geometry" -> ""
                             -------------------------

 Output coordinates in angstroms (scale by  1.889725989 to convert to a.u.)

  No.       Tag          Charge          X              Y              Z
 ---- ---------------- ---------- -------------- -------------- --------------
    1 H                    1.0000     0.00000000     0.00000000    -1.50000000
    2 H                    1.0000     0.00000000     0.00000000     1.50000000

      Atomic Mass 
      ----------- 

      H                  1.007825


 Effective nuclear repulsion energy (a.u.)       0.1763924163

            Nuclear Dipole moment (a.u.) 
            ----------------------------
        X                 Y               Z
 ---------------- ---------------- ----------------
     0.0000000000     0.0000000000     0.0000000000

      Symmetry information
      --------------------

 Group name             D4h       
 Group number             28
 Group order              16
 No. of unique centers     1

      Symmetry unique atoms

     1


            XYZ format geometry
            -------------------
     2
 geometry
 H                     0.00000000     0.00000000    -1.50000000
 H                     0.00000000     0.00000000     1.50000000

          ****************************************************
          *                                                  *
          *               NWPW PSPW Calculation              *
          *                                                  *
          * [ (Grassmann/Stiefel manifold implementation)  ] *
          *                                                  *
          *      [ NorthWest Chemistry implementation ]      *
          *                                                  *
          *            version #5.10   06/12/02              *
          *                                                  *
          *    This code was developed by Eric J. Bylaska,   *
          *    and was based upon algorithms and code        *
          *    developed by the group of Prof. John H. Weare *
          *                                                  *
          ****************************************************
     >>>  JOB STARTED       AT Sat Apr  5 15:32:04 2025  <<<
          ================ input data ========================

 input psi filename:./pspw_hf_H2.movecs

 number of processors used:        24
 processor grid           :  24 x   1
 parallel mapping         :2d-hilbert
 parallel mapping         :  balanced
 number of threads        :         1
 parallel io              :       off

 options:
      boundary conditions  = aperiodic   (version4)
      electron spin        = restricted
      exchange-correlation = Hartree-Fock
      - HFX relaxed
      - HFX restricted orbitals :    1
      - HFX free-space coulomb solver


 elements involved in the cluster:
      1: H   valence charge:  1.0000  lmax=  1
             comment    : Parameterized (Chem.Phys.Lett., vol 322, page 447) Hamman psp
             pseudpotential type            :   0
             highest angular component      :   1
             local potential used           :   1
             number of non-local projections:   1
             aperiodic cutoff radius        :  1.000
             cutoff =   0.800   0.800


 total charge:   0.000

 atomic composition:
     H   :    2

 number of electrons: spin up=     1 (   1 per task)  down=     1 (   1 per task) (Fourier space)
 number of orbitals : spin up=     1 (   1 per task)  down=     1 (   1 per task) (Fourier space)

 supercell:
      cell_name:  cell_default                                      
      lattice:    a1=<  15.000   0.000   0.000 >
                  a2=<   0.000  15.000   0.000 >
                  a3=<   0.000   0.000  15.000 >
      reciprocal: b1=<   0.419   0.000   0.000 >
                  b2=<   0.000   0.419   0.000 >
                  b3=<   0.000   0.000   0.419 >
      lattice:    a=      15.000 b=     15.000 c=      15.000
                  alpha=  90.000 beta=  90.000 gamma=  90.000
                  omega=      3375.0

      density cutoff=100.000  fft= 70x 70x 70(    80618 waves     3359 per task)
      wavefnc cutoff= 50.000  fft= 70x 70x 70(    28526 waves     1188 per task)

 technical parameters:
      time step=      5.80     fictitious mass=  400000.0
      tolerance=0.100E-08 (energy)   0.100E-08 (density)
      maximum iterations =      1000 (   10 inner    100 outer )





== Energy Calculation ==


          ============ Grassmann lmbfgs iteration ============
     >>>  ITERATION STARTED AT Sat Apr  5 15:32:10 2025  <<<
    iter.           Energy         DeltaE       DeltaRho 
    ------------------------------------------------------
      10   -0.8307316182E+00   -0.15700E-02    0.72538E-02
     -  10 steepest descent iterations performed
      20   -0.8357071187E+00   -0.11972E-03    0.73529E-04
      30   -0.8359239768E+00   -0.45878E-05    0.51411E-05
      40   -0.8359367173E+00   -0.21171E-06    0.10328E-06
      50   -0.8359373673E+00   -0.12450E-07    0.18457E-08
      60   -0.8359374050E+00   -0.94109E-09    0.11882E-09
  *** tolerance ok. iteration terminated
     >>>  ITERATION ENDED   AT Sat Apr  5 15:32:15 2025  <<<


==  Summary Of Results  ==

 number of electrons: spin up=    1.00000  down=    1.00000 (real space)

 total     energy    :  -0.8359374050E+00 (   -0.41797E+00/ion)
 total orbital energy:  -0.6692103948E+00 (   -0.66921E+00/electron)
 hartree   energy    :   0.6862388529E+00 (    0.68624E+00/electron)
 exc-corr  energy    :   0.0000000000E+00 (    0.00000E+00/electron)
 HF exchange energy  :  -0.3431194265E+00 (   -0.34312E+00/electron)
 ion-ion   energy    :   0.1763924163E+00 (    0.88196E-01/ion)

 kinetic (planewave) :   0.6122508279E+00 (    0.61225E+00/electron)
 V_local (planewave) :  -0.1821480071E+01 (   -0.18215E+01/electron)
 V_nl    (planewave) :  -0.1462200046E+00 (   -0.14622E+00/electron)
 V_Coul  (planewave) :   0.1372477706E+01 (    0.13725E+01/electron)
 V_xc.   (planewave) :   0.0000000000E+00 (    0.00000E+00/electron)
 K.S. HFX energy     :  -0.6862388529E+00 (   -0.68624E+00/electron)
 Virial Coefficient  :  -0.9721871211E+00

 orbital energies:
    -0.3346052E+00 (  -9.105eV)


== Virtual Orbital Calculation ==


 input epsi filename:./pspw_hf_H2.emovecs

 COVOs Mimimization
 ------------------
CI gradient algorithm =         3
maxit_sweeps          =         3
maxit_orb             =       120
maxit_linesearch      =        15
maxerror              = 0.100E-08

     orb,it,eci,eold,eci-eold=                    1                    1 -0.92962682818442932      -0.92830917954368186       -1.3176486407474597E-003 F
     orb,it,eci,eold,eci-eold=                    1                    2 -0.92990465975220471      -0.92962682818442932       -2.7783156777538842E-004 F
     orb,it,eci,eold,eci-eold=                    1                    3 -0.94278718665987726      -0.92990465975220471       -1.2882526907672553E-002 F
     orb,it,eci,eold,eci-eold=                    1                    4 -0.94331920543030701      -0.94278718665987726       -5.3201877042974299E-004 F
     orb,it,eci,eold,eci-eold=                    1                    5 -0.94509881794438211      -0.94331920543030701       -1.7796125140751018E-003 F
     orb,it,eci,eold,eci-eold=                    1                    6 -0.94925526994879361      -0.94509881794438211       -4.1564520044115039E-003 F
     orb,it,eci,eold,eci-eold=                    1                    7 -0.95310049197839231      -0.94925526994879361       -3.8452220295986939E-003 F
     orb,it,eci,eold,eci-eold=                    1                    8 -0.95434154274834093      -0.95310049197839231       -1.2410507699486262E-003 F
     orb,it,eci,eold,eci-eold=                    1                    9 -0.95492120216594034      -0.95434154274834093       -5.7965941759940964E-004 F
     orb,it,eci,eold,eci-eold=                    1                   10 -0.96024802490728445      -0.95492120216594034       -5.3268227413441060E-003 F
     orb,it,eci,eold,eci-eold=                    1                   11 -0.96114376355827102      -0.96024802490728445       -8.9573865098657723E-004 F
     orb,it,eci,eold,eci-eold=                    1                   12 -0.96126890886264005      -0.96114376355827102       -1.2514530436902316E-004 F
     orb,it,eci,eold,eci-eold=                    1                   13 -0.96425535995014933      -0.96126890886264005       -2.9864510875092787E-003 F
     orb,it,eci,eold,eci-eold=                    1                   14 -0.96436694193067285      -0.96425535995014933       -1.1158198052352297E-004 F
     orb,it,eci,eold,eci-eold=                    1                   15 -0.96460441271814912      -0.96436694193067285       -2.3747078747626826E-004 F
     orb,it,eci,eold,eci-eold=                    1                   16 -0.96711963396111500      -0.96460441271814912       -2.5152212429658816E-003 F
     orb,it,eci,eold,eci-eold=                    1                   17 -0.96726352390027481      -0.96711963396111500       -1.4388993915981363E-004 F
     orb,it,eci,eold,eci-eold=                    1                   18 -0.96727908124155271      -0.96726352390027481       -1.5557341277894210E-005 F
     orb,it,eci,eold,eci-eold=                    1                   19 -0.96934608076064066      -0.96727908124155271       -2.0669995190879531E-003 F
     orb,it,eci,eold,eci-eold=                    1                   20 -0.96995477373202976      -0.96934608076064066       -6.0869297138910206E-004 F
     orb,it,eci,eold,eci-eold=                    1                   21 -0.96997398822849124      -0.96995477373202976       -1.9214496461472663E-005 F
     orb,it,eci,eold,eci-eold=                    1                   22 -0.97151025770341526      -0.96997398822849124       -1.5362694749240235E-003 F
     orb,it,eci,eold,eci-eold=                    1                   23 -0.97226070211244442      -0.97151025770341526       -7.5044440902916065E-004 F
     orb,it,eci,eold,eci-eold=                    1                   24 -0.97233499520081201      -0.97226070211244442       -7.4293088367594073E-005 F
     orb,it,eci,eold,eci-eold=                    1                   25 -0.97349765108337127      -0.97233499520081201       -1.1626558825592603E-003 F
     orb,it,eci,eold,eci-eold=                    1                   26 -0.97422340375710625      -0.97349765108337127       -7.2575267373498065E-004 F
     orb,it,eci,eold,eci-eold=                    1                   27 -0.97451641745886364      -0.97422340375710625       -2.9301370175738306E-004 F
     orb,it,eci,eold,eci-eold=                    1                   28 -0.97550733989746541      -0.97451641745886364       -9.9092243860177120E-004 F
     orb,it,eci,eold,eci-eold=                    1                   29 -0.97555740290052995      -0.97550733989746541       -5.0063003064537703E-005 F
     orb,it,eci,eold,eci-eold=                    1                   30 -0.97564370022371660      -0.97555740290052995       -8.6297323186657060E-005 F
     orb,it,eci,eold,eci-eold=                    1                   31 -0.97664932549938532      -0.97564370022371660       -1.0056252756687201E-003 F
     orb,it,eci,eold,eci-eold=                    1                   32 -0.97664950849642240      -0.97664932549938532       -1.8299703707924664E-007 F
     orb,it,eci,eold,eci-eold=                    1                   33 -0.97669160368759600      -0.97664950849642240       -4.2095191173596724E-005 F
     orb,it,eci,eold,eci-eold=                    1                   34 -0.97753545143930232      -0.97669160368759600       -8.4384775170631698E-004 F
     orb,it,eci,eold,eci-eold=                    1                   35 -0.97804810037332723      -0.97753545143930232       -5.1264893402491740E-004 F
     orb,it,eci,eold,eci-eold=                    1                   36 -0.97837819547296945      -0.97804810037332723       -3.3009509964221362E-004 F
     orb,it,eci,eold,eci-eold=                    1                   37 -0.97851367055602712      -0.97837819547296945       -1.3547508305766787E-004 F
     orb,it,eci,eold,eci-eold=                    1                   38 -0.97894614200428265      -0.97851367055602712       -4.3247144825553363E-004 F
     orb,it,eci,eold,eci-eold=                    1                   39 -0.97901567900815067      -0.97894614200428265       -6.9537003868025415E-005 F
     orb,it,eci,eold,eci-eold=                    1                   40 -0.97905235432815196      -0.97901567900815067       -3.6675320001289258E-005 F
     orb,it,eci,eold,eci-eold=                    1                   41 -0.97941821129687701      -0.97905235432815196       -3.6585696872504236E-004 F
     orb,it,eci,eold,eci-eold=                    1                   42 -0.97959936789555946      -0.97941821129687701       -1.8115659868245260E-004 F
     orb,it,eci,eold,eci-eold=                    1                   43 -0.97974586260021057      -0.97959936789555946       -1.4649470465111225E-004 F
     orb,it,eci,eold,eci-eold=                    1                   44 -0.97983316132870768      -0.97974586260021057       -8.7298728497109401E-005 F
     orb,it,eci,eold,eci-eold=                    1                   45 -0.98005071270309529      -0.97983316132870768       -2.1755137438761452E-004 F
     orb,it,eci,eold,eci-eold=                    1                   46 -0.98005212085407334      -0.98005071270309529       -1.4081509780439205E-006 F
     orb,it,eci,eold,eci-eold=                    1                   47 -0.98005993550178694      -0.98005212085407334       -7.8146477135998538E-006 F
     orb,it,eci,eold,eci-eold=                    1                   48 -0.98022738869790271      -0.98005993550178694       -1.6745319611577436E-004 F
     orb,it,eci,eold,eci-eold=                    1                   49 -0.98025009974536270      -0.98022738869790271       -2.2711047459988976E-005 F
     orb,it,eci,eold,eci-eold=                    1                   50 -0.98025913823774746      -0.98025009974536270       -9.0384923847608434E-006 F
     orb,it,eci,eold,eci-eold=                    1                   51 -0.98041294900336795      -0.98025913823774746       -1.5381076562048790E-004 F
     orb,it,eci,eold,eci-eold=                    1                   52 -0.98042887937547263      -0.98041294900336795       -1.5930372104677737E-005 F
     orb,it,eci,eold,eci-eold=                    1                   53 -0.98043124938388981      -0.98042887937547263       -2.3700084171851543E-006 F
     orb,it,eci,eold,eci-eold=                    1                   54 -0.98053860006294213      -0.98043124938388981       -1.0735067905232043E-004 F
     orb,it,eci,eold,eci-eold=                    1                   55 -0.98056086794420327      -0.98053860006294213       -2.2267881261139877E-005 F
     orb,it,eci,eold,eci-eold=                    1                   56 -0.98056644666965442      -0.98056086794420327       -5.5787254511496798E-006 F
     orb,it,eci,eold,eci-eold=                    1                   57 -0.98066157079264460      -0.98056644666965442       -9.5124122990175586E-005 F
     orb,it,eci,eold,eci-eold=                    1                   58 -0.98067936026664804      -0.98066157079264460       -1.7789474003437888E-005 F
     orb,it,eci,eold,eci-eold=                    1                   59 -0.98068432550298223      -0.98067936026664804       -4.9652363341978756E-006 F
     orb,it,eci,eold,eci-eold=                    1                   60 -0.98075215709626862      -0.98068432550298223       -6.7831593286382663E-005 F
     orb,it,eci,eold,eci-eold=                    1                   61 -0.98075646044828058      -0.98075215709626862       -4.3033520119584168E-006 F
     orb,it,eci,eold,eci-eold=                    1                   62 -0.98076047013654954      -0.98075646044828058       -4.0096882689688584E-006 F
     orb,it,eci,eold,eci-eold=                    1                   63 -0.98082099378346244      -0.98076047013654954       -6.0523646912891138E-005 F
     orb,it,eci,eold,eci-eold=                    1                   64 -0.98082501963409074      -0.98082099378346244       -4.0258506283086248E-006 F
     orb,it,eci,eold,eci-eold=                    1                   65 -0.98082629645720809      -0.98082501963409074       -1.2768231173465594E-006 F
     orb,it,eci,eold,eci-eold=                    1                   66 -0.98087044229875531      -0.98082629645720809       -4.4145841547216236E-005 F
     orb,it,eci,eold,eci-eold=                    1                   67 -0.98088065500138022      -0.98087044229875531       -1.0212702624912140E-005 F
     orb,it,eci,eold,eci-eold=                    1                   68 -0.98088356457000969      -0.98088065500138022       -2.9095686294722256E-006 F
     orb,it,eci,eold,eci-eold=                    1                   69 -0.98092439700314804      -0.98088356457000969       -4.0832433138349167E-005 F
     orb,it,eci,eold,eci-eold=                    1                   70 -0.98093100387997634      -0.98092439700314804       -6.6068768282967483E-006 F
     orb,it,eci,eold,eci-eold=                    1                   71 -0.98093321041846582      -0.98093100387997634       -2.2065384894798257E-006 F
     orb,it,eci,eold,eci-eold=                    1                   72 -0.98096332569221312      -0.98093321041846582       -3.0115273747299831E-005 F
     orb,it,eci,eold,eci-eold=                    1                   73 -0.98098075594210332      -0.98096332569221312       -1.7430249890204585E-005 F
     orb,it,eci,eold,eci-eold=                    1                   74 -0.98099452191935588      -0.98098075594210332       -1.3765977252555572E-005 F
     orb,it,eci,eold,eci-eold=                    1                   75 -0.98100067387016243      -0.98099452191935588       -6.1519508065543960E-006 F
     orb,it,eci,eold,eci-eold=                    1                   76 -0.98101511144799103      -0.98100067387016243       -1.4437577828596559E-005 F
     orb,it,eci,eold,eci-eold=                    1                   77 -0.98101623417627926      -0.98101511144799103       -1.1227282882275702E-006 F
     orb,it,eci,eold,eci-eold=                    1                   78 -0.98101653449697990      -0.98101623417627926       -3.0032070064134331E-007 F
     orb,it,eci,eold,eci-eold=                    1                   79 -0.98102605092205131      -0.98101653449697990       -9.5164250714097065E-006 F
     orb,it,eci,eold,eci-eold=                    1                   80 -0.98103092378176682      -0.98102605092205131       -4.8728597155101028E-006 F
     orb,it,eci,eold,eci-eold=                    1                   81 -0.98103259842752177      -0.98103092378176682       -1.6746457549565719E-006 F
     orb,it,eci,eold,eci-eold=                    1                   82 -0.98104143078295947      -0.98103259842752177       -8.8323554376934510E-006 F
     orb,it,eci,eold,eci-eold=                    1                   83 -0.98104596852889325      -0.98104143078295947       -4.5377459337858639E-006 F
     orb,it,eci,eold,eci-eold=                    1                   84 -0.98104758234464340      -0.98104596852889325       -1.6138157501455197E-006 F
     orb,it,eci,eold,eci-eold=                    1                   85 -0.98105413756067028      -0.98104758234464340       -6.5552160268822490E-006 F
     orb,it,eci,eold,eci-eold=                    1                   86 -0.98105532989076549      -0.98105413756067028       -1.1923300952121352E-006 F
     orb,it,eci,eold,eci-eold=                    1                   87 -0.98105561319335466      -0.98105532989076549       -2.8330258916575701E-007 F
     orb,it,eci,eold,eci-eold=                    1                   88 -0.98106159625665734      -0.98105561319335466       -5.9830633026836111E-006 F
     orb,it,eci,eold,eci-eold=                    1                   89 -0.98106628353515513      -0.98106159625665734       -4.6872784977836091E-006 F
     orb,it,eci,eold,eci-eold=                    1                   90 -0.98106783412212095      -0.98106628353515513       -1.5505869658261062E-006 F
     orb,it,eci,eold,eci-eold=                    1                   91 -0.98107231335867096      -0.98106783412212095       -4.4792365500034848E-006 F
     orb,it,eci,eold,eci-eold=                    1                   92 -0.98107336319338778      -0.98107231335867096       -1.0498347168264033E-006 F
     orb,it,eci,eold,eci-eold=                    1                   93 -0.98107390194384547      -0.98107336319338778       -5.3875045769036234E-007 F
     orb,it,eci,eold,eci-eold=                    1                   94 -0.98107795325461256      -0.98107390194384547       -4.0513107670836490E-006 F
     orb,it,eci,eold,eci-eold=                    1                   95 -0.98108037318589114      -0.98107795325461256       -2.4199312785855298E-006 F
     orb,it,eci,eold,eci-eold=                    1                   96 -0.98108123161723793      -0.98108037318589114       -8.5843134678409427E-007 F
     orb,it,eci,eold,eci-eold=                    1                   97 -0.98108421562465797      -0.98108123161723793       -2.9840074200482292E-006 F
     orb,it,eci,eold,eci-eold=                    1                   98 -0.98108492950468262      -0.98108421562465797       -7.1388002464978229E-007 F
     orb,it,eci,eold,eci-eold=                    1                   99 -0.98108522209962423      -0.98108492950468262       -2.9259494160882582E-007 F
     orb,it,eci,eold,eci-eold=                    1                  100 -0.98108771398519101      -0.98108522209962423       -2.4918855667799278E-006 F
     orb,it,eci,eold,eci-eold=                    1                  101 -0.98108926245410122      -0.98108771398519101       -1.5484689102063243E-006 F
     orb,it,eci,eold,eci-eold=                    1                  102 -0.98108989770570521      -0.98108926245410122       -6.3525160398647529E-007 F
     orb,it,eci,eold,eci-eold=                    1                  103 -0.98109193675690676      -0.98108989770570521       -2.0390512015522333E-006 F
     orb,it,eci,eold,eci-eold=                    1                  104 -0.98109245610623796      -0.98109193675690676       -5.1934933120723059E-007 F
     orb,it,eci,eold,eci-eold=                    1                  105 -0.98109266445729115      -0.98109245610623796       -2.0835105318806058E-007 F
     orb,it,eci,eold,eci-eold=                    1                  106 -0.98109412407488750      -0.98109266445729115       -1.4596175963443869E-006 F
     orb,it,eci,eold,eci-eold=                    1                  107 -0.98109459612666683      -0.98109412407488750       -4.7205177933218323E-007 F
     orb,it,eci,eold,eci-eold=                    1                  108 -0.98109473843080819      -0.98109459612666683       -1.4230414135951719E-007 F
     orb,it,eci,eold,eci-eold=                    1                  109 -0.98109593545432672      -0.98109473843080819       -1.1970235185287947E-006 F
     orb,it,eci,eold,eci-eold=                    1                  110 -0.98109649346146499      -0.98109593545432672       -5.5800713827380832E-007 F
     orb,it,eci,eold,eci-eold=                    1                  111 -0.98109665870356944      -0.98109649346146499       -1.6524210444401888E-007 F
     orb,it,eci,eold,eci-eold=                    1                  112 -0.98109764653354614      -0.98109665870356944       -9.8782997670632255E-007 F
     orb,it,eci,eold,eci-eold=                    1                  113 -0.98109821511447015      -0.98109764653354614       -5.6858092400968729E-007 F
     orb,it,eci,eold,eci-eold=                    1                  114 -0.98109846728820937      -0.98109821511447015       -2.5217373922359343E-007 F
     orb,it,eci,eold,eci-eold=                    1                  115 -0.98109939190108053      -0.98109846728820937       -9.2461287115597202E-007 F
     orb,it,eci,eold,eci-eold=                    1                  116 -0.98109966231280221      -0.98109939190108053       -2.7041172168118521E-007 F
     orb,it,eci,eold,eci-eold=                    1                  117 -0.98109972897502784      -0.98109966231280221       -6.6662225628455474E-008 F
     orb,it,eci,eold,eci-eold=                    1                  118 -0.98110043890606335      -0.98109972897502784       -7.0993103551408865E-007 F
     orb,it,eci,eold,eci-eold=                    1                  119 -0.98110089455581173      -0.98110043890606335       -4.5564974837652983E-007 F
     orb,it,eci,eold,eci-eold=                    1                  120 -0.98110106300534139      -0.98110089455581173       -1.6844952965833215E-007 F
     orb,it,eci,eold,eci-eold=                    1                  121 -0.98110166453971603      -0.98110106300534139       -6.0153437464460779E-007 F
     orbital   1 current e= -0.114282E+00 error=0.529E-01 (eci= -0.981101665E+00 error=0.602E-06) iterations 121(   0 preconditioned, Ep,Sp= 20.0  200.0)
     orb,it,eci,eold,eci-eold=                    1                    1 -0.98110327238288719      -0.98110166453971603       -1.6078431711585850E-006 F
     orb,it,eci,eold,eci-eold=                    1                    2 -0.98110380413008058      -0.98110327238288719       -5.3174719338855425E-007 F
     orb,it,eci,eold,eci-eold=                    1                    3 -0.98110393312761091      -0.98110380413008058       -1.2899753032424854E-007 F
     orb,it,eci,eold,eci-eold=                    1                    4 -0.98110443177610751      -0.98110393312761091       -4.9864849660519184E-007 F
     orb,it,eci,eold,eci-eold=                    1                    5 -0.98110462243290530      -0.98110443177610751       -1.9065679779384226E-007 F
     orb,it,eci,eold,eci-eold=                    1                    6 -0.98110468807286977      -0.98110462243290530       -6.5639964463848344E-008 F
     orb,it,eci,eold,eci-eold=                    1                    7 -0.98110485099132028      -0.98110468807286977       -1.6291845050808718E-007 F
     orb,it,eci,eold,eci-eold=                    1                    8 -0.98110496230051103      -0.98110485099132028       -1.1130919075341694E-007 F
     orb,it,eci,eold,eci-eold=                    1                    9 -0.98110514663880966      -0.98110496230051103       -1.8433829862551931E-007 F
     orb,it,eci,eold,eci-eold=                    1                   10 -0.98110519962928122      -0.98110514663880966       -5.2990471566261022E-008 F
     orb,it,eci,eold,eci-eold=                    1                   11 -0.98110523895419877      -0.98110519962928122       -3.9324917544547588E-008 F
     orb,it,eci,eold,eci-eold=                    1                   12 -0.98110528886464521      -0.98110523895419877       -4.9910446442424927E-008 F
     orb,it,eci,eold,eci-eold=                    1                   13 -0.98110530327402512      -0.98110528886464521       -1.4409379911484166E-008 F
     orb,it,eci,eold,eci-eold=                    1                   14 -0.98110534542945194      -0.98110530327402512       -4.2155426815959629E-008 F
     orb,it,eci,eold,eci-eold=                    1                   15 -0.98110539520185924      -0.98110534542945194       -4.9772407306747368E-008 F
     orb,it,eci,eold,eci-eold=                    1                   16 -0.98110541922171546      -0.98110539520185924       -2.4019856215140578E-008 F
     orb,it,eci,eold,eci-eold=                    1                   17 -0.98110544931041987      -0.98110541922171546       -3.0088704416897372E-008 F
     orb,it,eci,eold,eci-eold=                    1                   18 -0.98110544931041987      -0.98110544931041987        0.0000000000000000      F
     orbital   1 current e= -0.114256E+00 error=0.266E-04 (eci= -0.981105449E+00 error=0.000E+00) iterations  18(   0 preconditioned, Ep,Sp= 20.0  200.0)
     orb,it,eci,eold,eci-eold=                    1                    1 -0.98110549742346387      -0.98110544880254191       -4.8620921955233598E-008 F
     orb,it,eci,eold,eci-eold=                    1                    2 -0.98110550395643059      -0.98110549742346387       -6.5329667231495137E-009 F
     orb,it,eci,eold,eci-eold=                    1                    3 -0.98110553794497668      -0.98110550395643059       -3.3988546088714600E-008 F
     orb,it,eci,eold,eci-eold=                    1                    4 -0.98110554394802441      -0.98110553794497668       -6.0030477255779147E-009 F
     orb,it,eci,eold,eci-eold=                    1                    5 -0.98110554396083738      -0.98110554394802441       -1.2812972904896469E-011 F
     orbital   1 current e= -0.114256E+00 error=0.129E-06 (eci= -0.981105544E+00 error=0.128E-10) iterations   5(   0 preconditioned, Ep,Sp= 20.0  200.0)
     orb,it,eci,eold,eci-eold=                    2                    1 -0.83948974933519871      -0.83901729845934858       -4.7245087585012779E-004 F
     orb,it,eci,eold,eci-eold=                    2                    2 -0.83949598298960448      -0.83948974933519871       -6.2336544057739474E-006 F
     orb,it,eci,eold,eci-eold=                    2                    3 -0.83950232979167017      -0.83949598298960448       -6.3468020656820556E-006 F
     orb,it,eci,eold,eci-eold=                    2                    4 -0.83961660786265235      -0.83950232979167017       -1.1427807098218778E-004 F
     orb,it,eci,eold,eci-eold=                    2                    5 -0.83969631003471024      -0.83961660786265235       -7.9702172057882770E-005 F
     orb,it,eci,eold,eci-eold=                    2                    6 -0.83971057806151217      -0.83969631003471024       -1.4268026801933509E-005 F
     orb,it,eci,eold,eci-eold=                    2                    7 -0.83972582907494009      -0.83971057806151217       -1.5251013427919347E-005 F
     orb,it,eci,eold,eci-eold=                    2                    8 -0.83974112777260612      -0.83972582907494009       -1.5298697666032979E-005 F
     orb,it,eci,eold,eci-eold=                    2                    9 -0.83975662760341341      -0.83974112777260612       -1.5499830807286230E-005 F
     orb,it,eci,eold,eci-eold=                    2                   10 -0.83978260910086477      -0.83975662760341341       -2.5981497451366131E-005 F
     orb,it,eci,eold,eci-eold=                    2                   11 -0.83980392556328631      -0.83978260910086477       -2.1316462421538951E-005 F
     orb,it,eci,eold,eci-eold=                    2                   12 -0.83983896906011424      -0.83980392556328631       -3.5043496827924514E-005 F
     orb,it,eci,eold,eci-eold=                    2                   13 -0.83987194900271978      -0.83983896906011424       -3.2979942605537715E-005 F
     orb,it,eci,eold,eci-eold=                    2                   14 -0.83987352896921519      -0.83987194900271978       -1.5799664954130321E-006 F
     orb,it,eci,eold,eci-eold=                    2                   15 -0.83988302898333611      -0.83987352896921519       -9.5000141209222733E-006 F
     orb,it,eci,eold,eci-eold=                    2                   16 -0.83992905157919351      -0.83988302898333611       -4.6022595857397874E-005 F
     orb,it,eci,eold,eci-eold=                    2                   17 -0.83997076350450128      -0.83992905157919351       -4.1711925307774678E-005 F
     orb,it,eci,eold,eci-eold=                    2                   18 -0.83999683031179828      -0.83997076350450128       -2.6066807296998284E-005 F
     orb,it,eci,eold,eci-eold=                    2                   19 -0.84001027708484388      -0.83999683031179828       -1.3446773045600047E-005 F
     orb,it,eci,eold,eci-eold=                    2                   20 -0.84001680975142312      -0.84001027708484388       -6.5326665792397876E-006 F
     orb,it,eci,eold,eci-eold=                    2                   21 -0.84004792861451150      -0.84001680975142312       -3.1118863088375193E-005 F
     orb,it,eci,eold,eci-eold=                    2                   22 -0.84006770666290498      -0.84004792861451150       -1.9778048393481740E-005 F
     orb,it,eci,eold,eci-eold=                    2                   23 -0.84007816042029704      -0.84006770666290498       -1.0453757392059337E-005 F
     orb,it,eci,eold,eci-eold=                    2                   24 -0.84008227146851966      -0.84007816042029704       -4.1110482226214273E-006 F
     orb,it,eci,eold,eci-eold=                    2                   25 -0.84009756507493316      -0.84008227146851966       -1.5293606413502303E-005 F
     orb,it,eci,eold,eci-eold=                    2                   26 -0.84010706380838518      -0.84009756507493316       -9.4987334520180156E-006 F
     orb,it,eci,eold,eci-eold=                    2                   27 -0.84011352600280653      -0.84010706380838518       -6.4621944213527627E-006 F
     orb,it,eci,eold,eci-eold=                    2                   28 -0.84011634496993337      -0.84011352600280653       -2.8189671268386007E-006 F
     orb,it,eci,eold,eci-eold=                    2                   29 -0.84012363462271922      -0.84011634496993337       -7.2896527858468119E-006 F
     orb,it,eci,eold,eci-eold=                    2                   30 -0.84012785160695547      -0.84012363462271922       -4.2169842362493881E-006 F
     orb,it,eci,eold,eci-eold=                    2                   31 -0.84013158369513952      -0.84012785160695547       -3.7320881840496867E-006 F
     orb,it,eci,eold,eci-eold=                    2                   32 -0.84013371708049411      -0.84013158369513952       -2.1333853545968395E-006 F
     orb,it,eci,eold,eci-eold=                    2                   33 -0.84013777706507553      -0.84013371708049411       -4.0599845814170976E-006 F
     orb,it,eci,eold,eci-eold=                    2                   34 -0.84013987913332577      -0.84013777706507553       -2.1020682502426169E-006 F
     orb,it,eci,eold,eci-eold=                    2                   35 -0.84014165196345059      -0.84013987913332577       -1.7728301248132183E-006 F
     orb,it,eci,eold,eci-eold=                    2                   36 -0.84014253162100250      -0.84014165196345059       -8.7965755191099504E-007 F
     orb,it,eci,eold,eci-eold=                    2                   37 -0.84014460290525483      -0.84014253162100250       -2.0712842523362696E-006 F
     orb,it,eci,eold,eci-eold=                    2                   38 -0.84014469889154308      -0.84014460290525483       -9.5986288251026508E-008 F
     orb,it,eci,eold,eci-eold=                    2                   39 -0.84014488827822642      -0.84014469889154308       -1.8938668333579045E-007 F
     orb,it,eci,eold,eci-eold=                    2                   40 -0.84014637458764185      -0.84014488827822642       -1.4863094154327072E-006 F
     orb,it,eci,eold,eci-eold=                    2                   41 -0.84014712028365413      -0.84014637458764185       -7.4569601227203464E-007 F
     orb,it,eci,eold,eci-eold=                    2                   42 -0.84014811441216009      -0.84014712028365413       -9.9412850596003466E-007 F
     orb,it,eci,eold,eci-eold=                    2                   43 -0.84014867509938729      -0.84014811441216009       -5.6068722720237218E-007 F
     orb,it,eci,eold,eci-eold=                    2                   44 -0.84014933915765067      -0.84014867509938729       -6.6405826337767593E-007 F
     orb,it,eci,eold,eci-eold=                    2                   45 -0.84014967708931076      -0.84014933915765067       -3.3793166009932207E-007 F
     orb,it,eci,eold,eci-eold=                    2                   46 -0.84015021643669496      -0.84014967708931076       -5.3934738419858519E-007 F
     orb,it,eci,eold,eci-eold=                    2                   47 -0.84015053830216546      -0.84015021643669496       -3.2186547049839476E-007 F
     orb,it,eci,eold,eci-eold=                    2                   48 -0.84015089347764826      -0.84015053830216546       -3.5517548280239453E-007 F
     orb,it,eci,eold,eci-eold=                    2                   49 -0.84015106686434171      -0.84015089347764826       -1.7338669344724167E-007 F
     orb,it,eci,eold,eci-eold=                    2                   50 -0.84015137821843089      -0.84015106686434171       -3.1135408917748464E-007 F
     orb,it,eci,eold,eci-eold=                    2                   51 -0.84015156415296688      -0.84015137821843089       -1.8593453599002885E-007 F
     orb,it,eci,eold,eci-eold=                    2                   52 -0.84015175978594669      -0.84015156415296688       -1.9563297981584071E-007 F
     orb,it,eci,eold,eci-eold=                    2                   53 -0.84015185569185524      -0.84015175978594669       -9.5905908548132857E-008 F
     orb,it,eci,eold,eci-eold=                    2                   54 -0.84015203593218701      -0.84015185569185524       -1.8024033177077570E-007 F
     orb,it,eci,eold,eci-eold=                    2                   55 -0.84015214521622017      -0.84015203593218701       -1.0928403315624280E-007 F
     orb,it,eci,eold,eci-eold=                    2                   56 -0.84015224278086642      -0.84015214521622017       -9.7564646250880571E-008 F
     orb,it,eci,eold,eci-eold=                    2                   57 -0.84015228917537010      -0.84015224278086642       -4.6394503683266919E-008 F
     orb,it,eci,eold,eci-eold=                    2                   58 -0.84015241200905200      -0.84015228917537010       -1.2283368189258681E-007 F
     orb,it,eci,eold,eci-eold=                    2                   59 -0.84015241438015176      -0.84015241200905200       -2.3710997609782680E-009 F
     orb,it,eci,eold,eci-eold=                    2                   60 -0.84015241804633889      -0.84015241438015176       -3.6661871316567840E-009 F
     orb,it,eci,eold,eci-eold=                    2                   61 -0.84015248887964489      -0.84015241804633889       -7.0833305998441176E-008 F
     orb,it,eci,eold,eci-eold=                    2                   62 -0.84015248887964489      -0.84015248887964489        0.0000000000000000      F
     orbital   2 current e=  0.396499E+00 error=0.815E-01 (eci= -0.840152489E+00 error=0.000E+00) iterations  62(   0 preconditioned, Ep,Sp= 20.0  200.0)
     orb,it,eci,eold,eci-eold=                    2                    1 -0.84015257054063797      -0.84015248815679278       -8.2383845190214799E-008 F
     orb,it,eci,eold,eci-eold=                    2                    2 -0.84015261910248151      -0.84015257054063797       -4.8561843546401917E-008 F
     orb,it,eci,eold,eci-eold=                    2                    3 -0.84015269650680469      -0.84015261910248151       -7.7404323173269063E-008 F
     orb,it,eci,eold,eci-eold=                    2                    4 -0.84015273449431827      -0.84015269650680469       -3.7987513579196275E-008 F
     orb,it,eci,eold,eci-eold=                    2                    5 -0.84015274350552405      -0.84015273449431827       -9.0112057815616708E-009 F
     orb,it,eci,eold,eci-eold=                    2                    6 -0.84015274563835973      -0.84015274350552405       -2.1328356858418829E-009 F
     orb,it,eci,eold,eci-eold=                    2                    7 -0.84015278261678461      -0.84015274563835973       -3.6978424877709415E-008 F
     orb,it,eci,eold,eci-eold=                    2                    8 -0.84015279970565138      -0.84015278261678461       -1.7088866766101773E-008 F
     orb,it,eci,eold,eci-eold=                    2                    9 -0.84015280336689346      -0.84015279970565138       -3.6612420872828011E-009 F
     orb,it,eci,eold,eci-eold=                    2                   10 -0.84015280456744690      -0.84015280336689346       -1.2005534344439184E-009 F
     orb,it,eci,eold,eci-eold=                    2                   11 -0.84015281369577721      -0.84015280456744690       -9.1283303138567362E-009 F
     orb,it,eci,eold,eci-eold=                    2                   12 -0.84015281837762312      -0.84015281369577721       -4.6818459109587707E-009 F
     orb,it,eci,eold,eci-eold=                    2                   13 -0.84015282007073666      -0.84015281837762312       -1.6931135382591833E-009 F
     orb,it,eci,eold,eci-eold=                    2                   14 -0.84015282054426588      -0.84015282007073666       -4.7352921583865282E-010 F
     orbital   2 current e=  0.396197E+00 error=0.302E-03 (eci= -0.840152821E+00 error=0.474E-09) iterations  14(   0 preconditioned, Ep,Sp= 20.0  200.0)
     orb,it,eci,eold,eci-eold=                    2                    1 -0.84015282462340113      -0.84015282054426588       -4.0791352517999258E-009 F
     orb,it,eci,eold,eci-eold=                    2                    2 -0.84015282556754645      -0.84015282462340113       -9.4414531748299169E-010 F
     orbital   2 current e=  0.396192E+00 error=0.511E-05 (eci= -0.840152826E+00 error=0.944E-09) iterations   2(   0 preconditioned, Ep,Sp= 20.0  200.0)
     orb,it,eci,eold,eci-eold=                    3                    1 -0.83791108994442709      -0.83788502452423907       -2.6065420188015054E-005 F
     orb,it,eci,eold,eci-eold=                    3                    2 -0.83795718624542737      -0.83791108994442709       -4.6096301000275730E-005 F
     orb,it,eci,eold,eci-eold=                    3                    3 -0.83801514564883661      -0.83795718624542737       -5.7959403409246768E-005 F
     orb,it,eci,eold,eci-eold=                    3                    4 -0.83804899121971665      -0.83801514564883661       -3.3845570880042253E-005 F
     orb,it,eci,eold,eci-eold=                    3                    5 -0.83815966596318703      -0.83804899121971665       -1.1067474347037365E-004 F
     orb,it,eci,eold,eci-eold=                    3                    6 -0.83821572488445983      -0.83815966596318703       -5.6058921272805762E-005 F
     orb,it,eci,eold,eci-eold=                    3                    7 -0.83823125899795581      -0.83821572488445983       -1.5534113495974111E-005 F
     orb,it,eci,eold,eci-eold=                    3                    8 -0.83823787831914920      -0.83823125899795581       -6.6193211933907037E-006 F
     orb,it,eci,eold,eci-eold=                    3                    9 -0.83828569223535310      -0.83823787831914920       -4.7813916203898188E-005 F
     orb,it,eci,eold,eci-eold=                    3                   10 -0.83831400044595217      -0.83828569223535310       -2.8308210599070627E-005 F
     orb,it,eci,eold,eci-eold=                    3                   11 -0.83833274632919341      -0.83831400044595217       -1.8745883241244599E-005 F
     orb,it,eci,eold,eci-eold=                    3                   12 -0.83834347455812086      -0.83833274632919341       -1.0728228927447958E-005 F
     orb,it,eci,eold,eci-eold=                    3                   13 -0.83837230300632193      -0.83834347455812086       -2.8828448201068113E-005 F
     orb,it,eci,eold,eci-eold=                    3                   14 -0.83837245893334800      -0.83837230300632193       -1.5592702606870290E-007 F
     orb,it,eci,eold,eci-eold=                    3                   15 -0.83837376370274908      -0.83837245893334800       -1.3047694010781541E-006 F
     orb,it,eci,eold,eci-eold=                    3                   16 -0.83839184520818633      -0.83837376370274908       -1.8081505437250733E-005 F
     orb,it,eci,eold,eci-eold=                    3                   17 -0.83839238086409873      -0.83839184520818633       -5.3565591240367638E-007 F
     orb,it,eci,eold,eci-eold=                    3                   18 -0.83839359762542554      -0.83839238086409873       -1.2167613268054822E-006 F
     orb,it,eci,eold,eci-eold=                    3                   19 -0.83840768480737038      -0.83839359762542554       -1.4087181944844041E-005 F
     orb,it,eci,eold,eci-eold=                    3                   20 -0.83841067576790484      -0.83840768480737038       -2.9909605344657919E-006 F
     orb,it,eci,eold,eci-eold=                    3                   21 -0.83841162817057757      -0.83841067576790484       -9.5240267272700407E-007 F
     orb,it,eci,eold,eci-eold=                    3                   22 -0.83842513063701141      -0.83841162817057757       -1.3502466433834570E-005 F
     orb,it,eci,eold,eci-eold=                    3                   23 -0.83842735811243263      -0.83842513063701141       -2.2274754212237013E-006 F
     orb,it,eci,eold,eci-eold=                    3                   24 -0.83842761880214012      -0.83842735811243263       -2.6068970748749365E-007 F
     orb,it,eci,eold,eci-eold=                    3                   25 -0.83843645318272075      -0.83842761880214012       -8.8343805806356812E-006 F
     orb,it,eci,eold,eci-eold=                    3                   26 -0.83844103800206615      -0.83843645318272075       -4.5848193453990049E-006 F
     orb,it,eci,eold,eci-eold=                    3                   27 -0.83844224001969525      -0.83844103800206615       -1.2020176290983287E-006 F
     orb,it,eci,eold,eci-eold=                    3                   28 -0.83844863430184013      -0.83844224001969525       -6.3942821448836895E-006 F
     orb,it,eci,eold,eci-eold=                    3                   29 -0.83844961634934334      -0.83844863430184013       -9.8204750320629586E-007 F
     orb,it,eci,eold,eci-eold=                    3                   30 -0.83844999650704943      -0.83844961634934334       -3.8015770609245436E-007 F
     orb,it,eci,eold,eci-eold=                    3                   31 -0.83845629900938046      -0.83844999650704943       -6.3025023310236961E-006 F
     orb,it,eci,eold,eci-eold=                    3                   32 -0.83845870541541800      -0.83845629900938046       -2.4064060375472707E-006 F
     orb,it,eci,eold,eci-eold=                    3                   33 -0.83845880157146557      -0.83845870541541800       -9.6156047568740632E-008 F
     orb,it,eci,eold,eci-eold=                    3                   34 -0.83846319316924234      -0.83845880157146557       -4.3915977767650105E-006 F
     orb,it,eci,eold,eci-eold=                    3                   35 -0.83846522947299573      -0.83846319316924234       -2.0363037533943640E-006 F
     orb,it,eci,eold,eci-eold=                    3                   36 -0.83846574770506788      -0.83846522947299573       -5.1823207214418687E-007 F
     orb,it,eci,eold,eci-eold=                    3                   37 -0.83846923169808618      -0.83846574770506788       -3.4839930183050427E-006 F
     orb,it,eci,eold,eci-eold=                    3                   38 -0.83846996722769929      -0.83846923169808618       -7.3552961310507925E-007 F
     orb,it,eci,eold,eci-eold=                    3                   39 -0.83847013611405130      -0.83846996722769929       -1.6888635201439683E-007 F
     orb,it,eci,eold,eci-eold=                    3                   40 -0.83847341759276361      -0.83847013611405130       -3.2814787123136568E-006 F
     orb,it,eci,eold,eci-eold=                    3                   41 -0.83847515678903284      -0.83847341759276361       -1.7391962692236973E-006 F
     orb,it,eci,eold,eci-eold=                    3                   42 -0.83847564495982863      -0.83847515678903284       -4.8817079578711287E-007 F
     orb,it,eci,eold,eci-eold=                    3                   43 -0.83847849766578264      -0.83847564495982863       -2.8527059540151001E-006 F
     orb,it,eci,eold,eci-eold=                    3                   44 -0.83847938132728506      -0.83847849766578264       -8.8366150241547814E-007 F
     orb,it,eci,eold,eci-eold=                    3                   45 -0.83847961582407815      -0.83847938132728506       -2.3449679309450744E-007 F
     orb,it,eci,eold,eci-eold=                    3                   46 -0.83848208628995136      -0.83847961582407815       -2.4704658732055407E-006 F
     orb,it,eci,eold,eci-eold=                    3                   47 -0.83848280955370191      -0.83848208628995136       -7.2326375055720149E-007 F
     orb,it,eci,eold,eci-eold=                    3                   48 -0.83848284473952739      -0.83848280955370191       -3.5185825475458898E-008 F
     orb,it,eci,eold,eci-eold=                    3                   49 -0.83848476375579173      -0.83848284473952739       -1.9190162643401010E-006 F
     orb,it,eci,eold,eci-eold=                    3                   50 -0.83848531732362708      -0.83848476375579173       -5.5356783534854515E-007 F
     orb,it,eci,eold,eci-eold=                    3                   51 -0.83848546385851941      -0.83848531732362708       -1.4653489233129591E-007 F
     orb,it,eci,eold,eci-eold=                    3                   52 -0.83848757723733802      -0.83848546385851941       -2.1133788186133984E-006 F
     orb,it,eci,eold,eci-eold=                    3                   53 -0.83848875082082897      -0.83848757723733802       -1.1735834909432086E-006 F
     orb,it,eci,eold,eci-eold=                    3                   54 -0.83848950095896446      -0.83848875082082897       -7.5013813549684727E-007 F
     orb,it,eci,eold,eci-eold=                    3                   55 -0.83848985117870933      -0.83848950095896446       -3.5021974487126073E-007 F
     orb,it,eci,eold,eci-eold=                    3                   56 -0.83849070857022223      -0.83848985117870933       -8.5739151289843107E-007 F
     orb,it,eci,eold,eci-eold=                    3                   57 -0.83849124779415241      -0.83849070857022223       -5.3922393017380443E-007 F
     orb,it,eci,eold,eci-eold=                    3                   58 -0.83849183756701806      -0.83849124779415241       -5.8977286565564668E-007 F
     orb,it,eci,eold,eci-eold=                    3                   59 -0.83849211515444266      -0.83849183756701806       -2.7758742460193275E-007 F
     orb,it,eci,eold,eci-eold=                    3                   60 -0.83849255079554341      -0.83849211515444266       -4.3564110074889584E-007 F
     orb,it,eci,eold,eci-eold=                    3                   61 -0.83849260130108694      -0.83849255079554341       -5.0505543525147800E-008 F
     orb,it,eci,eold,eci-eold=                    3                   62 -0.83849270523385933      -0.83849260130108694       -1.0393277238840426E-007 F
     orb,it,eci,eold,eci-eold=                    3                   63 -0.83849308886192342      -0.83849270523385933       -3.8362806409342198E-007 F
     orb,it,eci,eold,eci-eold=                    3                   64 -0.83849314092244376      -0.83849308886192342       -5.2060520339125560E-008 F
     orb,it,eci,eold,eci-eold=                    3                   65 -0.83849315581174655      -0.83849314092244376       -1.4889302790699332E-008 F
     orb,it,eci,eold,eci-eold=                    3                   66 -0.83849343079199445      -0.83849315581174655       -2.7498024790517661E-007 F
     orb,it,eci,eold,eci-eold=                    3                   67 -0.83849356367731287      -0.83849343079199445       -1.3288531841570972E-007 F
     orb,it,eci,eold,eci-eold=                    3                   68 -0.83849360837071496      -0.83849356367731287       -4.4693402090345558E-008 F
     orb,it,eci,eold,eci-eold=                    3                   69 -0.83849385724789172      -0.83849360837071496       -2.4887717675614596E-007 F
     orb,it,eci,eold,eci-eold=                    3                   70 -0.83849392530589439      -0.83849385724789172       -6.8058002677950924E-008 F
     orb,it,eci,eold,eci-eold=                    3                   71 -0.83849392637399078      -0.83849392530589439       -1.0680963891118722E-009 F
     orb,it,eci,eold,eci-eold=                    3                   72 -0.83849408999599395      -0.83849392637399078       -1.6362200316866193E-007 F
     orb,it,eci,eold,eci-eold=                    3                   73 -0.83849418181591906      -0.83849408999599395       -9.1819925107650135E-008 F
     orb,it,eci,eold,eci-eold=                    3                   74 -0.83849421127653101      -0.83849418181591906       -2.9460611949971849E-008 F
     orb,it,eci,eold,eci-eold=                    3                   75 -0.83849435749747492      -0.83849421127653101       -1.4622094390848162E-007 F
     orb,it,eci,eold,eci-eold=                    3                   76 -0.83849443327896755      -0.83849435749747492       -7.5781492636650682E-008 F
     orb,it,eci,eold,eci-eold=                    3                   77 -0.83849447184521397      -0.83849443327896755       -3.8566246418625383E-008 F
     orb,it,eci,eold,eci-eold=                    3                   78 -0.83849463098544175      -0.83849447184521397       -1.5914022777341330E-007 F
     orb,it,eci,eold,eci-eold=                    3                   79 -0.83849468780953118      -0.83849463098544175       -5.6824089433860081E-008 F
     orb,it,eci,eold,eci-eold=                    3                   80 -0.83849469967242574      -0.83849468780953118       -1.1862894555569881E-008 F
     orb,it,eci,eold,eci-eold=                    3                   81 -0.83849480753232386      -0.83849469967242574       -1.0785989812411856E-007 F
     orb,it,eci,eold,eci-eold=                    3                   82 -0.83849484380119887      -0.83849480753232386       -3.6268875014400237E-008 F
     orb,it,eci,eold,eci-eold=                    3                   83 -0.83849484912274519      -0.83849484380119887       -5.3215463147182618E-009 F
     orb,it,eci,eold,eci-eold=                    3                   84 -0.83849493183594959      -0.83849484912274519       -8.2713204396789308E-008 F
     orb,it,eci,eold,eci-eold=                    3                   85 -0.83849497689989305      -0.83849493183594959       -4.5063943465706302E-008 F
     orb,it,eci,eold,eci-eold=                    3                   86 -0.83849498961504321      -0.83849497689989305       -1.2715150154996024E-008 F
     orb,it,eci,eold,eci-eold=                    3                   87 -0.83849504936011898      -0.83849498961504321       -5.9745075775552436E-008 F
     orb,it,eci,eold,eci-eold=                    3                   88 -0.83849507030176407      -0.83849504936011898       -2.0941645084704419E-008 F
     orb,it,eci,eold,eci-eold=                    3                   89 -0.83849507899230802      -0.83849507030176407       -8.6905439511397731E-009 F
     orb,it,eci,eold,eci-eold=                    3                   90 -0.83849512431067486      -0.83849507899230802       -4.5318366836966106E-008 F
     orb,it,eci,eold,eci-eold=                    3                   91 -0.83849514339058095      -0.83849512431067486       -1.9079906099506161E-008 F
     orb,it,eci,eold,eci-eold=                    3                   92 -0.83849515417088472      -0.83849514339058095       -1.0780303760782317E-008 F
     orb,it,eci,eold,eci-eold=                    3                   93 -0.83849519798459615      -0.83849515417088472       -4.3813711436690994E-008 F
     orb,it,eci,eold,eci-eold=                    3                   94 -0.83849521285140005      -0.83849519798459615       -1.4866803899060699E-008 F
     orb,it,eci,eold,eci-eold=                    3                   95 -0.83849521898130241      -0.83849521285140005       -6.1299023634830974E-009 F
     orb,it,eci,eold,eci-eold=                    3                   96 -0.83849525708507056      -0.83849521898130241       -3.8103768140729244E-008 F
     orb,it,eci,eold,eci-eold=                    3                   97 -0.83849527115281641      -0.83849525708507056       -1.4067745857104796E-008 F
     orb,it,eci,eold,eci-eold=                    3                   98 -0.83849527433814552      -0.83849527115281641       -3.1853291115879756E-009 F
     orb,it,eci,eold,eci-eold=                    3                   99 -0.83849530601779176      -0.83849527433814552       -3.1679646239624049E-008 F
     orb,it,eci,eold,eci-eold=                    3                  100 -0.83849532067524513      -0.83849530601779176       -1.4657453362154627E-008 F
     orb,it,eci,eold,eci-eold=                    3                  101 -0.83849532344084421      -0.83849532067524513       -2.7655990830766086E-009 F
     orb,it,eci,eold,eci-eold=                    3                  102 -0.83849534750574317      -0.83849532344084421       -2.4064898962450343E-008 F
     orb,it,eci,eold,eci-eold=                    3                  103 -0.83849535855116430      -0.83849534750574317       -1.1045421133282218E-008 F
     orb,it,eci,eold,eci-eold=                    3                  104 -0.83849536137391523      -0.83849535855116430       -2.8227509218936575E-009 F
     orb,it,eci,eold,eci-eold=                    3                  105 -0.83849537931515572      -0.83849536137391523       -1.7941240493257737E-008 F
     orb,it,eci,eold,eci-eold=                    3                  106 -0.83849538692392422      -0.83849537931515572       -7.6087685041414943E-009 F
     orb,it,eci,eold,eci-eold=                    3                  107 -0.83849538990902150      -0.83849538692392422       -2.9850972804723597E-009 F
     orb,it,eci,eold,eci-eold=                    3                  108 -0.83849540478961226      -0.83849538990902150       -1.4880590759602796E-008 F
     orb,it,eci,eold,eci-eold=                    3                  109 -0.83849541036136066      -0.83849540478961226       -5.5717483959938363E-009 F
     orb,it,eci,eold,eci-eold=                    3                  110 -0.83849541274309081      -0.83849541036136066       -2.3817301464390539E-009 F
     orb,it,eci,eold,eci-eold=                    3                  111 -0.83849542579565783      -0.83849541274309081       -1.3052567027216355E-008 F
     orb,it,eci,eold,eci-eold=                    3                  112 -0.83849543020132400      -0.83849542579565783       -4.4056661652192020E-009 F
     orb,it,eci,eold,eci-eold=                    3                  113 -0.83849543120654424      -0.83849543020132400       -1.0052202403798560E-009 F
     orb,it,eci,eold,eci-eold=                    3                  114 -0.83849544085582461      -0.83849543120654424       -9.6492803747239009E-009 F
     orb,it,eci,eold,eci-eold=                    3                  115 -0.83849544524004371      -0.83849544085582461       -4.3842190988740981E-009 F
     orb,it,eci,eold,eci-eold=                    3                  116 -0.83849544656980823      -0.83849544524004371       -1.3297645207188680E-009 F
     orb,it,eci,eold,eci-eold=                    3                  117 -0.83849545426736261      -0.83849544656980823       -7.6975543716883976E-009 F
     orb,it,eci,eold,eci-eold=                    3                  118 -0.83849545706472473      -0.83849545426736261       -2.7973621197219245E-009 F
     orb,it,eci,eold,eci-eold=                    3                  119 -0.83849545800217218      -0.83849545706472473       -9.3744745299773058E-010 F
     orbital   3 current e=  0.403768E+00 error=0.885E-01 (eci= -0.838495458E+00 error=0.937E-09) iterations 119(   0 preconditioned, Ep,Sp= 20.0  200.0)
     orb,it,eci,eold,eci-eold=                    3                    1 -0.83849546759583726      -0.83849545800217218       -9.5936650845729332E-009 F
     orb,it,eci,eold,eci-eold=                    3                    2 -0.83849547356689369      -0.83849546759583726       -5.9710564270787359E-009 F
     orb,it,eci,eold,eci-eold=                    3                    3 -0.83849548849717392      -0.83849547356689369       -1.4930280234359827E-008 F
     orb,it,eci,eold,eci-eold=                    3                    4 -0.83849549069143692      -0.83849548849717392       -2.1942629935267632E-009 F
     orb,it,eci,eold,eci-eold=                    3                    5 -0.83849549648132626      -0.83849549069143692       -5.7898893457419831E-009 F
     orb,it,eci,eold,eci-eold=                    3                    6 -0.83849550025751607      -0.83849549648132626       -3.7761898052934839E-009 F
     orb,it,eci,eold,eci-eold=                    3                    7 -0.83849550212067769      -0.83849550025751607       -1.8631616249820127E-009 F
     orb,it,eci,eold,eci-eold=                    3                    8 -0.83849550601172151      -0.83849550212067769       -3.8910438204808884E-009 F
     orb,it,eci,eold,eci-eold=                    3                    9 -0.83849550793203120      -0.83849550601172151       -1.9203096890407778E-009 F
     orb,it,eci,eold,eci-eold=                    3                   10 -0.83849550863935041      -0.83849550793203120       -7.0731920320810104E-010 F
     orbital   3 current e=  0.403562E+00 error=0.205E-03 (eci= -0.838495509E+00 error=0.707E-09) iterations  10(   0 preconditioned, Ep,Sp= 20.0  200.0)
     orb,it,eci,eold,eci-eold=                    3                    1 -0.83849551010560108      -0.83849550863935041       -1.4662506764295813E-009 F
     orb,it,eci,eold,eci-eold=                    3                    2 -0.83849551010560108      -0.83849551010560108        0.0000000000000000      F
     orbital   3 current e=  0.403533E+00 error=0.291E-04 (eci= -0.838495510E+00 error=0.000E+00) iterations   2(   0 preconditioned, Ep,Sp= 20.0  200.0)
     orb,it,eci,eold,eci-eold=                    4                    1 -0.83778905521608527      -0.83767724062008653       -1.1181459599873822E-004 F
     orb,it,eci,eold,eci-eold=                    4                    2 -0.83779952797541335      -0.83778905521608527       -1.0472759328084003E-005 F
     orb,it,eci,eold,eci-eold=                    4                    3 -0.83784725666415794      -0.83779952797541335       -4.7728688744586023E-005 F
     orb,it,eci,eold,eci-eold=                    4                    4 -0.83788479140657479      -0.83784725666415794       -3.7534742416855948E-005 F
     orb,it,eci,eold,eci-eold=                    4                    5 -0.83789006914936581      -0.83788479140657479       -5.2777427910211117E-006 F
     orb,it,eci,eold,eci-eold=                    4                    6 -0.83789162633981229      -0.83789006914936581       -1.5571904464772857E-006 F
     orb,it,eci,eold,eci-eold=                    4                    7 -0.83792502977492833      -0.83789162633981229       -3.3403435116041713E-005 F
     orb,it,eci,eold,eci-eold=                    4                    8 -0.83793794332436922      -0.83792502977492833       -1.2913549440884964E-005 F
     orb,it,eci,eold,eci-eold=                    4                    9 -0.83794802055063844      -0.83793794332436922       -1.0077226269222805E-005 F
     orb,it,eci,eold,eci-eold=                    4                   10 -0.83795335379133007      -0.83794802055063844       -5.3332406916295483E-006 F
     orb,it,eci,eold,eci-eold=                    4                   11 -0.83795977218878170      -0.83795335379133007       -6.4183974516351938E-006 F
     orb,it,eci,eold,eci-eold=                    4                   12 -0.83796575981321886      -0.83795977218878170       -5.9876244371537268E-006 F
     orb,it,eci,eold,eci-eold=                    4                   13 -0.83796963863468465      -0.83796575981321886       -3.8788214657969888E-006 F
     orb,it,eci,eold,eci-eold=                    4                   14 -0.83798302414316339      -0.83796963863468465       -1.3385508478735986E-005 F
     orb,it,eci,eold,eci-eold=                    4                   15 -0.83798554289729077      -0.83798302414316339       -2.5187541273785641E-006 F
     orb,it,eci,eold,eci-eold=                    4                   16 -0.83798631911427768      -0.83798554289729077       -7.7621698690855112E-007 F
     orb,it,eci,eold,eci-eold=                    4                   17 -0.83799479244950059      -0.83798631911427768       -8.4733352229138248E-006 F
     orb,it,eci,eold,eci-eold=                    4                   18 -0.83799520346897216      -0.83799479244950059       -4.1101947156896301E-007 F
     orb,it,eci,eold,eci-eold=                    4                   19 -0.83799589970669808      -0.83799520346897216       -6.9623772591675959E-007 F
     orb,it,eci,eold,eci-eold=                    4                   20 -0.83800205412123685      -0.83799589970669808       -6.1544145387726346E-006 F
     orb,it,eci,eold,eci-eold=                    4                   21 -0.83800399789398028      -0.83800205412123685       -1.9437727434290508E-006 F
     orb,it,eci,eold,eci-eold=                    4                   22 -0.83800456394260059      -0.83800399789398028       -5.6604862030962266E-007 F
     orb,it,eci,eold,eci-eold=                    4                   23 -0.83800943399196792      -0.83800456394260059       -4.8700493673337064E-006 F
     orb,it,eci,eold,eci-eold=                    4                   24 -0.83801061635009599      -0.83800943399196792       -1.1823581280712148E-006 F
     orb,it,eci,eold,eci-eold=                    4                   25 -0.83801065815207842      -0.83801061635009599       -4.1801982431088902E-008 F
     orb,it,eci,eold,eci-eold=                    4                   26 -0.83801425486216774      -0.83801065815207842       -3.5967100893152804E-006 F
     orb,it,eci,eold,eci-eold=                    4                   27 -0.83801628712307208      -0.83801425486216774       -2.0322609043388340E-006 F
     orb,it,eci,eold,eci-eold=                    4                   28 -0.83801690928266970      -0.83801628712307208       -6.2215959761857675E-007 F
     orb,it,eci,eold,eci-eold=                    4                   29 -0.83801943738357743      -0.83801690928266970       -2.5281009077282590E-006 F
     orb,it,eci,eold,eci-eold=                    4                   30 -0.83801981893524380      -0.83801943738357743       -3.8155166637299232E-007 F
     orb,it,eci,eold,eci-eold=                    4                   31 -0.83802013679796516      -0.83801981893524380       -3.1786272136624660E-007 F
     orb,it,eci,eold,eci-eold=                    4                   32 -0.83802288012866755      -0.83802013679796516       -2.7433307023816411E-006 F
     orb,it,eci,eold,eci-eold=                    4                   33 -0.83802360797601272      -0.83802288012866755       -7.2784734517217231E-007 F
     orb,it,eci,eold,eci-eold=                    4                   34 -0.83802379526086179      -0.83802360797601272       -1.8728484907359899E-007 F
     orb,it,eci,eold,eci-eold=                    4                   35 -0.83802625873565195      -0.83802379526086179       -2.4634747901597365E-006 F
     orb,it,eci,eold,eci-eold=                    4                   36 -0.83802647928811125      -0.83802625873565195       -2.2055245929575307E-007 F
     orb,it,eci,eold,eci-eold=                    4                   37 -0.83802663111146236      -0.83802647928811125       -1.5182335111330048E-007 F
     orb,it,eci,eold,eci-eold=                    4                   38 -0.83802881239430338      -0.83802663111146236       -2.1812828410183727E-006 F
     orb,it,eci,eold,eci-eold=                    4                   39 -0.83803003446176094      -0.83802881239430338       -1.2220674575624813E-006 F
     orb,it,eci,eold,eci-eold=                    4                   40 -0.83803088269553228      -0.83803003446176094       -8.4823377133336209E-007 F
     orb,it,eci,eold,eci-eold=                    4                   41 -0.83803131064710024      -0.83803088269553228       -4.2795156796060496E-007 F
     orb,it,eci,eold,eci-eold=                    4                   42 -0.83803251638420095      -0.83803131064710024       -1.2057371007179185E-006 F
     orb,it,eci,eold,eci-eold=                    4                   43 -0.83803263041663878      -0.83803251638420095       -1.1403243782570627E-007 F
     orb,it,eci,eold,eci-eold=                    4                   44 -0.83803271115397093      -0.83803263041663878       -8.0737332153191232E-008 F
     orb,it,eci,eold,eci-eold=                    4                   45 -0.83803372349243177      -0.83803271115397093       -1.0123384608373698E-006 F
     orb,it,eci,eold,eci-eold=                    4                   46 -0.83803430695797121      -0.83803372349243177       -5.8346553943877666E-007 F
     orb,it,eci,eold,eci-eold=                    4                   47 -0.83803482675057483      -0.83803430695797121       -5.1979260362600144E-007 F
     orb,it,eci,eold,eci-eold=                    4                   48 -0.83803508332199284      -0.83803482675057483       -2.5657141800028427E-007 F
     orb,it,eci,eold,eci-eold=                    4                   49 -0.83803560582961190      -0.83803508332199284       -5.2250761906069698E-007 F
     orb,it,eci,eold,eci-eold=                    4                   50 -0.83803592462797827      -0.83803560582961190       -3.1879836637216385E-007 F
     orb,it,eci,eold,eci-eold=                    4                   51 -0.83803627165064243      -0.83803592462797827       -3.4702266415997940E-007 F
     orb,it,eci,eold,eci-eold=                    4                   52 -0.83803643111179926      -0.83803627165064243       -1.5946115683451723E-007 F
     orb,it,eci,eold,eci-eold=                    4                   53 -0.83803669362502942      -0.83803643111179926       -2.6251323015369366E-007 F
     orb,it,eci,eold,eci-eold=                    4                   54 -0.83803670282879161      -0.83803669362502942       -9.2037621968188432E-009 F
     orb,it,eci,eold,eci-eold=                    4                   55 -0.83803674555814123      -0.83803670282879161       -4.2729349614134549E-008 F
     orb,it,eci,eold,eci-eold=                    4                   56 -0.83803697942845512      -0.83803674555814123       -2.3387031389265900E-007 F
     orb,it,eci,eold,eci-eold=                    4                   57 -0.83803701312323786      -0.83803697942845512       -3.3694782741733320E-008 F
     orb,it,eci,eold,eci-eold=                    4                   58 -0.83803702991379625      -0.83803701312323786       -1.6790558388102284E-008 F
     orb,it,eci,eold,eci-eold=                    4                   59 -0.83803725182722744      -0.83803702991379625       -2.2191343118649343E-007 F
     orb,it,eci,eold,eci-eold=                    4                   60 -0.83803725337518697      -0.83803725182722744       -1.5479595383283140E-009 F
     orb,it,eci,eold,eci-eold=                    4                   61 -0.83803725787585659      -0.83803725337518697       -4.5006696147709135E-009 F
     orb,it,eci,eold,eci-eold=                    4                   62 -0.83803741374299334      -0.83803725787585659       -1.5586713675297403E-007 F
     orb,it,eci,eold,eci-eold=                    4                   63 -0.83803747639532611      -0.83803741374299334       -6.2652332766255370E-008 F
     orb,it,eci,eold,eci-eold=                    4                   64 -0.83803755486852805      -0.83803747639532611       -7.8473201936546388E-008 F
     orb,it,eci,eold,eci-eold=                    4                   65 -0.83803761460464210      -0.83803755486852805       -5.9736114055297662E-008 F
     orb,it,eci,eold,eci-eold=                    4                   66 -0.83803773702081497      -0.83803761460464210       -1.2241617286523621E-007 F
     orb,it,eci,eold,eci-eold=                    4                   67 -0.83803775627380217      -0.83803773702081497       -1.9252987204509964E-008 F
     orb,it,eci,eold,eci-eold=                    4                   68 -0.83803776899267013      -0.83803775627380217       -1.2718867958838587E-008 F
     orb,it,eci,eold,eci-eold=                    4                   69 -0.83803786210717091      -0.83803776899267013       -9.3114500776536602E-008 F
     orb,it,eci,eold,eci-eold=                    4                   70 -0.83803789455340894      -0.83803786210717091       -3.2446238029670837E-008 F
     orb,it,eci,eold,eci-eold=                    4                   71 -0.83803789742222201      -0.83803789455340894       -2.8688130759846331E-009 F
     orb,it,eci,eold,eci-eold=                    4                   72 -0.83803795836448636      -0.83803789742222201       -6.0942264346053321E-008 F
     orb,it,eci,eold,eci-eold=                    4                   73 -0.83803799948707147      -0.83803795836448636       -4.1122585114905519E-008 F
     orb,it,eci,eold,eci-eold=                    4                   74 -0.83803801810067524      -0.83803799948707147       -1.8613603769424003E-008 F
     orb,it,eci,eold,eci-eold=                    4                   75 -0.83803807754671500      -0.83803801810067524       -5.9446039757382607E-008 F
     orb,it,eci,eold,eci-eold=                    4                   76 -0.83803809202672108      -0.83803807754671500       -1.4480006083061880E-008 F
     orb,it,eci,eold,eci-eold=                    4                   77 -0.83803809715268784      -0.83803809202672108       -5.1259667621650351E-009 F
     orb,it,eci,eold,eci-eold=                    4                   78 -0.83803814376973484      -0.83803809715268784       -4.6617047000374612E-008 F
     orb,it,eci,eold,eci-eold=                    4                   79 -0.83803816317171553      -0.83803814376973484       -1.9401980688726894E-008 F
     orb,it,eci,eold,eci-eold=                    4                   80 -0.83803816740108661      -0.83803816317171553       -4.2293710755814118E-009 F
     orb,it,eci,eold,eci-eold=                    4                   81 -0.83803820544646190      -0.83803816740108661       -3.8045375294615269E-008 F
     orb,it,eci,eold,eci-eold=                    4                   82 -0.83803823130131205      -0.83803820544646190       -2.5854850149720221E-008 F
     orb,it,eci,eold,eci-eold=                    4                   83 -0.83803824137631788      -0.83803823130131205       -1.0075005829612849E-008 F
     orb,it,eci,eold,eci-eold=                    4                   84 -0.83803827101976025      -0.83803824137631788       -2.9643442367444095E-008 F
     orb,it,eci,eold,eci-eold=                    4                   85 -0.83803827547688559      -0.83803827101976025       -4.4571253354774854E-009 F
     orb,it,eci,eold,eci-eold=                    4                   86 -0.83803827780482920      -0.83803827547688559       -2.3279436156542488E-009 F
[...]
    6    3    6    6        0.0000057009
    6    3    7    6       -0.0000091995
    6    3    8    6        0.0000000214
    6    3    9    6       -0.0000000629
    6    3    7    7        0.0000090061
    6    3    8    7        0.0010958787
    6    3    9    7       -0.0033958553
    6    3    8    8        0.0000067948
    6    3    9    8        0.0000005439
    6    3    9    9        0.0000060146
    7    3    7    3        0.0313088712
    7    3    8    3       -0.0000010836
    7    3    9    3        0.0000012627
    7    3    4    4        0.0000823286
    7    3    5    4       -0.0000000340
    7    3    6    4        0.0000000754
    7    3    7    4        0.0417523844
    7    3    8    4       -0.0000063852
    7    3    9    4        0.0000072718
    7    3    5    5       -0.0000403193
    7    3    6    5       -0.0000000000
    7    3    7    5       -0.0000059649
    7    3    8    5       -0.0377588033
    7    3    9    5       -0.0121868262
    7    3    6    6       -0.0000401668
    7    3    7    6        0.0000137599
    7    3    8    6        0.0121881029
    7    3    9    6       -0.0377578661
    7    3    7    7       -0.0001512666
    7    3    8    7       -0.0000000278
    7    3    9    7        0.0000000296
    7    3    8    8       -0.0000132221
    7    3    9    8        0.0000000512
    7    3    9    9       -0.0000133730
    8    3    8    3        0.0125122354
    8    3    9    3       -0.0000000001
    8    3    4    4       -0.0000000001
    8    3    5    4       -0.0000082542
    8    3    6    4        0.0000026665
    8    3    7    4       -0.0000036995
    8    3    8    4        0.0001000892
    8    3    9    4       -0.0000000001
    8    3    5    5        0.0000000156
    8    3    6    5       -0.0000000037
    8    3    7    5       -0.0021270807
    8    3    8    5        0.0000035416
    8    3    9    5        0.0000006280
    8    3    6    6        0.0000000150
    8    3    7    6        0.0006863848
    8    3    8    6       -0.0000008115
    8    3    9    6        0.0000034550
    8    3    7    7        0.0000000160
    8    3    8    7        0.0000019000
    8    3    9    7        0.0000000038
    8    3    8    8        0.0000000109
    8    3    9    8       -0.0000000003
    8    3    9    9        0.0000000105
    9    3    9    3        0.0125090423
    9    3    4    4        0.0000000004
    9    3    5    4       -0.0000026635
    9    3    6    4       -0.0000082580
    9    3    7    4        0.0000042655
    9    3    8    4       -0.0000000012
    9    3    9    4        0.0001004222
    9    3    5    5       -0.0000000136
    9    3    6    5        0.0000000006
    9    3    7    5       -0.0006867704
    9    3    8    5       -0.0000037127
    9    3    9    5       -0.0000015541
    9    3    6    6       -0.0000000209
    9    3    7    6       -0.0021269814
    9    3    8    6        0.0000016130
    9    3    9    6       -0.0000038751
    9    3    7    7       -0.0000000185
    9    3    8    7        0.0000000039
    9    3    9    7        0.0000018905
    9    3    8    8       -0.0000000118
    9    3    9    8        0.0000000003
    9    3    9    9       -0.0000000123
    4    4    4    4        0.2882565321
    4    4    5    4       -0.0000011048
    4    4    6    4        0.0000025427
    4    4    7    4        0.0002166795
    4    4    8    4       -0.0000000304
    4    4    9    4        0.0000000347
    4    4    5    5        0.2779183605
    4    4    6    5        0.0000000163
    4    4    7    5       -0.0000000326
    4    4    8    5       -0.0002159337
    4    4    9    5       -0.0000696991
    4    4    6    6        0.2778957422
    4    4    7    6        0.0000000744
    4    4    8    6        0.0000696877
    4    4    9    6       -0.0002159103
    4    4    7    7        0.2967725834
    4    4    8    7       -0.0000039631
    4    4    9    7        0.0000044843
    4    4    8    8        0.2890792500
    4    4    9    8       -0.0000000005
    4    4    9    9        0.2890598043
    5    4    5    4        0.0113122022
    5    4    6    4        0.0000000018
    5    4    7    4       -0.0000000973
    5    4    8    4       -0.0000115416
    5    4    9    4       -0.0000037268
    5    4    5    5       -0.0000007920
    5    4    6    5       -0.0000002284
    5    4    7    5       -0.0000115538
    5    4    8    5        0.0000000874
    5    4    9    5        0.0000000266
    5    4    6    6       -0.0000011907
    5    4    7    6       -0.0000000001
    5    4    8    6       -0.0000000402
    5    4    9    6        0.0000000757
    5    4    7    7       -0.0000046261
    5    4    8    7       -0.0105506877
    5    4    9    7       -0.0034059004
    5    4    8    8        0.0000018800
    5    4    9    8       -0.0000015775
    5    4    9    9       -0.0000034947
    6    4    6    4        0.0113152609
    6    4    7    4        0.0000002162
    6    4    8    4        0.0000037331
    6    4    9    4       -0.0000115687
    6    4    5    5        0.0000023932
    6    4    6    5       -0.0000000510
    6    4    7    5       -0.0000000000
    6    4    8    5       -0.0000001795
    6    4    9    5       -0.0000000506
    6    4    6    6        0.0000021654
    6    4    7    6       -0.0000114870
    6    4    8    6        0.0000000630
    6    4    9    6       -0.0000001925
    6    4    7    7        0.0000106673
    6    4    8    7        0.0034068580
    6    4    9    7       -0.0105548708
    6    4    8    8        0.0000034317
    6    4    9    8        0.0000026213
    6    4    9    9        0.0000002646
    7    4    7    4        0.1254274807
    7    4    8    4       -0.0000184712
    7    4    9    4        0.0000210199
    7    4    5    5       -0.0001371120
    7    4    6    5       -0.0000000000
    7    4    7    5       -0.0000158376
    7    4    8    5       -0.1054195085
    7    4    9    5       -0.0340255079
    7    4    6    6       -0.0001366224
    7    4    7    6        0.0000365617
    7    4    8    6        0.0340294211
    7    4    9    6       -0.1054246699
    7    4    7    7       -0.0004109738
    7    4    8    7       -0.0000000753
    7    4    9    7        0.0000000803
    7    4    8    8       -0.0000632596
    7    4    9    8        0.0000001393
    7    4    9    9       -0.0000636688
    8    4    8    4        0.0113157244
    8    4    9    4       -0.0000000034
    8    4    5    5        0.0000000287
    8    4    6    5       -0.0000000159
    8    4    7    5       -0.0100747692
    8    4    8    5        0.0000181627
    8    4    9    5        0.0000033951
    8    4    6    6        0.0000000254
    8    4    7    6        0.0032529027
    8    4    8    6       -0.0000053502
    8    4    9    6        0.0000173239
    8    4    7    7        0.0000000464
    8    4    8    7       -0.0000047380
    8    4    9    7        0.0000000129
    8    4    8    8        0.0000000084
    8    4    9    8       -0.0000000007
    8    4    9    9        0.0000000076
    9    4    9    4        0.0113171014
    9    4    5    5       -0.0000000147
    9    4    6    5        0.0000000020
    9    4    7    5       -0.0032524275
    9    4    8    5       -0.0000184308
    9    4    9    5       -0.0000070301
    9    4    6    6       -0.0000000459
    9    4    7    6       -0.0100784393
    9    4    8    6        0.0000078732
    9    4    9    6       -0.0000203580
    9    4    7    7       -0.0000000536
    9    4    8    7        0.0000000129
    9    4    9    7       -0.0000047749
    9    4    8    8       -0.0000000084
    9    4    9    8        0.0000000007
    9    4    9    9       -0.0000000097
    5    5    5    5        0.3131317716
    5    5    6    5       -0.0000010196
    5    5    7    5        0.0000000334
    5    5    8    5        0.0000634390
    5    5    9    5        0.0000204924
    5    5    6    6        0.2894960274
    5    5    7    6       -0.0000000642
    5    5    8    6       -0.0000171565
    5    5    9    6        0.0000532023
    5    5    7    7        0.2873564337
    5    5    8    7        0.0000027495
    5    5    9    7        0.0000007281
    5    5    8    8        0.3217530739
    5    5    9    8        0.0073620495
    5    5    9    9        0.3017548813
    6    5    6    5        0.0123907702
    6    5    7    5       -0.0000000066
    6    5    8    5       -0.0000017524
    6    5    9    5        0.0000054815
    6    5    6    6        0.0000010998
    6    5    7    6        0.0000000035
    6    5    8    6        0.0000054369
    6    5    9    6        0.0000017385
    6    5    7    7        0.0000000194
    6    5    8    7       -0.0000036826
    6    5    9    7        0.0000004605
    6    5    8    8       -0.0073658516
    6    5    9    8        0.0104526727
    6    5    9    9        0.0073652726
    7    5    7    5        0.0109636046
    7    5    8    5        0.0000155125
    7    5    9    5        0.0000050467
    7    5    6    6        0.0000000286
    7    5    7    6       -0.0000000035
    7    5    8    6       -0.0000076824
    7    5    9    6        0.0000133736
    7    5    7    7        0.0000000605
    7    5    8    7        0.0000359543
    7    5    9    7        0.0000116073
    7    5    8    8        0.0000000319
    7    5    9    8       -0.0000000063
    7    5    9    9        0.0000000103
    8    5    8    5        0.1263174028
    8    5    9    5        0.0370701109
    8    5    6    6        0.0000527010
    8    5    7    6       -0.0000334661
    8    5    8    6       -0.0370710332
    8    5    9    6        0.1033864875
    8    5    7    7        0.0003079655
    8    5    8    7        0.0000000850
    8    5    9    7       -0.0000000798
    8    5    8    8       -0.0000219460
    8    5    9    8       -0.0000007786
    8    5    9    9       -0.0000179677
    9    5    9    5        0.0238536315
    9    5    6    6        0.0000169936
    9    5    7    6       -0.0000092887
    9    5    8    6       -0.0000753918
    9    5    9    6        0.0370680257
    9    5    7    7        0.0000994007
    9    5    8    7        0.0000000162
    9    5    9    7       -0.0000000285
    9    5    8    8       -0.0000059587
    9    5    9    8       -0.0000019485
    9    5    9    9       -0.0000069154
    6    6    6    6        0.3130677045
    6    6    7    6       -0.0000000770
    6    6    8    6       -0.0000203645
    6    6    9    6        0.0000630424
    6    6    7    7        0.2873429840
    6    6    8    7        0.0000022601
    6    6    9    7       -0.0000064695
    6    6    8    8        0.3017551053
    6    6    9    8       -0.0073619715
    6    6    9    9        0.3217084203
    7    6    7    6        0.0109702379
    7    6    8    6        0.0000116385
    7    6    9    6       -0.0000359439
    7    6    7    7       -0.0000001401
    7    6    8    7       -0.0000116041
    7    6    9    7        0.0000359536
    7    6    8    8       -0.0000000415
    7    6    9    8        0.0000000113
    7    6    9    9       -0.0000000536
    8    6    8    6        0.0238577707
    8    6    9    6       -0.0370744889
    8    6    7    7       -0.0000994251
    8    6    8    7       -0.0000000290
    8    6    9    7        0.0000000344
    8    6    8    8        0.0000070620
    8    6    9    8       -0.0000018924
    8    6    9    9        0.0000057458
    9    6    9    6        0.1263215415
    9    6    7    7        0.0003080245
    9    6    8    7        0.0000000794
    9    6    9    7       -0.0000000922
    9    6    8    8       -0.0000182996
    9    6    9    8        0.0000004598
    9    6    9    9       -0.0000213569
    7    7    7    7        0.3257339731
    7    7    8    7        0.0000002689
    7    7    9    7       -0.0000003212
    7    7    8    8        0.3091399020
    7    7    9    8       -0.0000000003
    7    7    9    9        0.3091171562
    8    7    8    7        0.0144430973
    8    7    9    7       -0.0000000000
    8    7    8    8        0.0000003697
    8    7    9    8       -0.0000000413
    8    7    9    9        0.0000003468
    9    7    9    7        0.0144450722
    9    7    8    8       -0.0000004006
    9    7    9    8        0.0000000412
    9    7    9    9       -0.0000004405
    8    8    8    8        0.3473775020
    8    8    9    8       -0.0000001620
    8    8    9    9        0.3183313976
    9    8    9    8        0.0151597830
    9    8    9    9        0.0000001628
    9    9    9    9        0.3473225229
 end_two_electron_integrals


 output epsi filename:./pspw_hf_H2.emovecs

 Total PSPW energy     :  -0.8359374050E+00


=== Spin Contamination ===

 <Sexact^2> =    0.0000000000000000     
 <S^2>      =    0.0000000000000000     



== Center of Charge ==

spin up     (    0.0000,    0.0000,    0.0004 )
spin down   (    0.0000,    0.0000,    0.0004 )
     total  (    0.0000,    0.0000,    0.0004 )
ionic       (    0.0000,    0.0000,    0.0000 )


== Molecular Dipole wrt Center of Mass ==

mu   =  (   -0.0000,   -0.0000,   -0.0008 ) au
|mu| =     0.0008 au,       0.0021 Debye

 output psi filename:./pspw_hf_H2.movecs

 Writing Crystallographic Information File:./H2.cif
   - cell not shifted (nwpw:cif_shift_cell .false.)


== Timing ==

cputime in seconds
  prologue    :   0.619128E+01
  main loop   :   0.257592E+03
  epilogue    :   0.161108E-01
  total       :   0.263799E+03
  cputime/step:   0.180134E+01       (     143 evalulations,      60 linesearches)


Time spent doing                        total          step       percent
  total time                 :   0.263810E+03  0.184483E+01       100.0 %
  i/o time                   :   0.214475E+00  0.149983E-02         0.1 %
  FFTs                       :   0.183522E+03  0.128337E+01        69.6 %
  dot products               :   0.603565E+01  0.422074E-01         2.3 %
  geodesic                   :   0.527266E-01  0.368718E-03         0.0 %
  ffm_dgemm                  :   0.706474E-02  0.494038E-04         0.0 %
  fmf_dgemm                  :   0.638137E-02  0.446249E-04         0.0 %
  mmm_dgemm                  :   0.238650E-02  0.166888E-04         0.0 %
  m_diagonalize              :   0.122666E-02  0.857803E-05         0.0 %
  local pseudopotentials     :   0.412606E+01  0.288535E-01         1.6 %
  non-local pseudopotentials :   0.556014E+01  0.388821E-01         2.1 %
  structure factors          :   0.411860E+00  0.288014E-02         0.2 %
  phase factors              :   0.754700E-05  0.527762E-07         0.0 %
  masking and packing        :   0.408214E+01  0.285464E-01         1.5 %
  queue fft                  :   0.546344E+01  0.382059E-01         2.1 %
  queue fft (serial)         :   0.216849E+01  0.151642E-01         0.8 %
  queue fft (message passing):   0.326700E+01  0.228462E-01         1.2 %
  HFX potential              :   0.300495E+01  0.210136E-01         1.1 %
  non-local psp FFM          :   0.521685E+01  0.364815E-01         2.0 %
  non-local psp FMF          :   0.737446E-01  0.515697E-03         0.0 %
  non-local psp FFM A        :   0.298262E-01  0.208575E-03         0.0 %
  non-local psp FFM B        :   0.979515E-01  0.684975E-03         0.0 %

== HFX Counters ==
  HFX Evalulations         =   143
  Lin ACE HFX Evalulations =     0


     >>>  JOB COMPLETED     AT Sat Apr  5 15:36:28 2025  <<<

 Task  times  cpu:      244.8s     wall:      263.8s


                                NWChem Input Module
                                -------------------


 Summary of allocated global arrays
-----------------------------------
  No active global arrays


MA_summarize_allocated_blocks: starting scan ...
MA_summarize_allocated_blocks: scan completed: 0 heap blocks, 0 stack blocks
MA usage statistics:

	allocation statistics:
					      heap	     stack
					      ----	     -----
	current number of blocks	         0	         0
	maximum number of blocks	       313	        36
	current total bytes		         0	         0
	maximum total bytes		  16279984	   5334696
	maximum total K-bytes		     16280	      5335
	maximum total M-bytes		        17	         6


                                     CITATION
                                     --------
                Please cite the following reference when publishing
                           results obtained with NWChem:

          E. Apra, E. J. Bylaska, W. A. de Jong, N. Govind, K. Kowalski,
       T. P. Straatsma, M. Valiev, H. J. J. van Dam, Y. Alexeev, J. Anchell,
       V. Anisimov, F. W. Aquino, R. Atta-Fynn, J. Autschbach, N. P. Bauman,
     J. C. Becca, D. E. Bernholdt, K. Bhaskaran-Nair, S. Bogatko, P. Borowski,
         J. Boschen, J. Brabec, A. Bruner, E. Cauet, Y. Chen, G. N. Chuev,
      C. J. Cramer, J. Daily, M. J. O. Deegan, T. H. Dunning Jr., M. Dupuis,
   K. G. Dyall, G. I. Fann, S. A. Fischer, A. Fonari, H. Fruchtl, L. Gagliardi,
      J. Garza, N. Gawande, S. Ghosh, K. Glaesemann, A. W. Gotz, J. Hammond,
       V. Helms, E. D. Hermes, K. Hirao, S. Hirata, M. Jacquelin, L. Jensen,
   B. G. Johnson, H. Jonsson, R. A. Kendall, M. Klemm, R. Kobayashi, V. Konkov,
      S. Krishnamoorthy, M. Krishnan, Z. Lin, R. D. Lins, R. J. Littlefield,
      A. J. Logsdail, K. Lopata, W. Ma, A. V. Marenich, J. Martin del Campo,
   D. Mejia-Rodriguez, J. E. Moore, J. M. Mullin, T. Nakajima, D. R. Nascimento,
    J. A. Nichols, P. J. Nichols, J. Nieplocha, A. Otero-de-la-Roza, B. Palmer,
    A. Panyala, T. Pirojsirikul, B. Peng, R. Peverati, J. Pittner, L. Pollack,
   R. M. Richard, P. Sadayappan, G. C. Schatz, W. A. Shelton, D. W. Silverstein,
   D. M. A. Smith, T. A. Soares, D. Song, M. Swart, H. L. Taylor, G. S. Thomas,
            V. Tipparaju, D. G. Truhlar, K. Tsemekhman, T. Van Voorhis,
      A. Vazquez-Mayagoitia, P. Verma, O. Villa, A. Vishnu, K. D. Vogiatzis,
        D. Wang, J. H. Weare, M. J. Williamson, T. L. Windus, K. Wolinski,
        A. T. Wong, Q. Wu, C. Yang, Q. Yu, M. Zacharias, Z. Zhang, Y. Zhao,
                                and R. J. Harrison
                        "NWChem: Past, present, and future
                         J. Chem. Phys. 152, 184102 (2020)
                               doi:10.1063/5.0004997

                                      AUTHORS
                                      -------
  E. Apra, E. J. Bylaska, N. Govind, K. Kowalski, M. Valiev, D. Mejia-Rodriguez,
       A. Kunitsa, N. P. Bauman, A. Panyala, W. A. de Jong, T. P. Straatsma,
   H. J. J. van Dam, D. Wang, T. L. Windus, J. Hammond, J. Autschbach, A. Woods,
    K. Bhaskaran-Nair, J. Brabec, K. Lopata, S. A. Fischer, S. Krishnamoorthy,
     M. Jacquelin, W. Ma, M. Klemm, O. Villa, Y. Chen, V. Anisimov, F. Aquino,
     S. Hirata, M. T. Hackler, E. Hermes, L. Jensen, J. E. Moore, J. C. Becca,
      V. Konjkov, T. Risthaus, M. Malagoli, A. Marenich, A. Otero-de-la-Roza,
        J. Mullin, P. Nichols, R. Peverati, J. Pittner, Y. Zhao, P.-D. Fan,
        A. Fonari, M. J. Williamson, R. J. Harrison, J. R. Rehr, M. Dupuis,
     D. Silverstein, D. M. A. Smith, J. Nieplocha, V. Tipparaju, M. Krishnan,
     B. E. Van Kuiken, A. Vazquez-Mayagoitia, M. Swart, Q. Wu, T. Van Voorhis,
     A. A. Auer, M. Nooijen, L. D. Crosby, E. Brown, G. Cisneros, G. I. Fann,
   H. Fruchtl, J. Garza, K. Hirao, R. A. Kendall, J. A. Nichols, K. Tsemekhman,
    K. Wolinski, J. Anchell, D. E. Bernholdt, P. Borowski, T. Clark, D. Clerc,
   H. Dachsel, M. J. O. Deegan, K. Dyall, D. Elwood, E. Glendening, M. Gutowski,
   A. C. Hess, J. Jaffe, B. G. Johnson, J. Ju, R. Kobayashi, R. Kutteh, Z. Lin,
   R. Littlefield, X. Long, B. Meng, T. Nakajima, S. Niu, L. Pollack, M. Rosing,
   K. Glaesemann, G. Sandrone, M. Stave, H. Taylor, G. Thomas, J. H. van Lenthe,
                               A. T. Wong, Z. Zhang.

 Total times  cpu:      244.8s     wall:      263.9s
