 argument  1 = H2-3.5.nw



============================== echo of input deck ==============================
title "swnc: e theory=pspw4 xc=hf formula=H2 charge=0 mult=1"
#machinejob:expert

echo

start pspw_hf_H2

memory heap 1200 mb stack 1200 mb global 10 mb

charge 0

geometry
H    0.00000    0.00000   -1.75000
H    0.00000    0.00000    1.75000
end

nwpw
  ### pseudopotential block begin ###
  ### pseudopotential block end   ###
  simulation_cell
     SC 20.0000
     boundary_conditions aperiodic
  end

  cutoff 50.0
  mult 1
  xc hf
  lmbfgs
  tolerances 1.0e-9 1.0e-9

  virtual 12
end
set nwpw:cif_filename H2

#set nwpw:CI_maxit_orb 15
#set nwpw:CI_maxit_linesearch 15
set pspw:HFX_screening_radius 14.0


set nwpw:2qintegrals .true.
set nwpw:3x3_virtual .true.

task pspw energy
================================================================================


                                         
                                         


             Northwest Computational Chemistry Package (NWChem) 7.2.3
             --------------------------------------------------------


                    Environmental Molecular Sciences Laboratory
                       Pacific Northwest National Laboratory
                                Richland, WA 99352

                              Copyright (c) 1994-2022
                       Pacific Northwest National Laboratory
                            Battelle Memorial Institute

             NWChem is an open-source computational chemistry package
                        distributed under the terms of the
                      Educational Community License (ECL) 2.0
             A copy of the license is included with this distribution
                              in the LICENSE.TXT file

                                  ACKNOWLEDGMENT
                                  --------------

            This software and its documentation were developed at the
            EMSL at Pacific Northwest National Laboratory, a multiprogram
            national laboratory, operated for the U.S. Department of Energy
            by Battelle under Contract Number DE-AC05-76RL01830. Support
            for this work was provided by the Department of Energy Office
            of Biological and Environmental Research, Office of Basic
            Energy Sciences, and the Office of Advanced Scientific Computing.


           Job information
           ---------------

    hostname        = mqs-al
    program         = nwchem
    date            = Tue Apr 22 14:31:10 2025

    compiled        = Thu_Oct_31_08:55:15_2024
    source          = /home/conda/feedstock_root/build_artifacts/nwchem_1730356057992/work
    nwchem branch   = 7.2.3
    nwchem revision = c400b04
    ga revision     = 5.8.0
    use scalapack   = T
    input           = H2-3.5.nw
    prefix          = pspw_hf_H2.
    data base       = ./pspw_hf_H2.db
    status          = startup
    nproc           =       24
    time left       =     -1s



           Memory information
           ------------------

    heap     =  157286398 doubles =   1200.0 Mbytes
    stack    =  157286395 doubles =   1200.0 Mbytes
    global   =    1310720 doubles =     10.0 Mbytes (distinct from heap & stack)
    total    =  315883513 doubles =   2410.0 Mbytes
    verify   = yes
    hardfail = no 


           Directory information
           ---------------------

  0 permanent = .
  0 scratch   = .




                                NWChem Input Module
                                -------------------


               swnc: e theory=pspw4 xc=hf formula=H2 charge=0 mult=1
               -----------------------------------------------------

 Scaling coordinates for geometry "geometry" by  1.889725989
 (inverse scale =  0.529177249)

  zeroes
  zeroes
  zeroes
  zeroes
  zeroes
  zeroes
  zeroes
  zeroes
  zeroes
  zeroes
  zeroes
  zeroes
  zeroes
  zeroes
  zeroes
  zeroes
  zeroes
  zeroes
  zeroes
  zeroes
  zeroes
  zeroes
  zeroes
  zeroes
  zeroes
  zeroes
  zeroes
  zeroes
  zeroes
  zeroes
  zeroes
  zeroes
  zeroes
  zeroes
  zeroes
  zeroes
  zeroes
  zeroes
  zeroes
  zeroes
  zeroes
  zeroes
  zeroes
  zeroes
  zeroes
  zeroes
  zeroes
  zeroes
 ORDER OF PRIMARY AXIS IS BEING SET TO 4
 D4H symmetry detected

          ------
          auto-z
          ------
     1 autoz failed with cvr_scaling = 1.2 changing to 1.3
     2 autoz failed with cvr_scaling = 1.3 changing to 1.4
     3 autoz failed with cvr_scaling = 1.4 changing to 1.5
     4 autoz failed with cvr_scaling = 1.5 changing to 1.6
     5 autoz failed with cvr_scaling = 1.6 changing to 1.7

 AUTOZ failed to generate good internal coordinates.
 Cartesian coordinates will be used in optimizations.



                             Geometry "geometry" -> ""
                             -------------------------

 Output coordinates in angstroms (scale by  1.889725989 to convert to a.u.)

  No.       Tag          Charge          X              Y              Z
 ---- ---------------- ---------- -------------- -------------- --------------
    1 H                    1.0000     0.00000000     0.00000000    -1.75000000
    2 H                    1.0000     0.00000000     0.00000000     1.75000000

      Atomic Mass 
      ----------- 

      H                  1.007825


 Effective nuclear repulsion energy (a.u.)       0.1511934997

            Nuclear Dipole moment (a.u.) 
            ----------------------------
        X                 Y               Z
 ---------------- ---------------- ----------------
     0.0000000000     0.0000000000     0.0000000000

      Symmetry information
      --------------------

 Group name             D4h       
 Group number             28
 Group order              16
 No. of unique centers     1

      Symmetry unique atoms

     1


            XYZ format geometry
            -------------------
     2
 geometry
 H                     0.00000000     0.00000000    -1.75000000
 H                     0.00000000     0.00000000     1.75000000

          ****************************************************
          *                                                  *
          *               NWPW PSPW Calculation              *
          *                                                  *
          * [ (Grassmann/Stiefel manifold implementation)  ] *
          *                                                  *
          *      [ NorthWest Chemistry implementation ]      *
          *                                                  *
          *            version #5.10   06/12/02              *
          *                                                  *
          *    This code was developed by Eric J. Bylaska,   *
          *    and was based upon algorithms and code        *
          *    developed by the group of Prof. John H. Weare *
          *                                                  *
          ****************************************************
     >>>  JOB STARTED       AT Tue Apr 22 14:31:10 2025  <<<
          ================ input data ========================

 input psi filename:./pspw_hf_H2.movecs

 number of processors used:        24
 processor grid           :  24 x   1
 parallel mapping         :2d-hilbert
 parallel mapping         :  balanced
 number of threads        :         1
 parallel io              :       off

 options:
      boundary conditions  = aperiodic   (version4)
      electron spin        = restricted
      exchange-correlation = Hartree-Fock
      - HFX relaxed
      - HFX restricted orbitals :    1
      - HFX free-space coulomb solver


 elements involved in the cluster:
      1: H   valence charge:  1.0000  lmax=  1
             comment    : Parameterized (Chem.Phys.Lett., vol 322, page 447) Hamman psp
             pseudpotential type            :   0
             highest angular component      :   1
             local potential used           :   1
             number of non-local projections:   1
             aperiodic cutoff radius        :  1.000
             cutoff =   0.800   0.800


 total charge:   0.000

 atomic composition:
     H   :    2

 number of electrons: spin up=     1 (   1 per task)  down=     1 (   1 per task) (Fourier space)
 number of orbitals : spin up=     1 (   1 per task)  down=     1 (   1 per task) (Fourier space)

 supercell:
      cell_name:  cell_default                                      
      lattice:    a1=<  20.000   0.000   0.000 >
                  a2=<   0.000  20.000   0.000 >
                  a3=<   0.000   0.000  20.000 >
      reciprocal: b1=<   0.314   0.000   0.000 >
                  b2=<   0.000   0.314   0.000 >
                  b3=<   0.000   0.000   0.314 >
      lattice:    a=      20.000 b=     20.000 c=      20.000
                  alpha=  90.000 beta=  90.000 gamma=  90.000
                  omega=      8000.0

      density cutoff=100.000  fft= 96x 96x 96(   191162 waves     7965 per task)
      wavefnc cutoff= 50.000  fft= 96x 96x 96(    67522 waves     2813 per task)

 technical parameters:
      time step=      5.80     fictitious mass=  400000.0
      tolerance=0.100E-08 (energy)   0.100E-08 (density)
      maximum iterations =      1000 (   10 inner    100 outer )





== Energy Calculation ==


          ============ Grassmann lmbfgs iteration ============
     >>>  ITERATION STARTED AT Tue Apr 22 14:31:17 2025  <<<
    iter.           Energy         DeltaE       DeltaRho 
    ------------------------------------------------------
      10   -0.8039934855E+00   -0.15897E-02    0.71658E-02
     -  10 steepest descent iterations performed
      20   -0.8088773733E+00   -0.11829E-03    0.74106E-04
      30   -0.8090849093E+00   -0.51447E-05    0.51501E-05
      40   -0.8091017236E+00   -0.26664E-06    0.85637E-07
      50   -0.8091026312E+00   -0.16484E-07    0.14448E-08
      60   -0.8091026778E+00   -0.10266E-08    0.12983E-09
      70   -0.8091026796E+00   -0.79106E-09    0.27120E-11
  *** tolerance ok. iteration terminated
     >>>  ITERATION ENDED   AT Tue Apr 22 14:31:38 2025  <<<


==  Summary Of Results  ==

 number of electrons: spin up=    1.00000  down=    1.00000 (real space)

 total     energy    :  -0.8091026796E+00 (   -0.40455E+00/ion)
 total orbital energy:  -0.6309608172E+00 (   -0.63096E+00/electron)
 hartree   energy    :   0.6586707242E+00 (    0.65867E+00/electron)
 exc-corr  energy    :   0.0000000000E+00 (    0.00000E+00/electron)
 HF exchange energy  :  -0.3293353621E+00 (   -0.32934E+00/electron)
 ion-ion   energy    :   0.1511934997E+00 (    0.75597E-01/ion)

 kinetic (planewave) :   0.6335159152E+00 (    0.63352E+00/electron)
 V_local (planewave) :  -0.1774352861E+01 (   -0.17744E+01/electron)
 V_nl    (planewave) :  -0.1487945953E+00 (   -0.14879E+00/electron)
 V_Coul  (planewave) :   0.1317341448E+01 (    0.13173E+01/electron)
 V_xc.   (planewave) :   0.0000000000E+00 (    0.00000E+00/electron)
 K.S. HFX energy     :  -0.6586707242E+00 (   -0.65867E+00/electron)
 Virial Coefficient  :  -0.9562601249E+00

 orbital energies:
    -0.3154804E+00 (  -8.585eV)


== Virtual Orbital Calculation ==


 input epsi filename:./pspw_hf_H2.emovecs

 COVOs Mimimization
 ------------------
CI gradient algorithm =         3
maxit_sweeps          =         3
maxit_orb             =       120
maxit_linesearch      =        15
maxerror              = 0.100E-08

     orb,it,eci,eold,eci-eold=                    1                    1 -0.92031471002876697      -0.91839358784742842       -1.9211221813385526E-003 F
     orb,it,eci,eold,eci-eold=                    1                    2 -0.92064342913962538      -0.92031471002876697       -3.2871911085841088E-004 F
     orb,it,eci,eold,eci-eold=                    1                    3 -0.93548816548706815      -0.92064342913962538       -1.4844736347442766E-002 F
     orb,it,eci,eold,eci-eold=                    1                    4 -0.93620525078260608      -0.93548816548706815       -7.1708529553793365E-004 F
     orb,it,eci,eold,eci-eold=                    1                    5 -0.93830930176434613      -0.93620525078260608       -2.1040509817400466E-003 F
     orb,it,eci,eold,eci-eold=                    1                    6 -0.94295640090566657      -0.93830930176434613       -4.6470991413204432E-003 F
     orb,it,eci,eold,eci-eold=                    1                    7 -0.94726253908071301      -0.94295640090566657       -4.3061381750464367E-003 F
     orb,it,eci,eold,eci-eold=                    1                    8 -0.94874280067049388      -0.94726253908071301       -1.4802615897808735E-003 F
     orb,it,eci,eold,eci-eold=                    1                    9 -0.94948118219594202      -0.94874280067049388       -7.3838152544813962E-004 F
     orb,it,eci,eold,eci-eold=                    1                   10 -0.95552738789429337      -0.94948118219594202       -6.0462056983513479E-003 F
     orb,it,eci,eold,eci-eold=                    1                   11 -0.95647435784922441      -0.95552738789429337       -9.4696995493104286E-004 F
     orb,it,eci,eold,eci-eold=                    1                   12 -0.95661126588800061      -0.95647435784922441       -1.3690803877619562E-004 F
     orb,it,eci,eold,eci-eold=                    1                   13 -0.95997686229785928      -0.95661126588800061       -3.3655964098586733E-003 F
     orb,it,eci,eold,eci-eold=                    1                   14 -0.96021211018250208      -0.95997686229785928       -2.3524788464279744E-004 F
     orb,it,eci,eold,eci-eold=                    1                   15 -0.96053830702523424      -0.96021211018250208       -3.2619684273216265E-004 F
     orb,it,eci,eold,eci-eold=                    1                   16 -0.96337643297693987      -0.96053830702523424       -2.8381259517056279E-003 F
     orb,it,eci,eold,eci-eold=                    1                   17 -0.96345515174341290      -0.96337643297693987       -7.8718766473029333E-005 F
     orb,it,eci,eold,eci-eold=                    1                   18 -0.96346115436562596      -0.96345515174341290       -6.0026222130638018E-006 F
     orb,it,eci,eold,eci-eold=                    1                   19 -0.96584929061189162      -0.96346115436562596       -2.3881362462656597E-003 F
     orb,it,eci,eold,eci-eold=                    1                   20 -0.96670475415530110      -0.96584929061189162       -8.5546354340948483E-004 F
     orb,it,eci,eold,eci-eold=                    1                   21 -0.96678142658494337      -0.96670475415530110       -7.6672429642266060E-005 F
     orb,it,eci,eold,eci-eold=                    1                   22 -0.96859737999312212      -0.96678142658494337       -1.8159534081787498E-003 F
     orb,it,eci,eold,eci-eold=                    1                   23 -0.96936327561313562      -0.96859737999312212       -7.6589562001350142E-004 F
     orb,it,eci,eold,eci-eold=                    1                   24 -0.96938186297694795      -0.96936327561313562       -1.8587363812327951E-005 F
     orb,it,eci,eold,eci-eold=                    1                   25 -0.97065571079459090      -0.96938186297694795       -1.2738478176429480E-003 F
     orb,it,eci,eold,eci-eold=                    1                   26 -0.97147384757386013      -0.97065571079459090       -8.1813677926922956E-004 F
     orb,it,eci,eold,eci-eold=                    1                   27 -0.97179169661521636      -0.97147384757386013       -3.1784904135623293E-004 F
     orb,it,eci,eold,eci-eold=                    1                   28 -0.97286337461870398      -0.97179169661521636       -1.0716780034876194E-003 F
     orb,it,eci,eold,eci-eold=                    1                   29 -0.97291092229417653      -0.97286337461870398       -4.7547675472547901E-005 F
     orb,it,eci,eold,eci-eold=                    1                   30 -0.97300833878246840      -0.97291092229417653       -9.7416488291868220E-005 F
     orb,it,eci,eold,eci-eold=                    1                   31 -0.97412070538445406      -0.97300833878246840       -1.1123666019856593E-003 F
     orb,it,eci,eold,eci-eold=                    1                   32 -0.97474531779741036      -0.97412070538445406       -6.2461241295630465E-004 F
     orb,it,eci,eold,eci-eold=                    1                   33 -0.97529662376983961      -0.97474531779741036       -5.5130597242925017E-004 F
     orb,it,eci,eold,eci-eold=                    1                   34 -0.97555455331583618      -0.97529662376983961       -2.5792954599657136E-004 F
     orb,it,eci,eold,eci-eold=                    1                   35 -0.97602651986785072      -0.97555455331583618       -4.7196655201453552E-004 F
     orb,it,eci,eold,eci-eold=                    1                   36 -0.97631956856726998      -0.97602651986785072       -2.9304869941926270E-004 F
     orb,it,eci,eold,eci-eold=                    1                   37 -0.97670885436755139      -0.97631956856726998       -3.8928580028141369E-004 F
     orb,it,eci,eold,eci-eold=                    1                   38 -0.97691661873866398      -0.97670885436755139       -2.0776437111258428E-004 F
     orb,it,eci,eold,eci-eold=                    1                   39 -0.97718620295450509      -0.97691661873866398       -2.6958421584111214E-004 F
     orb,it,eci,eold,eci-eold=                    1                   40 -0.97733385938746620      -0.97718620295450509       -1.4765643296110742E-004 F
     orb,it,eci,eold,eci-eold=                    1                   41 -0.97757116905367014      -0.97733385938746620       -2.3730966620394423E-004 F
     orb,it,eci,eold,eci-eold=                    1                   42 -0.97770066508647069      -0.97757116905367014       -1.2949603280054678E-004 F
     orb,it,eci,eold,eci-eold=                    1                   43 -0.97784994569160166      -0.97770066508647069       -1.4928060513097474E-004 F
     orb,it,eci,eold,eci-eold=                    1                   44 -0.97793361097965104      -0.97784994569160166       -8.3665288049372677E-005 F
     orb,it,eci,eold,eci-eold=                    1                   45 -0.97807753243696738      -0.97793361097965104       -1.4392145731634276E-004 F
     orb,it,eci,eold,eci-eold=                    1                   46 -0.97815823275682057      -0.97807753243696738       -8.0700319853188596E-005 F
     orb,it,eci,eold,eci-eold=                    1                   47 -0.97824707071941286      -0.97815823275682057       -8.8837962592291930E-005 F
     orb,it,eci,eold,eci-eold=                    1                   48 -0.97829149403095839      -0.97824707071941286       -4.4423311545527255E-005 F
     orb,it,eci,eold,eci-eold=                    1                   49 -0.97837014941223088      -0.97829149403095839       -7.8655381272496605E-005 F
     orb,it,eci,eold,eci-eold=                    1                   50 -0.97841813143701817      -0.97837014941223088       -4.7982024787285305E-005 F
     orb,it,eci,eold,eci-eold=                    1                   51 -0.97847195140649212      -0.97841813143701817       -5.3819969473956064E-005 F
     orb,it,eci,eold,eci-eold=                    1                   52 -0.97849775993434618      -0.97847195140649212       -2.5808527854054297E-005 F
     orb,it,eci,eold,eci-eold=                    1                   53 -0.97853932194454241      -0.97849775993434618       -4.1562010196227739E-005 F
     orb,it,eci,eold,eci-eold=                    1                   54 -0.97856355067895029      -0.97853932194454241       -2.4228734407882868E-005 F
     orb,it,eci,eold,eci-eold=                    1                   55 -0.97859591745592689      -0.97856355067895029       -3.2366776976600065E-005 F
     orb,it,eci,eold,eci-eold=                    1                   56 -0.97861384254031969      -0.97859591745592689       -1.7925084392800272E-005 F
     orb,it,eci,eold,eci-eold=                    1                   57 -0.97863780429250136      -0.97861384254031969       -2.3961752181667073E-005 F
     orb,it,eci,eold,eci-eold=                    1                   58 -0.97865058912571279      -0.97863780429250136       -1.2784833211432201E-005 F
     orb,it,eci,eold,eci-eold=                    1                   59 -0.97867023358852789      -0.97865058912571279       -1.9644462815104902E-005 F
     orb,it,eci,eold,eci-eold=                    1                   60 -0.97868174459761836      -0.97867023358852789       -1.1511009090470203E-005 F
     orb,it,eci,eold,eci-eold=                    1                   61 -0.97869637894258421      -0.97868174459761836       -1.4634344965847035E-005 F
     orb,it,eci,eold,eci-eold=                    1                   62 -0.97870378125705948      -0.97869637894258421       -7.4023144752688452E-006 F
     orb,it,eci,eold,eci-eold=                    1                   63 -0.97871489194115557      -0.97870378125705948       -1.1110684096093948E-005 F
     orb,it,eci,eold,eci-eold=                    1                   64 -0.97872118595578983      -0.97871489194115557       -6.2940146342560510E-006 F
     orb,it,eci,eold,eci-eold=                    1                   65 -0.97872862414765738      -0.97872118595578983       -7.4381918675481273E-006 F
     orb,it,eci,eold,eci-eold=                    1                   66 -0.97873241716805559      -0.97872862414765738       -3.7930203982128319E-006 F
     orb,it,eci,eold,eci-eold=                    1                   67 -0.97873890990613066      -0.97873241716805559       -6.4927380750701147E-006 F
     orb,it,eci,eold,eci-eold=                    1                   68 -0.97874283123675276      -0.97873890990613066       -3.9213306221030919E-006 F
     orb,it,eci,eold,eci-eold=                    1                   69 -0.97874731152611238      -0.97874283123675276       -4.4802893596207483E-006 F
     orb,it,eci,eold,eci-eold=                    1                   70 -0.97874948914655502      -0.97874731152611238       -2.1776204426338097E-006 F
     orb,it,eci,eold,eci-eold=                    1                   71 -0.97875309780459840      -0.97874948914655502       -3.6086580433858373E-006 F
     orb,it,eci,eold,eci-eold=                    1                   72 -0.97875529952886886      -0.97875309780459840       -2.2017242704563955E-006 F
     orb,it,eci,eold,eci-eold=                    1                   73 -0.97875805688062201      -0.97875529952886886       -2.7573517531465086E-006 F
     orb,it,eci,eold,eci-eold=                    1                   74 -0.97875944696488182      -0.97875805688062201       -1.3900842598113528E-006 F
     orb,it,eci,eold,eci-eold=                    1                   75 -0.97876153024044155      -0.97875944696488182       -2.0832755597277597E-006 F
     orb,it,eci,eold,eci-eold=                    1                   76 -0.97876272120082342      -0.97876153024044155       -1.1909603818693881E-006 F
     orb,it,eci,eold,eci-eold=                    1                   77 -0.97876429138407806      -0.97876272120082342       -1.5701832546399785E-006 F
     orb,it,eci,eold,eci-eold=                    1                   78 -0.97876514551894389      -0.97876429138407806       -8.5413486583529874E-007 F
     orb,it,eci,eold,eci-eold=                    1                   79 -0.97876636611914236      -0.97876514551894389       -1.2206001984704784E-006 F
     orb,it,eci,eold,eci-eold=                    1                   80 -0.97876702889412404      -0.97876636611914236       -6.6277498167455207E-007 F
     orb,it,eci,eold,eci-eold=                    1                   81 -0.97876797048989017      -0.97876702889412404       -9.4159576613517260E-007 F
     orb,it,eci,eold,eci-eold=                    1                   82 -0.97876850378440183      -0.97876797048989017       -5.3329451166206354E-007 F
     orb,it,eci,eold,eci-eold=                    1                   83 -0.97876919730696388      -0.97876850378440183       -6.9352256204524565E-007 F
     orb,it,eci,eold,eci-eold=                    1                   84 -0.97876955474766936      -0.97876919730696388       -3.5744070547849560E-007 F
     orb,it,eci,eold,eci-eold=                    1                   85 -0.97877009055603370      -0.97876955474766936       -5.3580836434363732E-007 F
     orb,it,eci,eold,eci-eold=                    1                   86 -0.97877040580528829      -0.97877009055603370       -3.1524925458992215E-007 F
     orb,it,eci,eold,eci-eold=                    1                   87 -0.97877082028271756      -0.97877040580528829       -4.1447742926692399E-007 F
     orb,it,eci,eold,eci-eold=                    1                   88 -0.97877103539323673      -0.97877082028271756       -2.1511051917499913E-007 F
     orb,it,eci,eold,eci-eold=                    1                   89 -0.97877136455989067      -0.97877103539323673       -3.2916665393400990E-007 F
     orb,it,eci,eold,eci-eold=                    1                   90 -0.97877156111781705      -0.97877136455989067       -1.9655792637962577E-007 F
     orb,it,eci,eold,eci-eold=                    1                   91 -0.97877180754383541      -0.97877156111781705       -2.4642601836877276E-007 F
     orb,it,eci,eold,eci-eold=                    1                   92 -0.97877192606771568      -0.97877180754383541       -1.1852388026589722E-007 F
     orb,it,eci,eold,eci-eold=                    1                   93 -0.97877210177020690      -0.97877192606771568       -1.7570249122300652E-007 F
     orb,it,eci,eold,eci-eold=                    1                   94 -0.97877220276758337      -0.97877210177020690       -1.0099737646207529E-007 F
     orb,it,eci,eold,eci-eold=                    1                   95 -0.97877232966715078      -0.97877220276758337       -1.2689956740974395E-007 F
     orb,it,eci,eold,eci-eold=                    1                   96 -0.97877239593644072      -0.97877232966715078       -6.6269289944465015E-008 F
     orb,it,eci,eold,eci-eold=                    1                   97 -0.97877249547415213      -0.97877239593644072       -9.9537711406583185E-008 F
     orb,it,eci,eold,eci-eold=                    1                   98 -0.97877255223529303      -0.97877249547415213       -5.6761140898586859E-008 F
     orb,it,eci,eold,eci-eold=                    1                   99 -0.97877262465902659      -0.97877255223529303       -7.2423733565862847E-008 F
     orb,it,eci,eold,eci-eold=                    1                  100 -0.97877266348246938      -0.97877262465902659       -3.8823442793933793E-008 F
     orb,it,eci,eold,eci-eold=                    1                  101 -0.97877272378181168      -0.97877266348246938       -6.0299342297120972E-008 F
     orb,it,eci,eold,eci-eold=                    1                  102 -0.97877275861209578      -0.97877272378181168       -3.4830284101339259E-008 F
     orb,it,eci,eold,eci-eold=                    1                  103 -0.97877280264876731      -0.97877275861209578       -4.4036671531522131E-008 F
     orb,it,eci,eold,eci-eold=                    1                  104 -0.97877282591735459      -0.97877280264876731       -2.3268587279190456E-008 F
     orb,it,eci,eold,eci-eold=                    1                  105 -0.97877286144968056      -0.97877282591735459       -3.5532325970422107E-008 F
     orb,it,eci,eold,eci-eold=                    1                  106 -0.97877288156666975      -0.97877286144968056       -2.0116989185581247E-008 F
     orb,it,eci,eold,eci-eold=                    1                  107 -0.97877290820898588      -0.97877288156666975       -2.6642316131031407E-008 F
     orb,it,eci,eold,eci-eold=                    1                  108 -0.97877292273998506      -0.97877290820898588       -1.4530999181694426E-008 F
     orb,it,eci,eold,eci-eold=                    1                  109 -0.97877294367497691      -0.97877292273998506       -2.0934991851184748E-008 F
     orb,it,eci,eold,eci-eold=                    1                  110 -0.97877295512338769      -0.97877294367497691       -1.1448410774939077E-008 F
     orb,it,eci,eold,eci-eold=                    1                  111 -0.97877297088014226      -0.97877295512338769       -1.5756754567775033E-008 F
     orb,it,eci,eold,eci-eold=                    1                  112 -0.97877297950226061      -0.97877297088014226       -8.6221183526191680E-009 F
     orb,it,eci,eold,eci-eold=                    1                  113 -0.97877299091234293      -0.97877297950226061       -1.1410082323415338E-008 F
     orb,it,eci,eold,eci-eold=                    1                  114 -0.97877299686692365      -0.97877299091234293       -5.9545807173932985E-009 F
     orb,it,eci,eold,eci-eold=                    1                  115 -0.97877300573735093      -0.97877299686692365       -8.8704272815931517E-009 F
     orb,it,eci,eold,eci-eold=                    1                  116 -0.97877300573735093      -0.97877300573735093        0.0000000000000000      F
     orbital   1 current e= -0.136396E+00 error=0.843E-01 (eci= -0.978773006E+00 error=0.000E+00) iterations 116(   0 preconditioned, Ep,Sp= 20.0  200.0)
     orb,it,eci,eold,eci-eold=                    1                    1 -0.97877302835767721      -0.97877300501678766       -2.3340889554468447E-008 F
     orb,it,eci,eold,eci-eold=                    1                    2 -0.97877303286156192      -0.97877302835767721       -4.5038847096279255E-009 F
     orb,it,eci,eold,eci-eold=                    1                    3 -0.97877303431560780      -0.97877303286156192       -1.4540458836975745E-009 F
     orb,it,eci,eold,eci-eold=                    1                    4 -0.97877304016669819      -0.97877303431560780       -5.8510903899744449E-009 F
     orb,it,eci,eold,eci-eold=                    1                    5 -0.97877304437807011      -0.97877304016669819       -4.2113719178615838E-009 F
     orb,it,eci,eold,eci-eold=                    1                    6 -0.97877304682690713      -0.97877304437807011       -2.4488370220510092E-009 F
     orb,it,eci,eold,eci-eold=                    1                    7 -0.97877304722199254      -0.97877304682690713       -3.9508540883304022E-010 F
     orbital   1 current e= -0.136395E+00 error=0.423E-06 (eci= -0.978773047E+00 error=0.395E-09) iterations   7(   0 preconditioned, Ep,Sp= 20.0  200.0)
     orb,it,eci,eold,eci-eold=                    1                    1 -0.97877304924880537      -0.97877304722199254       -2.0268128286815568E-009 F
     orb,it,eci,eold,eci-eold=                    1                    2 -0.97877304979329938      -0.97877304924880537       -5.4449400543887805E-010 F
     orbital   1 current e= -0.136395E+00 error=0.758E-07 (eci= -0.978773050E+00 error=0.544E-09) iterations   2(   0 preconditioned, Ep,Sp= 20.0  200.0)
     orb,it,eci,eold,eci-eold=                    2                    1 -0.81270691749700386      -0.81216310132478275       -5.4381617222110101E-004 F
     orb,it,eci,eold,eci-eold=                    2                    2 -0.81273490752362387      -0.81270691749700386       -2.7990026620017261E-005 F
     orb,it,eci,eold,eci-eold=                    2                    3 -0.81277231157321284      -0.81273490752362387       -3.7404049588962707E-005 F
     orb,it,eci,eold,eci-eold=                    2                    4 -0.81287773213007875      -0.81277231157321284       -1.0542055686590945E-004 F
     orb,it,eci,eold,eci-eold=                    2                    5 -0.81293864700108931      -0.81287773213007875       -6.0914871010564475E-005 F
     orb,it,eci,eold,eci-eold=                    2                    6 -0.81303522524706451      -0.81293864700108931       -9.6578245975198485E-005 F
     orb,it,eci,eold,eci-eold=                    2                    7 -0.81309950182733370      -0.81303522524706451       -6.4276580269195804E-005 F
     orb,it,eci,eold,eci-eold=                    2                    8 -0.81314372265098145      -0.81309950182733370       -4.4220823647744822E-005 F
     orb,it,eci,eold,eci-eold=                    2                    9 -0.81316427616126152      -0.81314372265098145       -2.0553510280074683E-005 F
     orb,it,eci,eold,eci-eold=                    2                   10 -0.81319316995617674      -0.81316427616126152       -2.8893794915219040E-005 F
     orb,it,eci,eold,eci-eold=                    2                   11 -0.81320485679515420      -0.81319316995617674       -1.1686838977453817E-005 F
     orb,it,eci,eold,eci-eold=                    2                   12 -0.81320604119149520      -0.81320485679515420       -1.1843963410029801E-006 F
     orb,it,eci,eold,eci-eold=                    2                   13 -0.81324130395041849      -0.81320604119149520       -3.5262758923293447E-005 F
     orb,it,eci,eold,eci-eold=                    2                   14 -0.81324217567840296      -0.81324130395041849       -8.7172798446388811E-007 F
     orb,it,eci,eold,eci-eold=                    2                   15 -0.81324534605893373      -0.81324217567840296       -3.1703805307703448E-006 F
     orb,it,eci,eold,eci-eold=                    2                   16 -0.81327017843474858      -0.81324534605893373       -2.4832375814853869E-005 F
     orb,it,eci,eold,eci-eold=                    2                   17 -0.81328801722031163      -0.81327017843474858       -1.7838785563051296E-005 F
     orb,it,eci,eold,eci-eold=                    2                   18 -0.81329063932870849      -0.81328801722031163       -2.6221083968547276E-006 F
     orb,it,eci,eold,eci-eold=                    2                   19 -0.81330342732116245      -0.81329063932870849       -1.2787992453966446E-005 F
     orb,it,eci,eold,eci-eold=                    2                   20 -0.81332394988281331      -0.81330342732116245       -2.0522561650859750E-005 F
     orb,it,eci,eold,eci-eold=                    2                   21 -0.81333464696073610      -0.81332394988281331       -1.0697077922783294E-005 F
     orb,it,eci,eold,eci-eold=                    2                   22 -0.81335579925526136      -0.81333464696073610       -2.1152294525261794E-005 F
     orb,it,eci,eold,eci-eold=                    2                   23 -0.81336253088430455      -0.81335579925526136       -6.7316290431884696E-006 F
     orb,it,eci,eold,eci-eold=                    2                   24 -0.81336714430489288      -0.81336253088430455       -4.6134205883285873E-006 F
     orb,it,eci,eold,eci-eold=                    2                   25 -0.81338157638276021      -0.81336714430489288       -1.4432077867332360E-005 F
     orb,it,eci,eold,eci-eold=                    2                   26 -0.81338320852480284      -0.81338157638276021       -1.6321420426290700E-006 F
     orb,it,eci,eold,eci-eold=                    2                   27 -0.81338495358849161      -0.81338320852480284       -1.7450636887739179E-006 F
     orb,it,eci,eold,eci-eold=                    2                   28 -0.81339817198524855      -0.81338495358849161       -1.3218396756942141E-005 F
     orb,it,eci,eold,eci-eold=                    2                   29 -0.81340288335492161      -0.81339817198524855       -4.7113696730605170E-006 F
     orb,it,eci,eold,eci-eold=                    2                   30 -0.81340408758637683      -0.81340288335492161       -1.2042314552207500E-006 F
     orb,it,eci,eold,eci-eold=                    2                   31 -0.81341408478090638      -0.81340408758637683       -9.9971945295429521E-006 F
     orb,it,eci,eold,eci-eold=                    2                   32 -0.81341717242550415      -0.81341408478090638       -3.0876445977767730E-006 F
     orb,it,eci,eold,eci-eold=                    2                   33 -0.81341778913394103      -0.81341717242550415       -6.1670843687355870E-007 F
     orb,it,eci,eold,eci-eold=                    2                   34 -0.81342597370559622      -0.81341778913394103       -8.1845716551898207E-006 F
     orb,it,eci,eold,eci-eold=                    2                   35 -0.81343087664916780      -0.81342597370559622       -4.9029435715830516E-006 F
     orb,it,eci,eold,eci-eold=                    2                   36 -0.81343274823206047      -0.81343087664916780       -1.8715828926652023E-006 F
     orb,it,eci,eold,eci-eold=                    2                   37 -0.81343878083279297      -0.81343274823206047       -6.0326007325084419E-006 F
     orb,it,eci,eold,eci-eold=                    2                   38 -0.81344286251931108      -0.81343878083279297       -4.0816865181092510E-006 F
     orb,it,eci,eold,eci-eold=                    2                   39 -0.81344763537912879      -0.81344286251931108       -4.7728598177032566E-006 F
     orb,it,eci,eold,eci-eold=                    2                   40 -0.81344868401555814      -0.81344763537912879       -1.0486364293571526E-006 F
     orb,it,eci,eold,eci-eold=                    2                   41 -0.81345032559284070      -0.81344868401555814       -1.6415772825517649E-006 F
     orb,it,eci,eold,eci-eold=                    2                   42 -0.81345414098177604      -0.81345032559284070       -3.8153889353464976E-006 F
     orb,it,eci,eold,eci-eold=                    2                   43 -0.81345636444069003      -0.81345414098177604       -2.2234589139857874E-006 F
     orb,it,eci,eold,eci-eold=                    2                   44 -0.81345915752349696      -0.81345636444069003       -2.7930828069289149E-006 F
     orb,it,eci,eold,eci-eold=                    2                   45 -0.81345929598432898      -0.81345915752349696       -1.3846083202206927E-007 F
     orb,it,eci,eold,eci-eold=                    2                   46 -0.81345993887703250      -0.81345929598432898       -6.4289270351736150E-007 F
     orb,it,eci,eold,eci-eold=                    2                   47 -0.81346267560128072      -0.81345993887703250       -2.7367242482201348E-006 F
     orb,it,eci,eold,eci-eold=                    2                   48 -0.81346273820555082      -0.81346267560128072       -6.2604270101296322E-008 F
     orb,it,eci,eold,eci-eold=                    2                   49 -0.81346279584272940      -0.81346273820555082       -5.7637178585423499E-008 F
     orb,it,eci,eold,eci-eold=                    2                   50 -0.81346478641780195      -0.81346279584272940       -1.9905750725524030E-006 F
     orb,it,eci,eold,eci-eold=                    2                   51 -0.81346573340781436      -0.81346478641780195       -9.4699001240705627E-007 F
     orb,it,eci,eold,eci-eold=                    2                   52 -0.81346716743550274      -0.81346573340781436       -1.4340276883739733E-006 F
     orb,it,eci,eold,eci-eold=                    2                   53 -0.81346803081275199      -0.81346716743550274       -8.6337724924945292E-007 F
     orb,it,eci,eold,eci-eold=                    2                   54 -0.81346935040127721      -0.81346803081275199       -1.3195885252281769E-006 F
     orb,it,eci,eold,eci-eold=                    2                   55 -0.81346941975248077      -0.81346935040127721       -6.9351203557665997E-008 F
     orb,it,eci,eold,eci-eold=                    2                   56 -0.81346961682859664      -0.81346941975248077       -1.9707611587094220E-007 F
     orb,it,eci,eold,eci-eold=                    2                   57 -0.81347077970944992      -0.81346961682859664       -1.1628808532782031E-006 F
     orb,it,eci,eold,eci-eold=                    2                   58 -0.81347126006663972      -0.81347077970944992       -4.8035718980266040E-007 F
     orb,it,eci,eold,eci-eold=                    2                   59 -0.81347139331678830      -0.81347126006663972       -1.3325014858178719E-007 F
     orb,it,eci,eold,eci-eold=                    2                   60 -0.81347224124384043      -0.81347139331678830       -8.4792705212777264E-007 F
     orb,it,eci,eold,eci-eold=                    2                   61 -0.81347260604856508      -0.81347224124384043       -3.6480472465072467E-007 F
     orb,it,eci,eold,eci-eold=                    2                   62 -0.81347271309429436      -0.81347260604856508       -1.0704572928066369E-007 F
     orb,it,eci,eold,eci-eold=                    2                   63 -0.81347338802723845      -0.81347271309429436       -6.7493294408915716E-007 F
     orb,it,eci,eold,eci-eold=                    2                   64 -0.81347384104049236      -0.81347338802723845       -4.5301325390934011E-007 F
     orb,it,eci,eold,eci-eold=                    2                   65 -0.81347407327359322      -0.81347384104049236       -2.3223310086084581E-007 F
     orb,it,eci,eold,eci-eold=                    2                   66 -0.81347473727722075      -0.81347407327359322       -6.6400362752627728E-007 F
     orb,it,eci,eold,eci-eold=                    2                   67 -0.81347480124039540      -0.81347473727722075       -6.3963174645742527E-008 F
     orb,it,eci,eold,eci-eold=                    2                   68 -0.81347485469140923      -0.81347480124039540       -5.3451013837246819E-008 F
     orb,it,eci,eold,eci-eold=                    2                   69 -0.81347552133246714      -0.81347485469140923       -6.6664105791147676E-007 F
     orb,it,eci,eold,eci-eold=                    2                   70 -0.81347565866618443      -0.81347552133246714       -1.3733371728719135E-007 F
     orb,it,eci,eold,eci-eold=                    2                   71 -0.81347571565449628      -0.81347565866618443       -5.6988311847305795E-008 F
     orb,it,eci,eold,eci-eold=                    2                   72 -0.81347620693975764      -0.81347571565449628       -4.9128526136144046E-007 F
     orb,it,eci,eold,eci-eold=                    2                   73 -0.81347645544736213      -0.81347620693975764       -2.4850760449446341E-007 F
     orb,it,eci,eold,eci-eold=                    2                   74 -0.81347670294975916      -0.81347645544736213       -2.4750239702164833E-007 F
     orb,it,eci,eold,eci-eold=                    2                   75 -0.81347684600534165      -0.81347670294975916       -1.4305558249105843E-007 F
     orb,it,eci,eold,eci-eold=                    2                   76 -0.81347714864737952      -0.81347684600534165       -3.0264203787488952E-007 F
     orb,it,eci,eold,eci-eold=                    2                   77 -0.81347718304852390      -0.81347714864737952       -3.4401144377582682E-008 F
     orb,it,eci,eold,eci-eold=                    2                   78 -0.81347718711314343      -0.81347718304852390       -4.0646195298421617E-009 F
     orb,it,eci,eold,eci-eold=                    2                   79 -0.81347736141083538      -0.81347718711314343       -1.7429769194610145E-007 F
     orb,it,eci,eold,eci-eold=                    2                   80 -0.81347747554066552      -0.81347736141083538       -1.1412983014214007E-007 F
     orb,it,eci,eold,eci-eold=                    2                   81 -0.81347752278626073      -0.81347747554066552       -4.7245595213851743E-008 F
     orb,it,eci,eold,eci-eold=                    2                   82 -0.81347768213375438      -0.81347752278626073       -1.5934749364454603E-007 F
     orb,it,eci,eold,eci-eold=                    2                   83 -0.81347772702234034      -0.81347768213375438       -4.4888585959412808E-008 F
     orb,it,eci,eold,eci-eold=                    2                   84 -0.81347774124862815      -0.81347772702234034       -1.4226287814445016E-008 F
     orb,it,eci,eold,eci-eold=                    2                   85 -0.81347786410936851      -0.81347774124862815       -1.2286074035916528E-007 F
     orb,it,eci,eold,eci-eold=                    2                   86 -0.81347793877470154      -0.81347786410936851       -7.4665333027468250E-008 F
     orb,it,eci,eold,eci-eold=                    2                   87 -0.81347796747192191      -0.81347793877470154       -2.8697220377793542E-008 F
     orb,it,eci,eold,eci-eold=                    2                   88 -0.81347807376882586      -0.81347796747192191       -1.0629690394559077E-007 F
     orb,it,eci,eold,eci-eold=                    2                   89 -0.81347812077688220      -0.81347807376882586       -4.7008056336395043E-008 F
     orb,it,eci,eold,eci-eold=                    2                   90 -0.81347813933631452      -0.81347812077688220       -1.8559432324316560E-008 F
     orb,it,eci,eold,eci-eold=                    2                   91 -0.81347821810346921      -0.81347813933631452       -7.8767154687575669E-008 F
     orb,it,eci,eold,eci-eold=                    2                   92 -0.81347824994217866      -0.81347821810346921       -3.1838709446674329E-008 F
     orb,it,eci,eold,eci-eold=                    2                   93 -0.81347826507389764      -0.81347824994217866       -1.5131718988925513E-008 F
     orb,it,eci,eold,eci-eold=                    2                   94 -0.81347833575343254      -0.81347826507389764       -7.0679534891482376E-008 F
     orb,it,eci,eold,eci-eold=                    2                   95 -0.81347836968286058      -0.81347833575343254       -3.3929428044920940E-008 F
     orb,it,eci,eold,eci-eold=                    2                   96 -0.81347838267014372      -0.81347836968286058       -1.2987283137810834E-008 F
     orb,it,eci,eold,eci-eold=                    2                   97 -0.81347843704155198      -0.81347838267014372       -5.4371408264586307E-008 F
     orb,it,eci,eold,eci-eold=                    2                   98 -0.81347845279189146      -0.81347843704155198       -1.5750339477094144E-008 F
     orb,it,eci,eold,eci-eold=                    2                   99 -0.81347845663470564      -0.81347845279189146       -3.8428141779789371E-009 F
     orb,it,eci,eold,eci-eold=                    2                  100 -0.81347849772811875      -0.81347845663470564       -4.1093413116755073E-008 F
     orb,it,eci,eold,eci-eold=                    2                  101 -0.81347852885815763      -0.81347849772811875       -3.1130038880000654E-008 F
     orb,it,eci,eold,eci-eold=                    2                  102 -0.81347854396156793      -0.81347852885815763       -1.5103410300199016E-008 F
     orb,it,eci,eold,eci-eold=                    2                  103 -0.81347858467700229      -0.81347854396156793       -4.0715434357352365E-008 F
     orb,it,eci,eold,eci-eold=                    2                  104 -0.81347859390916311      -0.81347858467700229       -9.2321608136103350E-009 F
     orb,it,eci,eold,eci-eold=                    2                  105 -0.81347859676408230      -0.81347859390916311       -2.8549191899429616E-009 F
     orb,it,eci,eold,eci-eold=                    2                  106 -0.81347862716537245      -0.81347859676408230       -3.0401290151971239E-008 F
     orb,it,eci,eold,eci-eold=                    2                  107 -0.81347865099363914      -0.81347862716537245       -2.3828266693115552E-008 F
     orb,it,eci,eold,eci-eold=                    2                  108 -0.81347866137379077      -0.81347865099363914       -1.0380151627131795E-008 F
     orb,it,eci,eold,eci-eold=                    2                  109 -0.81347868440338844      -0.81347866137379077       -2.3029597673307478E-008 F
     orb,it,eci,eold,eci-eold=                    2                  110 -0.81347868440338844      -0.81347868440338844        0.0000000000000000      F
     orbital   2 current e=  0.358395E+00 error=0.565E-01 (eci= -0.813478684E+00 error=0.000E+00) iterations 110(   0 preconditioned, Ep,Sp= 20.0  200.0)
     orb,it,eci,eold,eci-eold=                    2                    1 -0.81347876936942121      -0.81347868343424945       -8.5935171756368334E-008 F
     orb,it,eci,eold,eci-eold=                    2                    2 -0.81347878828616360      -0.81347876936942121       -1.8916742394736730E-008 F
     orb,it,eci,eold,eci-eold=                    2                    3 -0.81347878828616360      -0.81347878828616360        0.0000000000000000      F
     orbital   2 current e=  0.358325E+00 error=0.692E-04 (eci= -0.813478788E+00 error=0.000E+00) iterations   3(   0 preconditioned, Ep,Sp= 20.0  200.0)
     orb,it,eci,eold,eci-eold=                    2                    1 -0.81347883074560046      -0.81347878799821305       -4.2747387407615633E-008 F
     orb,it,eci,eold,eci-eold=                    2                    2 -0.81347884525619762      -0.81347883074560046       -1.4510597168282402E-008 F
     orb,it,eci,eold,eci-eold=                    2                    3 -0.81347885189391622      -0.81347884525619762       -6.6377185969912489E-009 F
     orb,it,eci,eold,eci-eold=                    2                    4 -0.81347885405349474      -0.81347885189391622       -2.1595785160144487E-009 F
     orb,it,eci,eold,eci-eold=                    2                    5 -0.81347885530603037      -0.81347885405349474       -1.2525356307691027E-009 F
     orb,it,eci,eold,eci-eold=                    2                    6 -0.81347885767667960      -0.81347885530603037       -2.3706492324748751E-009 F
     orb,it,eci,eold,eci-eold=                    2                    7 -0.81347885767667960      -0.81347885767667960        0.0000000000000000      F
     orbital   2 current e=  0.358274E+00 error=0.510E-04 (eci= -0.813478858E+00 error=0.000E+00) iterations   7(   0 preconditioned, Ep,Sp= 20.0  200.0)
     orb,it,eci,eold,eci-eold=                    3                    1 -0.81091839556003709      -0.81086255588358447       -5.5839676452618114E-005 F
     orb,it,eci,eold,eci-eold=                    3                    2 -0.81092261165679869      -0.81091839556003709       -4.2160967616000633E-006 F
     orb,it,eci,eold,eci-eold=                    3                    3 -0.81097927257958169      -0.81092261165679869       -5.6660922783002832E-005 F
     orb,it,eci,eold,eci-eold=                    3                    4 -0.81099511797133061      -0.81097927257958169       -1.5845391748925408E-005 F
     orb,it,eci,eold,eci-eold=                    3                    5 -0.81101922383592462      -0.81099511797133061       -2.4105864594003990E-005 F
     orb,it,eci,eold,eci-eold=                    3                    6 -0.81106613294808783      -0.81101922383592462       -4.6909112163207034E-005 F
     orb,it,eci,eold,eci-eold=                    3                    7 -0.81108666148333430      -0.81106613294808783       -2.0528535246477908E-005 F
     orb,it,eci,eold,eci-eold=                    3                    8 -0.81111201484721751      -0.81108666148333430       -2.5353363883207081E-005 F
     orb,it,eci,eold,eci-eold=                    3                    9 -0.81111282357237413      -0.81111201484721751       -8.0872515662022693E-007 F
     orb,it,eci,eold,eci-eold=                    3                   10 -0.81112228395276875      -0.81111282357237413       -9.4603803946213816E-006 F
     orb,it,eci,eold,eci-eold=                    3                   11 -0.81114534586427711      -0.81112228395276875       -2.3061911508359678E-005 F
     orb,it,eci,eold,eci-eold=                    3                   12 -0.81114697256855595      -0.81114534586427711       -1.6267042788342678E-006 F
     orb,it,eci,eold,eci-eold=                    3                   13 -0.81115239530232230      -0.81114697256855595       -5.4227337663581565E-006 F
     orb,it,eci,eold,eci-eold=                    3                   14 -0.81117482731081103      -0.81115239530232230       -2.2432008488726396E-005 F
     orb,it,eci,eold,eci-eold=                    3                   15 -0.81118024171139425      -0.81117482731081103       -5.4144005832146291E-006 F
     orb,it,eci,eold,eci-eold=                    3                   16 -0.81118302707567136      -0.81118024171139425       -2.7853642771136222E-006 F
     orb,it,eci,eold,eci-eold=                    3                   17 -0.81120038704688724      -0.81118302707567136       -1.7359971215880066E-005 F
     orb,it,eci,eold,eci-eold=                    3                   18 -0.81120656178247375      -0.81120038704688724       -6.1747355865060527E-006 F
     orb,it,eci,eold,eci-eold=                    3                   19 -0.81120939267354353      -0.81120656178247375       -2.8308910697827372E-006 F
     orb,it,eci,eold,eci-eold=                    3                   20 -0.81122418728613088      -0.81120939267354353       -1.4794612587354372E-005 F
     orb,it,eci,eold,eci-eold=                    3                   21 -0.81122874922991373      -0.81122418728613088       -4.5619437828436915E-006 F
     orb,it,eci,eold,eci-eold=                    3                   22 -0.81123090727462555      -0.81122874922991373       -2.1580447118196844E-006 F
     orb,it,eci,eold,eci-eold=                    3                   23 -0.81124476449774985      -0.81123090727462555       -1.3857223124302820E-005 F
     orb,it,eci,eold,eci-eold=                    3                   24 -0.81124698067427170      -0.81124476449774985       -2.2161765218520202E-006 F
     orb,it,eci,eold,eci-eold=                    3                   25 -0.81124776053194847      -0.81124698067427170       -7.7985767676924667E-007 F
     orb,it,eci,eold,eci-eold=                    3                   26 -0.81125997651306103      -0.81124776053194847       -1.2215981112562169E-005 F
     orb,it,eci,eold,eci-eold=                    3                   27 -0.81126691103156257      -0.81125997651306103       -6.9345185015334820E-006 F
     orb,it,eci,eold,eci-eold=                    3                   28 -0.81127143831099779      -0.81126691103156257       -4.5272794352291257E-006 F
     orb,it,eci,eold,eci-eold=                    3                   29 -0.81127339704628898      -0.81127143831099779       -1.9587352911853984E-006 F
     orb,it,eci,eold,eci-eold=                    3                   30 -0.81127861578850080      -0.81127339704628898       -5.2187422118210591E-006 F
     orb,it,eci,eold,eci-eold=                    3                   31 -0.81127880284735554      -0.81127861578850080       -1.8705885473924155E-007 F
     orb,it,eci,eold,eci-eold=                    3                   32 -0.81127887978124646      -0.81127880284735554       -7.6933890924557602E-008 F
     orb,it,eci,eold,eci-eold=                    3                   33 -0.81128274949304169      -0.81127887978124646       -3.8697117952235516E-006 F
     orb,it,eci,eold,eci-eold=                    3                   34 -0.81128423212679746      -0.81128274949304169       -1.4826337557671820E-006 F
     orb,it,eci,eold,eci-eold=                    3                   35 -0.81128444041440406      -0.81128423212679746       -2.0828760660673851E-007 F
     orb,it,eci,eold,eci-eold=                    3                   36 -0.81128740199231397      -0.81128444041440406       -2.9615779099101402E-006 F
     orb,it,eci,eold,eci-eold=                    3                   37 -0.81128881766759686      -0.81128740199231397       -1.4156752828897723E-006 F
     orb,it,eci,eold,eci-eold=                    3                   38 -0.81128925490303994      -0.81128881766759686       -4.3723544307372464E-007 F
     orb,it,eci,eold,eci-eold=                    3                   39 -0.81129173209607741      -0.81128925490303994       -2.4771930374756224E-006 F
     orb,it,eci,eold,eci-eold=                    3                   40 -0.81129262453174933      -0.81129173209607741       -8.9243567191754636E-007 F
     orb,it,eci,eold,eci-eold=                    3                   41 -0.81129290809150501      -0.81129262453174933       -2.8355975567606606E-007 F
     orb,it,eci,eold,eci-eold=                    3                   42 -0.81129482002704156      -0.81129290809150501       -1.9119355365582180E-006 F
     orb,it,eci,eold,eci-eold=                    3                   43 -0.81129547282821435      -0.81129482002704156       -6.5280117278465610E-007 F
     orb,it,eci,eold,eci-eold=                    3                   44 -0.81129568382087480      -0.81129547282821435       -2.1099266045432330E-007 F
     orb,it,eci,eold,eci-eold=                    3                   45 -0.81129723093076911      -0.81129568382087480       -1.5471098943065087E-006 F
     orb,it,eci,eold,eci-eold=                    3                   46 -0.81129773219422763      -0.81129723093076911       -5.0126345851886356E-007 F
     orb,it,eci,eold,eci-eold=                    3                   47 -0.81129784687774587      -0.81129773219422763       -1.1468351823751277E-007 F
     orb,it,eci,eold,eci-eold=                    3                   48 -0.81129903205080378      -0.81129784687774587       -1.1851730579159891E-006 F
     orb,it,eci,eold,eci-eold=                    3                   49 -0.81129947606816355      -0.81129903205080378       -4.4401735976862255E-007 F
     orb,it,eci,eold,eci-eold=                    3                   50 -0.81129957322428958      -0.81129947606816355       -9.7156126033226542E-008 F
     orb,it,eci,eold,eci-eold=                    3                   51 -0.81130044587803252      -0.81129957322428958       -8.7265374293377107E-007 F
     orb,it,eci,eold,eci-eold=                    3                   52 -0.81130080439857344      -0.81130044587803252       -3.5852054092178065E-007 F
     orb,it,eci,eold,eci-eold=                    3                   53 -0.81130092419965882      -0.81130080439857344       -1.1980108538534040E-007 F
     orb,it,eci,eold,eci-eold=                    3                   54 -0.81130159739608387      -0.81130092419965882       -6.7319642504948263E-007 F
     orb,it,eci,eold,eci-eold=                    3                   55 -0.81130184443078213      -0.81130159739608387       -2.4703469825304580E-007 F
     orb,it,eci,eold,eci-eold=                    3                   56 -0.81130194630853958      -0.81130184443078213       -1.0187775745240657E-007 F
     orb,it,eci,eold,eci-eold=                    3                   57 -0.81130246283253649      -0.81130194630853958       -5.1652399690738093E-007 F
     orb,it,eci,eold,eci-eold=                    3                   58 -0.81130259992757947      -0.81130246283253649       -1.3709504298464736E-007 F
     orb,it,eci,eold,eci-eold=                    3                   59 -0.81130264656027784      -0.81130259992757947       -4.6632698369464265E-008 F
     orb,it,eci,eold,eci-eold=                    3                   60 -0.81130303030495421      -0.81130264656027784       -3.8374467636881349E-007 F
     orb,it,eci,eold,eci-eold=                    3                   61 -0.81130317004222718      -0.81130303030495421       -1.3973727297500460E-007 F
     orb,it,eci,eold,eci-eold=                    3                   62 -0.81130321732098598      -0.81130317004222718       -4.7278758796842624E-008 F
     orb,it,eci,eold,eci-eold=                    3                   63 -0.81130352883700418      -0.81130321732098598       -3.1151601820322838E-007 F
     orb,it,eci,eold,eci-eold=                    3                   64 -0.81130365428016804      -0.81130352883700418       -1.2544316385643128E-007 F
     orb,it,eci,eold,eci-eold=                    3                   65 -0.81130370109986583      -0.81130365428016804       -4.6819697785416281E-008 F
     orb,it,eci,eold,eci-eold=                    3                   66 -0.81130396636203839      -0.81130370109986583       -2.6526217256073181E-007 F
     orb,it,eci,eold,eci-eold=                    3                   67 -0.81130404939995371      -0.81130396636203839       -8.3037915321604316E-008 F
     orb,it,eci,eold,eci-eold=                    3                   68 -0.81130406929110133      -0.81130404939995371       -1.9891147617911997E-008 F
     orb,it,eci,eold,eci-eold=                    3                   69 -0.81130428007935329      -0.81130406929110133       -2.1078825196418904E-007 F
     orb,it,eci,eold,eci-eold=                    3                   70 -0.81130435393178357      -0.81130428007935329       -7.3852430282350667E-008 F
     orb,it,eci,eold,eci-eold=                    3                   71 -0.81130436221707436      -0.81130435393178357       -8.2852907867803083E-009 F
     orb,it,eci,eold,eci-eold=                    3                   72 -0.81130452253075125      -0.81130436221707436       -1.6031367688906784E-007 F
     orb,it,eci,eold,eci-eold=                    3                   73 -0.81130459790354603      -0.81130452253075125       -7.5372794783312713E-008 F
     orb,it,eci,eold,eci-eold=                    3                   74 -0.81130461379618368      -0.81130459790354603       -1.5892637650338770E-008 F
     orb,it,eci,eold,eci-eold=                    3                   75 -0.81130473675410331      -0.81130461379618368       -1.2295791962380065E-007 F
     orb,it,eci,eold,eci-eold=                    3                   76 -0.81130478432320685      -0.81130473675410331       -4.7569103545086477E-008 F
     orb,it,eci,eold,eci-eold=                    3                   77 -0.81130479814836753      -0.81130478432320685       -1.3825160682934268E-008 F
     orb,it,eci,eold,eci-eold=                    3                   78 -0.81130489959623042      -0.81130479814836753       -1.0144786288801555E-007 F
     orb,it,eci,eold,eci-eold=                    3                   79 -0.81130493883030108      -0.81130489959623042       -3.9234070658977771E-008 F
     orb,it,eci,eold,eci-eold=                    3                   80 -0.81130494965780231      -0.81130493883030108       -1.0827501228938274E-008 F
     orb,it,eci,eold,eci-eold=                    3                   81 -0.81130503088983408      -0.81130494965780231       -8.1232031767797253E-008 F
     orb,it,eci,eold,eci-eold=                    3                   82 -0.81130506149173354      -0.81130503088983408       -3.0601899458915227E-008 F
     orb,it,eci,eold,eci-eold=                    3                   83 -0.81130506953604076      -0.81130506149173354       -8.0443072203451038E-009 F
     orb,it,eci,eold,eci-eold=                    3                   84 -0.81130513515795388      -0.81130506953604076       -6.5621913125646358E-008 F
     orb,it,eci,eold,eci-eold=                    3                   85 -0.81130516028163613      -0.81130513515795388       -2.5123682245720147E-008 F
     orb,it,eci,eold,eci-eold=                    3                   86 -0.81130516616735293      -0.81130516028163613       -5.8857168028225715E-009 F
     orb,it,eci,eold,eci-eold=                    3                   87 -0.81130521760694385      -0.81130516616735293       -5.1439590920132616E-008 F
     orb,it,eci,eold,eci-eold=                    3                   88 -0.81130523703881796      -0.81130521760694385       -1.9431874109798741E-008 F
     orb,it,eci,eold,eci-eold=                    3                   89 -0.81130524159569495      -0.81130523703881796       -4.5568769868609138E-009 F
     orb,it,eci,eold,eci-eold=                    3                   90 -0.81130528250895217      -0.81130524159569495       -4.0913257226549149E-008 F
     orb,it,eci,eold,eci-eold=                    3                   91 -0.81130529722294464      -0.81130528250895217       -1.4713992468884385E-008 F
     orb,it,eci,eold,eci-eold=                    3                   92 -0.81130529996228251      -0.81130529722294464       -2.7393378676521252E-009 F
     orb,it,eci,eold,eci-eold=                    3                   93 -0.81130533080904776      -0.81130529996228251       -3.0846765253222941E-008 F
     orb,it,eci,eold,eci-eold=                    3                   94 -0.81130534172464686      -0.81130533080904776       -1.0915599091276817E-008 F
     orb,it,eci,eold,eci-eold=                    3                   95 -0.81130534361783857      -0.81130534172464686       -1.8931917145081911E-009 F
     orb,it,eci,eold,eci-eold=                    3                   96 -0.81130536773787365      -0.81130534361783857       -2.4120035080343882E-008 F
     orb,it,eci,eold,eci-eold=                    3                   97 -0.81130538015923359      -0.81130536773787365       -1.2421359940617549E-008 F
     orb,it,eci,eold,eci-eold=                    3                   98 -0.81130538448633849      -0.81130538015923359       -4.3271048966175840E-009 F
     orb,it,eci,eold,eci-eold=                    3                   99 -0.81130540535583362      -0.81130538448633849       -2.0869495132025406E-008 F
     orb,it,eci,eold,eci-eold=                    3                  100 -0.81130541144280777      -0.81130540535583362       -6.0869741469460337E-009 F
     orb,it,eci,eold,eci-eold=                    3                  101 -0.81130541277449109      -0.81130541144280777       -1.3316833191723276E-009 F
     orb,it,eci,eold,eci-eold=                    3                  102 -0.81130542775076775      -0.81130541277449109       -1.4976276663247745E-008 F
     orb,it,eci,eold,eci-eold=                    3                  103 -0.81130543335820626      -0.81130542775076775       -5.6074385135218563E-009 F
     orb,it,eci,eold,eci-eold=                    3                  104 -0.81130543463782967      -0.81130543335820626       -1.2796234072354196E-009 F
     orb,it,eci,eold,eci-eold=                    3                  105 -0.81130544574499242      -0.81130543463782967       -1.1107162745105370E-008 F
     orb,it,eci,eold,eci-eold=                    3                  106 -0.81130545009234278      -0.81130544574499242       -4.3473503685831361E-009 F
     orb,it,eci,eold,eci-eold=                    3                  107 -0.81130545158129719      -0.81130545009234278       -1.4889544042162584E-009 F
     orb,it,eci,eold,eci-eold=                    3                  108 -0.81130546093575662      -0.81130545158129719       -9.3544594292893635E-009 F
     orb,it,eci,eold,eci-eold=                    3                  109 -0.81130546450698227      -0.81130546093575662       -3.5712256485354033E-009 F
     orb,it,eci,eold,eci-eold=                    3                  110 -0.81130546569786954      -0.81130546450698227       -1.1908872776800195E-009 F
     orb,it,eci,eold,eci-eold=                    3                  111 -0.81130547341751080      -0.81130546569786954       -7.7196412595625929E-009 F
     orb,it,eci,eold,eci-eold=                    3                  112 -0.81130547594704261      -0.81130547341751080       -2.5295318062390493E-009 F
     orb,it,eci,eold,eci-eold=                    3                  113 -0.81130547649557583      -0.81130547594704261       -5.4853321884706929E-010 F
     orbital   3 current e=  0.451383E+00 error=0.110E+00 (eci= -0.811305476E+00 error=0.549E-09) iterations 113(   0 preconditioned, Ep,Sp= 20.0  200.0)
     orb,it,eci,eold,eci-eold=                    3                    1 -0.81130548715862560      -0.81130547649557583       -1.0663049776482580E-008 F
     orb,it,eci,eold,eci-eold=                    3                    2 -0.81130548831216032      -0.81130548715862560       -1.1535347121949258E-009 F
     orb,it,eci,eold,eci-eold=                    3                    3 -0.81130549005794128      -0.81130548831216032       -1.7457809642351663E-009 F
     orb,it,eci,eold,eci-eold=                    3                    4 -0.81130549557281517      -0.81130549005794128       -5.5148738908883388E-009 F
     orb,it,eci,eold,eci-eold=                    3                    5 -0.81130550235990651      -0.81130549557281517       -6.7870913333933913E-009 F
     orb,it,eci,eold,eci-eold=                    3                    6 -0.81130550585759831      -0.81130550235990651       -3.4976918028561954E-009 F
     orb,it,eci,eold,eci-eold=                    3                    7 -0.81130550911699340      -0.81130550585759831       -3.2593950871628863E-009 F
     orb,it,eci,eold,eci-eold=                    3                    8 -0.81130550911699340      -0.81130550911699340        0.0000000000000000      F
     orbital   3 current e=  0.451336E+00 error=0.470E-04 (eci= -0.811305509E+00 error=0.000E+00) iterations   8(   0 preconditioned, Ep,Sp= 20.0  200.0)
     orb,it,eci,eold,eci-eold=                    3                    1 -0.81130551344791069      -0.81130550870640250       -4.7415081860791020E-009 F
     orb,it,eci,eold,eci-eold=                    3                    2 -0.81130551592507905      -0.81130551344791069       -2.4771683593272087E-009 F
     orb,it,eci,eold,eci-eold=                    3                    3 -0.81130551592507905      -0.81130551592507905        0.0000000000000000      F
     orbital   3 current e=  0.451327E+00 error=0.850E-05 (eci= -0.811305516E+00 error=0.000E+00) iterations   3(   0 preconditioned, Ep,Sp= 20.0  200.0)
     orb,it,eci,eold,eci-eold=                    4                    1 -0.81079607426196110      -0.81071111421917708       -8.4960042784021361E-005 F
     orb,it,eci,eold,eci-eold=                    4                    2 -0.81080599185692881      -0.81079607426196110       -9.9175949677121622E-006 F
     orb,it,eci,eold,eci-eold=                    4                    3 -0.81084693771916372      -0.81080599185692881       -4.0945862234909036E-005 F
     orb,it,eci,eold,eci-eold=                    4                    4 -0.81088051320825039      -0.81084693771916372       -3.3575489086667965E-005 F
     orb,it,eci,eold,eci-eold=                    4                    5 -0.81090657398644550      -0.81088051320825039       -2.6060778195113876E-005 F
     orb,it,eci,eold,eci-eold=                    4                    6 -0.81093058143498253      -0.81090657398644550       -2.4007448537033405E-005 F
     orb,it,eci,eold,eci-eold=                    4                    7 -0.81094367567928327      -0.81093058143498253       -1.3094244300737579E-005 F
     orb,it,eci,eold,eci-eold=                    4                    8 -0.81094743450503015      -0.81094367567928327       -3.7588257468801345E-006 F
     orb,it,eci,eold,eci-eold=                    4                    9 -0.81094848965702626      -0.81094743450503015       -1.0551519961099487E-006 F
     orb,it,eci,eold,eci-eold=                    4                   10 -0.81096263264625357      -0.81094848965702626       -1.4142989227305947E-005 F
     orb,it,eci,eold,eci-eold=                    4                   11 -0.81096980692858478      -0.81096263264625357       -7.1742823312126447E-006 F
     orb,it,eci,eold,eci-eold=                    4                   12 -0.81097516244317336      -0.81096980692858478       -5.3555145885786359E-006 F
     orb,it,eci,eold,eci-eold=                    4                   13 -0.81097853355625038      -0.81097516244317336       -3.3711130770219810E-006 F
     orb,it,eci,eold,eci-eold=                    4                   14 -0.81098506105478552      -0.81097853355625038       -6.5274985351360115E-006 F
     orb,it,eci,eold,eci-eold=                    4                   15 -0.81098833571244422      -0.81098506105478552       -3.2746576587028287E-006 F
     orb,it,eci,eold,eci-eold=                    4                   16 -0.81099219476345252      -0.81098833571244422       -3.8590510083036378E-006 F
     orb,it,eci,eold,eci-eold=                    4                   17 -0.81099295695901807      -0.81099219476345252       -7.6219556555123802E-007 F
     orb,it,eci,eold,eci-eold=                    4                   18 -0.81099457456107282      -0.81099295695901807       -1.6176020547487013E-006 F
     orb,it,eci,eold,eci-eold=                    4                   19 -0.81099745627991982      -0.81099457456107282       -2.8817188469920652E-006 F
     orb,it,eci,eold,eci-eold=                    4                   20 -0.81099925484986202      -0.81099745627991982       -1.7985699422018442E-006 F
     orb,it,eci,eold,eci-eold=                    4                   21 -0.81100240342130525      -0.81099925484986202       -3.1485714432344380E-006 F
     orb,it,eci,eold,eci-eold=                    4                   22 -0.81100254504975333      -0.81100240342130525       -1.4162844808041086E-007 F
     orb,it,eci,eold,eci-eold=                    4                   23 -0.81100273117740462      -0.81100254504975333       -1.8612765129155662E-007 F
     orb,it,eci,eold,eci-eold=                    4                   24 -0.81100439280738701      -0.81100273117740462       -1.6616299823857261E-006 F
     orb,it,eci,eold,eci-eold=                    4                   25 -0.81100509786798480      -0.81100439280738701       -7.0506059779429364E-007 F
     orb,it,eci,eold,eci-eold=                    4                   26 -0.81100551207468796      -0.81100509786798480       -4.1420670315872599E-007 F
     orb,it,eci,eold,eci-eold=                    4                   27 -0.81100683344028346      -0.81100551207468796       -1.3213655954968928E-006 F
     orb,it,eci,eold,eci-eold=                    4                   28 -0.81100698922029468      -0.81100683344028346       -1.5578001122396046E-007 F
     orb,it,eci,eold,eci-eold=                    4                   29 -0.81100713041110639      -0.81100698922029468       -1.4119081170882453E-007 F
     orb,it,eci,eold,eci-eold=                    4                   30 -0.81100832529202804      -0.81100713041110639       -1.1948809216510980E-006 F
     orb,it,eci,eold,eci-eold=                    4                   31 -0.81100897735717092      -0.81100832529202804       -6.5206514288096429E-007 F
     orb,it,eci,eold,eci-eold=                    4                   32 -0.81100919217580492      -0.81100897735717092       -2.1481863399230861E-007 F
     orb,it,eci,eold,eci-eold=                    4                   33 -0.81100994259692227      -0.81100919217580492       -7.5042111735701411E-007 F
     orb,it,eci,eold,eci-eold=                    4                   34 -0.81101015153575506      -0.81100994259692227       -2.0893883279082814E-007 F
     orb,it,eci,eold,eci-eold=                    4                   35 -0.81101032311778998      -0.81101015153575506       -1.7158203491351998E-007 F
     orb,it,eci,eold,eci-eold=                    4                   36 -0.81101108132019029      -0.81101032311778998       -7.5820240030832764E-007 F
     orb,it,eci,eold,eci-eold=                    4                   37 -0.81101145056495993      -0.81101108132019029       -3.6924476964905750E-007 F
     orb,it,eci,eold,eci-eold=                    4                   38 -0.81101164561547268      -0.81101145056495993       -1.9505051274126828E-007 F
     orb,it,eci,eold,eci-eold=                    4                   39 -0.81101226746857180      -0.81101164561547268       -6.2185309912532460E-007 F
     orb,it,eci,eold,eci-eold=                    4                   40 -0.81101234109827280      -0.81101226746857180       -7.3629701002886350E-008 F
     orb,it,eci,eold,eci-eold=                    4                   41 -0.81101237780373503      -0.81101234109827280       -3.6705462225228302E-008 F
     orb,it,eci,eold,eci-eold=                    4                   42 -0.81101289814177913      -0.81101237780373503       -5.2033804409656881E-007 F
     orb,it,eci,eold,eci-eold=                    4                   43 -0.81101315896677284      -0.81101289814177913       -2.6082499371415935E-007 F
     orb,it,eci,eold,eci-eold=                    4                   44 -0.81101324070780056      -0.81101315896677284       -8.1741027724291371E-008 F
     orb,it,eci,eold,eci-eold=                    4                   45 -0.81101372214990519      -0.81101324070780056       -4.8144210462730541E-007 F
     orb,it,eci,eold,eci-eold=                    4                   46 -0.81101383576485653      -0.81101372214990519       -1.1361495133588306E-007 F
     orb,it,eci,eold,eci-eold=                    4                   47 -0.81101387500509503      -0.81101383576485653       -3.9240238502991076E-008 F
     orb,it,eci,eold,eci-eold=                    4                   48 -0.81101439709545553      -0.81101387500509503       -5.2209036049966073E-007 F
     orb,it,eci,eold,eci-eold=                    4                   49 -0.81101442655578782      -0.81101439709545553       -2.9460332284791946E-008 F
     orb,it,eci,eold,eci-eold=                    4                   50 -0.81101443702512444      -0.81101442655578782       -1.0469336619856051E-008 F
     orb,it,eci,eold,eci-eold=                    4                   51 -0.81101484125679524      -0.81101443702512444       -4.0423167080305689E-007 F
     orb,it,eci,eold,eci-eold=                    4                   52 -0.81101490378901808      -0.81101484125679524       -6.2532222844247087E-008 F
     orb,it,eci,eold,eci-eold=                    4                   53 -0.81101491104454060      -0.81101490378901808       -7.2555225161252679E-009 F
     orb,it,eci,eold,eci-eold=                    4                   54 -0.81101522633055978      -0.81101491104454060       -3.1528601918129340E-007 F
     orb,it,eci,eold,eci-eold=                    4                   55 -0.81101529673509254      -0.81101522633055978       -7.0404532759305027E-008 F
     orb,it,eci,eold,eci-eold=                    4                   56 -0.81101531156250140      -0.81101529673509254       -1.4827408856277202E-008 F
     orb,it,eci,eold,eci-eold=                    4                   57 -0.81101557416998027      -0.81101531156250140       -2.6260747887363323E-007 F
     orb,it,eci,eold,eci-eold=                    4                   58 -0.81101558573376820      -0.81101557416998027       -1.1563787927215685E-008 F
     orb,it,eci,eold,eci-eold=                    4                   59 -0.81101558870063550      -0.81101558573376820       -2.9668673073857121E-009 F
     orb,it,eci,eold,eci-eold=                    4                   60 -0.81101575397969383      -0.81101558870063550       -1.6527905832841583E-007 F
     orb,it,eci,eold,eci-eold=                    4                   61 -0.81101582408984219      -0.81101575397969383       -7.0110148353563773E-008 F
     orb,it,eci,eold,eci-eold=                    4                   62 -0.81101592681678469      -0.81101582408984219       -1.0272694250801351E-007 F
     orb,it,eci,eold,eci-eold=                    4                   63 -0.81101592681678469      -0.81101592681678469        0.0000000000000000      F
     orbital   4 current e=  0.475741E+00 error=0.151E-01 (eci= -0.811015927E+00 error=0.000E+00) iterations  63(   0 preconditioned, Ep,Sp= 20.0  200.0)
     orb,it,eci,eold,eci-eold=                    4                    1 -0.81101631209041347      -0.81101592679336210       -3.8529705137513304E-007 F
     orb,it,eci,eold,eci-eold=                    4                    2 -0.81101655641532022      -0.81101631209041347       -2.4432490675074803E-007 F
     orb,it,eci,eold,eci-eold=                    4                    3 -0.81101657235031510      -0.81101655641532022       -1.5934994879174269E-008 F
     orb,it,eci,eold,eci-eold=                    4                    4 -0.81101665704654624      -0.81101657235031510       -8.4696231139602673E-008 F
     orb,it,eci,eold,eci-eold=                    4                    5 -0.81101669458713666      -0.81101665704654624       -3.7540590414053554E-008 F
     orb,it,eci,eold,eci-eold=                    4                    6 -0.81101669592648973      -0.81101669458713666       -1.3393530728933456E-009 F
[...]
   10    7   10   10        0.0024531746
   10    7   11   10        0.0000017921
   10    7   12   10        0.0000000304
   10    7   13   10        0.0000001203
   10    7   11   11       -0.0025232867
   10    7   12   11        0.0001458679
   10    7   13   11        0.0000407136
   10    7   12   12       -0.0053384979
   10    7   13   12        0.0000010005
   10    7   13   13       -0.0053122227
   11    7   11    7        0.0176056780
   11    7   12    7        0.0002287955
   11    7   13    7        0.0000058892
   11    7    8    8       -0.0000014364
   11    7    9    8       -0.0000000159
   11    7   10    8        0.0000005582
   11    7   11    8       -0.0000136922
   11    7   12    8        0.0003004483
   11    7   13    8        0.0055011105
   11    7    9    9       -0.0000013862
   11    7   10    9       -0.0000002364
   11    7   11    9       -0.0000715482
   11    7   12    9        0.0054807591
   11    7   13    9       -0.0003019467
   11    7   10   10       -0.0000011134
   11    7   11   10       -0.0086476836
   11    7   12   10       -0.0000455718
   11    7   13   10       -0.0000145983
   11    7   11   11       -0.0000018775
   11    7   12   11        0.0000000377
   11    7   13   11       -0.0000001446
   11    7   12   12       -0.0000014220
   11    7   13   12        0.0000000095
   11    7   13   13       -0.0000014673
   12    7   12    7        0.0114186232
   12    7   13    7        0.0000024908
   12    7    8    8        0.0000007960
   12    7    9    8       -0.0000002787
   12    7   10    8       -0.0000000017
   12    7   11    8       -0.0002207872
   12    7   12    8       -0.0000145659
   12    7   13    8       -0.0000009048
   12    7    9    9        0.0000010970
   12    7   10    9       -0.0000004398
   12    7   11    9       -0.0040205300
   12    7   12    9       -0.0001837978
   12    7   13    9       -0.0000272363
   12    7   10   10        0.0000007663
   12    7   11   10        0.0002784028
   12    7   12   10       -0.0081671914
   12    7   13   10        0.0000002775
   12    7   11   11        0.0000007881
   12    7   12   11        0.0000001841
   12    7   13   11       -0.0000000031
   12    7   12   12        0.0000007200
   12    7   13   12       -0.0000001009
   12    7   13   13        0.0000006301
   13    7   13    7        0.0113592645
   13    7    8    8       -0.0000029238
   13    7    9    8        0.0000001475
   13    7   10    8       -0.0000004594
   13    7   11    8       -0.0040013557
   13    7   12    8       -0.0001882826
   13    7   13    8       -0.0001874946
   13    7    9    9       -0.0000023847
   13    7   10    9        0.0000000186
   13    7   11    9        0.0002261397
   13    7   12    9       -0.0001462001
   13    7   13    9        0.0000101671
   13    7   10   10       -0.0000021791
   13    7   11   10        0.0002356615
   13    7   12   10        0.0000098608
   13    7   13   10       -0.0081401234
   13    7   11   11       -0.0000023220
   13    7   12   11       -0.0000000250
   13    7   13   11        0.0000001820
   13    7   12   12       -0.0000018153
   13    7   13   12        0.0000000483
   13    7   13   13       -0.0000020104
    8    8    8    8        0.3290521190
    8    8    9    8       -0.0000000247
    8    8   10    8        0.0000169042
    8    8   11    8       -0.0000000074
    8    8   12    8        0.0000001218
    8    8   13    8        0.0000013352
    8    8    9    9        0.3011943217
    8    8   10    9       -0.0000000938
    8    8   11    9       -0.0000000838
    8    8   12    9        0.0000015469
    8    8   13    9       -0.0000002206
    8    8   10   10        0.3178508905
    8    8   11   10       -0.0000024998
    8    8   12   10       -0.0000001409
    8    8   13   10       -0.0000000086
    8    8   11   11        0.3173140115
    8    8   12   11        0.0009720299
    8    8   13   11       -0.0000702537
    8    8   12   12        0.2927186627
    8    8   13   12        0.0010956918
    8    8   13   13        0.3121869328
    9    8    9    8        0.0145624917
    9    8   10    8       -0.0000000218
    9    8   11    8       -0.0000000053
    9    8   12    8        0.0000001089
    9    8   13    8       -0.0000003795
    9    8    9    9        0.0000000242
    9    8   10    9        0.0000017575
    9    8   11    9        0.0000000135
    9    8   12    9       -0.0000003416
    9    8   13    9        0.0000001563
    9    8   10   10       -0.0000000001
    9    8   11   10        0.0000004892
    9    8   12   10        0.0000000257
    9    8   13   10        0.0000000072
    9    8   11   11        0.0000053600
    9    8   12   11       -0.0000923309
    9    8   13   11       -0.0004064746
    9    8   12   12        0.0010963599
    9    8   13   12        0.0101042083
    9    8   13   13       -0.0011006763
   10    8   10    8        0.0168665762
   10    8   11    8       -0.0000002020
   10    8   12    8        0.0000000037
   10    8   13    8        0.0000000968
   10    8    9    9        0.0000137330
   10    8   10    9        0.0000000001
   10    8   11    9        0.0000000335
   10    8   12    9        0.0000001088
   10    8   13    9        0.0000000006
   10    8   10   10        0.0000116414
   10    8   11   10       -0.0000001781
   10    8   12   10       -0.0000000089
   10    8   13   10       -0.0000000460
   10    8   11   11        0.0001710207
   10    8   12   11       -0.0006182467
   10    8   13   11       -0.0113212374
   10    8   12   12       -0.0000257571
   10    8   13   12       -0.0004690815
   10    8   13   13       -0.0000742266
   11    8   11    8        0.0122845671
   11    8   12    8        0.0002303790
   11    8   13    8       -0.0003586647
   11    8    9    9       -0.0000000085
   11    8   10    9        0.0000000478
   11    8   11    9        0.0000148417
   11    8   12    9       -0.0003521863
   11    8   13    9       -0.0002198418
   11    8   10   10       -0.0000000399
   11    8   11   10        0.0004482476
   11    8   12   10        0.0000429369
   11    8   13   10        0.0005027310
   11    8   11   11        0.0000000044
   11    8   12   11        0.0000000071
   11    8   13   11        0.0000000832
   11    8   12   12        0.0000000105
   11    8   13   12        0.0000000142
   11    8   13   13       -0.0000000196
   12    8   12    8        0.0060947717
   12    8   13    8        0.0029529576
   12    8    9    9        0.0000000961
   12    8   10    9        0.0000000051
   12    8   11    9       -0.0001441017
   12    8   12    9        0.0029839504
   12    8   13    9        0.0057504335
   12    8   10   10        0.0000001936
   12    8   11   10       -0.0034872531
   12    8   12   10       -0.0001322686
   12    8   13   10       -0.0000080747
   12    8   11   11        0.0000000984
   12    8   12   11        0.0000000134
   12    8   13   11       -0.0000000005
   12    8   12   12        0.0000000439
   12    8   13   12        0.0000000227
   12    8   13   13        0.0000000375
   13    8   13    8        0.0598304602
   13    8    9    9        0.0000019219
   13    8   10    9        0.0000000116
   13    8   11    9       -0.0019558009
   13    8   12    9        0.0483164487
   13    8   13    9       -0.0029877669
   13    8   10   10        0.0000028102
   13    8   11   10       -0.0634952110
   13    8   12   10       -0.0025711260
   13    8   13   10       -0.0002631196
   13    8   11   11        0.0000010192
   13    8   12   11        0.0000001475
   13    8   13   11       -0.0000000746
   13    8   12   12        0.0000000935
   13    8   13   12        0.0000001378
   13    8   13   13       -0.0000003639
    9    9    9    9        0.3290663949
    9    9   10    9       -0.0000001302
    9    9   11    9       -0.0000001337
    9    9   12    9        0.0000026412
    9    9   13    9       -0.0000002716
    9    9   10   10        0.3178506398
    9    9   11   10       -0.0000036236
    9    9   12   10       -0.0000001904
    9    9   13   10       -0.0000000195
    9    9   11   11        0.3173420250
    9    9   12   11        0.0001741859
    9    9   13   11        0.0001109095
    9    9   12   12        0.3122869184
    9    9   13   12       -0.0010882163
    9    9   13   13        0.2926034797
   10    9   10    9        0.0168598730
   10    9   11    9       -0.0000002991
   10    9   12    9       -0.0000000139
   10    9   13    9       -0.0000000065
   10    9   10   10       -0.0000000606
   10    9   11   10       -0.0000000064
   10    9   12   10       -0.0000000466
   10    9   13   10        0.0000000184
   10    9   11   11        0.0009212836
   10    9   12   11       -0.0112934617
   10    9   13   11        0.0006241745
   10    9   12   12       -0.0009017340
   10    9   13   12       -0.0000246027
   10    9   13   13        0.0000051625
   11    9   11    9        0.0123659346
   11    9   12    9       -0.0019348565
   11    9   13    9        0.0001336255
   11    9   10   10       -0.0000001441
   11    9   11   10        0.0025425310
   11    9   12   10        0.0005882454
   11    9   13   10       -0.0000180543
   11    9   11   11       -0.0000000827
   11    9   12   11        0.0000001036
   11    9   13   11       -0.0000000037
   11    9   12   12        0.0000000026
   11    9   13   12       -0.0000000214
   11    9   13   13       -0.0000000107
   12    9   12    9        0.0598421872
   12    9   13    9       -0.0029544946
   12    9   10   10        0.0000032116
   12    9   11   10       -0.0635046111
   12    9   12   10       -0.0025538811
   12    9   13   10       -0.0002572369
   12    9   11   11        0.0000014431
   12    9   12   11        0.0000001665
   12    9   13   11       -0.0000000863
   12    9   12   12        0.0000005074
   12    9   13   12        0.0000001298
   12    9   13   13       -0.0000000003
   13    9   13    9        0.0060787396
   13    9   10   10       -0.0000002414
   13    9   11   10        0.0034895037
   13    9   12   10        0.0001256625
   13    9   13   10        0.0000147681
   13    9   11   11       -0.0000001518
   13    9   12   11       -0.0000000077
   13    9   13   11        0.0000000032
   13    9   12   12       -0.0000000575
   13    9   13   12        0.0000000006
   13    9   13   13       -0.0000000579
   10   10   10   10        0.3645658203
   10   10   11   10       -0.0000057986
   10   10   12   10       -0.0000002835
   10   10   13   10       -0.0000000372
   10   10   11   11        0.3638168500
   10   10   12   11        0.0016450096
   10   10   13   11        0.0001545278
   10   10   12   12        0.3230680700
   10   10   13   12        0.0000078713
   10   10   13   13        0.3229534569
   11   10   11   10        0.1043561206
   11   10   12   10        0.0034195600
   11   10   13   10        0.0003300592
   11   10   11   11       -0.0000026610
   11   10   12   11       -0.0000002736
   11   10   13   11        0.0000001501
   11   10   12   12       -0.0000005598
   11   10   13   12       -0.0000001765
   11   10   13   13        0.0000000736
   12   10   12   10        0.0196627840
   12   10   13   10        0.0000110404
   12   10   11   11       -0.0000001783
   12   10   12   11        0.0000000708
   12   10   13   11       -0.0000000073
   12   10   12   12       -0.0000000421
   12   10   13   12       -0.0000000055
   12   10   13   13       -0.0000000249
   13   10   13   10        0.0195435533
   13   10   11   11       -0.0000000330
   13   10   12   11       -0.0000000104
   13   10   13   11        0.0000001190
   13   10   12   12       -0.0000000565
   13   10   13   12        0.0000000016
   13   10   13   13       -0.0000000464
   11   11   11   11        0.3775501382
   11   11   12   11        0.0007410908
   11   11   13   11        0.0000579822
   11   11   12   12        0.3281693626
   11   11   13   12        0.0000038106
   11   11   13   13        0.3280971819
   12   11   12   11        0.0152770907
   12   11   13   11       -0.0000009763
   12   11   12   12        0.0013058235
   12   11   13   12        0.0000113817
   12   11   13   13        0.0010605424
   13   11   13   11        0.0153082013
   13   11   12   12        0.0000792509
   13   11   13   12        0.0001391162
   13   11   13   13        0.0000957191
   12   12   12   12        0.3249630674
   12   12   13   12       -0.0000183441
   12   12   13   13        0.3014575715
   13   12   13   12        0.0119984552
   13   12   13   13        0.0000319101
   13   13   13   13        0.3247481384
 end_two_electron_integrals


 output epsi filename:./pspw_hf_H2.emovecs

 Total PSPW energy     :  -0.8091026796E+00


=== Spin Contamination ===

 <Sexact^2> =    0.0000000000000000     
 <S^2>      =    0.0000000000000000     



== Center of Charge ==

spin up     (    0.0000,    0.0000,    0.0000 )
spin down   (    0.0000,    0.0000,    0.0000 )
     total  (    0.0000,    0.0000,    0.0000 )
ionic       (    0.0000,    0.0000,    0.0000 )


== Molecular Dipole wrt Center of Mass ==

mu   =  (   -0.0000,   -0.0000,   -0.0000 ) au
|mu| =     0.0000 au,       0.0001 Debye

 output psi filename:./pspw_hf_H2.movecs

 Writing Crystallographic Information File:./H2.cif
   - cell not shifted (nwpw:cif_shift_cell .false.)


== Timing ==

cputime in seconds
  prologue    :   0.683578E+01
  main loop   :   0.122237E+04
  epilogue    :   0.313848E-01
  total       :   0.122924E+04
  cputime/step:   0.814912E+01       (     150 evalulations,      62 linesearches)


Time spent doing                        total          step       percent
  total time                 :   0.122925E+04  0.819497E+01       100.0 %
  i/o time                   :   0.578714E+00  0.385810E-02         0.0 %
  FFTs                       :   0.921306E+03  0.614204E+01        74.9 %
  dot products               :   0.128067E+02  0.853781E-01         1.0 %
  geodesic                   :   0.706623E-01  0.471082E-03         0.0 %
  ffm_dgemm                  :   0.108967E-01  0.726446E-04         0.0 %
  fmf_dgemm                  :   0.194119E-01  0.129412E-03         0.0 %
  mmm_dgemm                  :   0.306069E-02  0.204046E-04         0.0 %
  m_diagonalize              :   0.130288E-02  0.868588E-05         0.0 %
  local pseudopotentials     :   0.156889E+02  0.104593E+00         1.3 %
  non-local pseudopotentials :   0.114782E+02  0.765214E-01         0.9 %
  structure factors          :   0.239115E+01  0.159410E-01         0.2 %
  phase factors              :   0.146570E-04  0.977133E-07         0.0 %
  masking and packing        :   0.141802E+02  0.945348E-01         1.2 %
  queue fft                  :   0.153201E+02  0.102134E+00         1.2 %
  queue fft (serial)         :   0.532906E+01  0.355270E-01         0.4 %
  queue fft (message passing):   0.989969E+01  0.659980E-01         0.8 %
  HFX potential              :   0.132470E+02  0.883131E-01         1.1 %
  non-local psp FFM          :   0.107559E+02  0.717063E-01         0.9 %
  non-local psp FMF          :   0.196487E+00  0.130991E-02         0.0 %
  non-local psp FFM A        :   0.171659E+00  0.114440E-02         0.0 %
  non-local psp FFM B        :   0.291333E+00  0.194222E-02         0.0 %

== HFX Counters ==
  HFX Evalulations         =   150
  Lin ACE HFX Evalulations =     0


     >>>  JOB COMPLETED     AT Tue Apr 22 14:51:39 2025  <<<

 Task  times  cpu:     1146.7s     wall:     1229.3s


                                NWChem Input Module
                                -------------------


 Summary of allocated global arrays
-----------------------------------
  No active global arrays


MA_summarize_allocated_blocks: starting scan ...
MA_summarize_allocated_blocks: scan completed: 0 heap blocks, 0 stack blocks
MA usage statistics:

	allocation statistics:
					      heap	     stack
					      ----	     -----
	current number of blocks	         0	         0
	maximum number of blocks	       313	        36
	current total bytes		         0	         0
	maximum total bytes		  41047680	  13584696
	maximum total K-bytes		     41048	     13585
	maximum total M-bytes		        42	        14


                                     CITATION
                                     --------
                Please cite the following reference when publishing
                           results obtained with NWChem:

          E. Apra, E. J. Bylaska, W. A. de Jong, N. Govind, K. Kowalski,
       T. P. Straatsma, M. Valiev, H. J. J. van Dam, Y. Alexeev, J. Anchell,
       V. Anisimov, F. W. Aquino, R. Atta-Fynn, J. Autschbach, N. P. Bauman,
     J. C. Becca, D. E. Bernholdt, K. Bhaskaran-Nair, S. Bogatko, P. Borowski,
         J. Boschen, J. Brabec, A. Bruner, E. Cauet, Y. Chen, G. N. Chuev,
      C. J. Cramer, J. Daily, M. J. O. Deegan, T. H. Dunning Jr., M. Dupuis,
   K. G. Dyall, G. I. Fann, S. A. Fischer, A. Fonari, H. Fruchtl, L. Gagliardi,
      J. Garza, N. Gawande, S. Ghosh, K. Glaesemann, A. W. Gotz, J. Hammond,
       V. Helms, E. D. Hermes, K. Hirao, S. Hirata, M. Jacquelin, L. Jensen,
   B. G. Johnson, H. Jonsson, R. A. Kendall, M. Klemm, R. Kobayashi, V. Konkov,
      S. Krishnamoorthy, M. Krishnan, Z. Lin, R. D. Lins, R. J. Littlefield,
      A. J. Logsdail, K. Lopata, W. Ma, A. V. Marenich, J. Martin del Campo,
   D. Mejia-Rodriguez, J. E. Moore, J. M. Mullin, T. Nakajima, D. R. Nascimento,
    J. A. Nichols, P. J. Nichols, J. Nieplocha, A. Otero-de-la-Roza, B. Palmer,
    A. Panyala, T. Pirojsirikul, B. Peng, R. Peverati, J. Pittner, L. Pollack,
   R. M. Richard, P. Sadayappan, G. C. Schatz, W. A. Shelton, D. W. Silverstein,
   D. M. A. Smith, T. A. Soares, D. Song, M. Swart, H. L. Taylor, G. S. Thomas,
            V. Tipparaju, D. G. Truhlar, K. Tsemekhman, T. Van Voorhis,
      A. Vazquez-Mayagoitia, P. Verma, O. Villa, A. Vishnu, K. D. Vogiatzis,
        D. Wang, J. H. Weare, M. J. Williamson, T. L. Windus, K. Wolinski,
        A. T. Wong, Q. Wu, C. Yang, Q. Yu, M. Zacharias, Z. Zhang, Y. Zhao,
                                and R. J. Harrison
                        "NWChem: Past, present, and future
                         J. Chem. Phys. 152, 184102 (2020)
                               doi:10.1063/5.0004997

                                      AUTHORS
                                      -------
  E. Apra, E. J. Bylaska, N. Govind, K. Kowalski, M. Valiev, D. Mejia-Rodriguez,
       A. Kunitsa, N. P. Bauman, A. Panyala, W. A. de Jong, T. P. Straatsma,
   H. J. J. van Dam, D. Wang, T. L. Windus, J. Hammond, J. Autschbach, A. Woods,
    K. Bhaskaran-Nair, J. Brabec, K. Lopata, S. A. Fischer, S. Krishnamoorthy,
     M. Jacquelin, W. Ma, M. Klemm, O. Villa, Y. Chen, V. Anisimov, F. Aquino,
     S. Hirata, M. T. Hackler, E. Hermes, L. Jensen, J. E. Moore, J. C. Becca,
      V. Konjkov, T. Risthaus, M. Malagoli, A. Marenich, A. Otero-de-la-Roza,
        J. Mullin, P. Nichols, R. Peverati, J. Pittner, Y. Zhao, P.-D. Fan,
        A. Fonari, M. J. Williamson, R. J. Harrison, J. R. Rehr, M. Dupuis,
     D. Silverstein, D. M. A. Smith, J. Nieplocha, V. Tipparaju, M. Krishnan,
     B. E. Van Kuiken, A. Vazquez-Mayagoitia, M. Swart, Q. Wu, T. Van Voorhis,
     A. A. Auer, M. Nooijen, L. D. Crosby, E. Brown, G. Cisneros, G. I. Fann,
   H. Fruchtl, J. Garza, K. Hirao, R. A. Kendall, J. A. Nichols, K. Tsemekhman,
    K. Wolinski, J. Anchell, D. E. Bernholdt, P. Borowski, T. Clark, D. Clerc,
   H. Dachsel, M. J. O. Deegan, K. Dyall, D. Elwood, E. Glendening, M. Gutowski,
   A. C. Hess, J. Jaffe, B. G. Johnson, J. Ju, R. Kobayashi, R. Kutteh, Z. Lin,
   R. Littlefield, X. Long, B. Meng, T. Nakajima, S. Niu, L. Pollack, M. Rosing,
   K. Glaesemann, G. Sandrone, M. Stave, H. Taylor, G. Thomas, J. H. van Lenthe,
                               A. T. Wong, Z. Zhang.

 Total times  cpu:     1146.7s     wall:     1229.3s
