 argument  1 = H2-4.0.nw



============================== echo of input deck ==============================
title "swnc: e theory=pspw4 xc=hf formula=H2 charge=0 mult=1"
#machinejob:expert

echo

start pspw_hf_H2

memory heap 1200 mb stack 1200 mb global 10 mb

charge 0

geometry
H    0.00000    0.00000   -2.00000
H    0.00000    0.00000    2.00000
end

nwpw
  ### pseudopotential block begin ###
  ### pseudopotential block end   ###
  simulation_cell
     SC 20.0000
     boundary_conditions aperiodic
  end

  cutoff 50.0
  mult 1
  xc hf
  lmbfgs
  tolerances 1.0e-9 1.0e-9

  virtual 12
end
set nwpw:cif_filename H2

#set nwpw:CI_maxit_orb 15
#set nwpw:CI_maxit_linesearch 15
set pspw:HFX_screening_radius 14.0


set nwpw:2qintegrals .true.
set nwpw:3x3_virtual .true.

task pspw energy
================================================================================


                                         
                                         


             Northwest Computational Chemistry Package (NWChem) 7.2.3
             --------------------------------------------------------


                    Environmental Molecular Sciences Laboratory
                       Pacific Northwest National Laboratory
                                Richland, WA 99352

                              Copyright (c) 1994-2022
                       Pacific Northwest National Laboratory
                            Battelle Memorial Institute

             NWChem is an open-source computational chemistry package
                        distributed under the terms of the
                      Educational Community License (ECL) 2.0
             A copy of the license is included with this distribution
                              in the LICENSE.TXT file

                                  ACKNOWLEDGMENT
                                  --------------

            This software and its documentation were developed at the
            EMSL at Pacific Northwest National Laboratory, a multiprogram
            national laboratory, operated for the U.S. Department of Energy
            by Battelle under Contract Number DE-AC05-76RL01830. Support
            for this work was provided by the Department of Energy Office
            of Biological and Environmental Research, Office of Basic
            Energy Sciences, and the Office of Advanced Scientific Computing.


           Job information
           ---------------

    hostname        = mqs-al
    program         = nwchem
    date            = Tue Apr 22 14:54:11 2025

    compiled        = Thu_Oct_31_08:55:15_2024
    source          = /home/conda/feedstock_root/build_artifacts/nwchem_1730356057992/work
    nwchem branch   = 7.2.3
    nwchem revision = c400b04
    ga revision     = 5.8.0
    use scalapack   = T
    input           = H2-4.0.nw
    prefix          = pspw_hf_H2.
    data base       = ./pspw_hf_H2.db
    status          = startup
    nproc           =       24
    time left       =     -1s



           Memory information
           ------------------

    heap     =  157286400 doubles =   1200.0 Mbytes
    stack    =  157286397 doubles =   1200.0 Mbytes
    global   =    1310720 doubles =     10.0 Mbytes (distinct from heap & stack)
    total    =  315883517 doubles =   2410.0 Mbytes
    verify   = yes
    hardfail = no 


           Directory information
           ---------------------

  0 permanent = .
  0 scratch   = .




                                NWChem Input Module
                                -------------------


               swnc: e theory=pspw4 xc=hf formula=H2 charge=0 mult=1
               -----------------------------------------------------

 Scaling coordinates for geometry "geometry" by  1.889725989
 (inverse scale =  0.529177249)

  zeroes
  zeroes
  zeroes
  zeroes
  zeroes
  zeroes
  zeroes
  zeroes
  zeroes
  zeroes
  zeroes
  zeroes
  zeroes
  zeroes
  zeroes
  zeroes
  zeroes
  zeroes
  zeroes
  zeroes
  zeroes
  zeroes
  zeroes
  zeroes
  zeroes
  zeroes
  zeroes
  zeroes
  zeroes
  zeroes
  zeroes
  zeroes
  zeroes
  zeroes
  zeroes
  zeroes
  zeroes
  zeroes
  zeroes
  zeroes
  zeroes
  zeroes
  zeroes
  zeroes
  zeroes
  zeroes
  zeroes
  zeroes
 ORDER OF PRIMARY AXIS IS BEING SET TO 4
 D4H symmetry detected

          ------
          auto-z
          ------
     1 autoz failed with cvr_scaling = 1.2 changing to 1.3
     2 autoz failed with cvr_scaling = 1.3 changing to 1.4
     3 autoz failed with cvr_scaling = 1.4 changing to 1.5
     4 autoz failed with cvr_scaling = 1.5 changing to 1.6
     5 autoz failed with cvr_scaling = 1.6 changing to 1.7

 AUTOZ failed to generate good internal coordinates.
 Cartesian coordinates will be used in optimizations.



                             Geometry "geometry" -> ""
                             -------------------------

 Output coordinates in angstroms (scale by  1.889725989 to convert to a.u.)

  No.       Tag          Charge          X              Y              Z
 ---- ---------------- ---------- -------------- -------------- --------------
    1 H                    1.0000     0.00000000     0.00000000    -2.00000000
    2 H                    1.0000     0.00000000     0.00000000     2.00000000

      Atomic Mass 
      ----------- 

      H                  1.007825


 Effective nuclear repulsion energy (a.u.)       0.1322943122

            Nuclear Dipole moment (a.u.) 
            ----------------------------
        X                 Y               Z
 ---------------- ---------------- ----------------
     0.0000000000     0.0000000000     0.0000000000

      Symmetry information
      --------------------

 Group name             D4h       
 Group number             28
 Group order              16
 No. of unique centers     1

      Symmetry unique atoms

     1


            XYZ format geometry
            -------------------
     2
 geometry
 H                     0.00000000     0.00000000    -2.00000000
 H                     0.00000000     0.00000000     2.00000000

          ****************************************************
          *                                                  *
          *               NWPW PSPW Calculation              *
          *                                                  *
          * [ (Grassmann/Stiefel manifold implementation)  ] *
          *                                                  *
          *      [ NorthWest Chemistry implementation ]      *
          *                                                  *
          *            version #5.10   06/12/02              *
          *                                                  *
          *    This code was developed by Eric J. Bylaska,   *
          *    and was based upon algorithms and code        *
          *    developed by the group of Prof. John H. Weare *
          *                                                  *
          ****************************************************
     >>>  JOB STARTED       AT Tue Apr 22 14:54:11 2025  <<<
          ================ input data ========================

 input psi filename:./pspw_hf_H2.movecs

 number of processors used:        24
 processor grid           :  24 x   1
 parallel mapping         :2d-hilbert
 parallel mapping         :  balanced
 number of threads        :         1
 parallel io              :       off

 options:
      boundary conditions  = aperiodic   (version4)
      electron spin        = restricted
      exchange-correlation = Hartree-Fock
      - HFX relaxed
      - HFX restricted orbitals :    1
      - HFX free-space coulomb solver


 elements involved in the cluster:
      1: H   valence charge:  1.0000  lmax=  1
             comment    : Parameterized (Chem.Phys.Lett., vol 322, page 447) Hamman psp
             pseudpotential type            :   0
             highest angular component      :   1
             local potential used           :   1
             number of non-local projections:   1
             aperiodic cutoff radius        :  1.000
             cutoff =   0.800   0.800


 total charge:   0.000

 atomic composition:
     H   :    2

 number of electrons: spin up=     1 (   1 per task)  down=     1 (   1 per task) (Fourier space)
 number of orbitals : spin up=     1 (   1 per task)  down=     1 (   1 per task) (Fourier space)

 supercell:
      cell_name:  cell_default                                      
      lattice:    a1=<  20.000   0.000   0.000 >
                  a2=<   0.000  20.000   0.000 >
                  a3=<   0.000   0.000  20.000 >
      reciprocal: b1=<   0.314   0.000   0.000 >
                  b2=<   0.000   0.314   0.000 >
                  b3=<   0.000   0.000   0.314 >
      lattice:    a=      20.000 b=     20.000 c=      20.000
                  alpha=  90.000 beta=  90.000 gamma=  90.000
                  omega=      8000.0

      density cutoff=100.000  fft= 96x 96x 96(   191162 waves     7965 per task)
      wavefnc cutoff= 50.000  fft= 96x 96x 96(    67522 waves     2813 per task)

 technical parameters:
      time step=      5.80     fictitious mass=  400000.0
      tolerance=0.100E-08 (energy)   0.100E-08 (density)
      maximum iterations =      1000 (   10 inner    100 outer )





== Energy Calculation ==


          ============ Grassmann lmbfgs iteration ============
     >>>  ITERATION STARTED AT Tue Apr 22 14:54:18 2025  <<<
    iter.           Energy         DeltaE       DeltaRho 
    ------------------------------------------------------
      10   -0.7871011118E+00   -0.15095E-02    0.71311E-02
     -  10 steepest descent iterations performed
      20   -0.7918816757E+00   -0.12327E-03    0.65021E-04
      30   -0.7921170435E+00   -0.60813E-05    0.54299E-05
      40   -0.7921369801E+00   -0.34181E-06    0.96252E-07
      50   -0.7921381600E+00   -0.20727E-07    0.45803E-08
      60   -0.7921382250E+00   -0.14791E-08    0.21748E-09
      70   -0.7921382280E+00   -0.68974E-09    0.54804E-11
  *** tolerance ok. iteration terminated
     >>>  ITERATION ENDED   AT Tue Apr 22 14:54:40 2025  <<<


==  Summary Of Results  ==

 number of electrons: spin up=    1.00000  down=    1.00000 (real space)

 total     energy    :  -0.7921382280E+00 (   -0.39607E+00/ion)
 total orbital energy:  -0.6061926652E+00 (   -0.60619E+00/electron)
 hartree   energy    :   0.6364797501E+00 (    0.63648E+00/electron)
 exc-corr  energy    :   0.0000000000E+00 (    0.00000E+00/electron)
 HF exchange energy  :  -0.3182398751E+00 (   -0.31824E+00/electron)
 ion-ion   energy    :   0.1322943122E+00 (    0.66147E-01/ion)

 kinetic (planewave) :   0.6453433926E+00 (    0.64534E+00/electron)
 V_local (planewave) :  -0.1737547507E+01 (   -0.17375E+01/electron)
 V_nl    (planewave) :  -0.1504683005E+00 (   -0.15047E+00/electron)
 V_Coul  (planewave) :   0.1272959500E+01 (    0.12730E+01/electron)
 V_xc.   (planewave) :   0.0000000000E+00 (    0.00000E+00/electron)
 K.S. HFX energy     :  -0.6364797501E+00 (   -0.63648E+00/electron)
 Virial Coefficient  :  -0.9530682652E+00

 orbital energies:
    -0.3030963E+00 (  -8.248eV)


== Virtual Orbital Calculation ==


 input epsi filename:./pspw_hf_H2.emovecs

 COVOs Mimimization
 ------------------
CI gradient algorithm =         3
maxit_sweeps          =         3
maxit_orb             =       120
maxit_linesearch      =        15
maxerror              = 0.100E-08

     orb,it,eci,eold,eci-eold=                    1                    1 -0.91468683766622205      -0.91452928553710355       -1.5755212911849892E-004 F
     orb,it,eci,eold,eci-eold=                    1                    2 -0.91480278229776757      -0.91468683766622205       -1.1594463154551704E-004 F
     orb,it,eci,eold,eci-eold=                    1                    3 -0.93260715836157604      -0.91480278229776757       -1.7804376063808469E-002 F
     orb,it,eci,eold,eci-eold=                    1                    4 -0.93491853180453144      -0.93260715836157604       -2.3113734429554000E-003 F
     orb,it,eci,eold,eci-eold=                    1                    5 -0.93765796200582208      -0.93491853180453144       -2.7394302012906380E-003 F
     orb,it,eci,eold,eci-eold=                    1                    6 -0.94788752388235553      -0.93765796200582208       -1.0229561876533455E-002 F
     orb,it,eci,eold,eci-eold=                    1                    7 -0.94926271013505747      -0.94788752388235553       -1.3751862527019432E-003 F
     orb,it,eci,eold,eci-eold=                    1                    8 -0.94951065726884121      -0.94926271013505747       -2.4794713378373245E-004 F
     orb,it,eci,eold,eci-eold=                    1                    9 -0.95338804690894507      -0.94951065726884121       -3.8773896401038677E-003 F
     orb,it,eci,eold,eci-eold=                    1                   10 -0.95558061243766157      -0.95338804690894507       -2.1925655287164947E-003 F
     orb,it,eci,eold,eci-eold=                    1                   11 -0.95951363471596074      -0.95558061243766157       -3.9330222782991697E-003 F
     orb,it,eci,eold,eci-eold=                    1                   12 -0.96029067342887231      -0.95951363471596074       -7.7703871291157078E-004 F
     orb,it,eci,eold,eci-eold=                    1                   13 -0.96064586126297513      -0.96029067342887231       -3.5518783410282140E-004 F
     orb,it,eci,eold,eci-eold=                    1                   14 -0.96236161825244193      -0.96064586126297513       -1.7157569894667990E-003 F
     orb,it,eci,eold,eci-eold=                    1                   15 -0.96243731004682176      -0.96236161825244193       -7.5691794379828536E-005 F
     orb,it,eci,eold,eci-eold=                    1                   16 -0.96285998545484863      -0.96243731004682176       -4.2267540802687353E-004 F
     orb,it,eci,eold,eci-eold=                    1                   17 -0.96561681723896475      -0.96285998545484863       -2.7568317841161205E-003 F
     orb,it,eci,eold,eci-eold=                    1                   18 -0.96635391064214105      -0.96561681723896475       -7.3709340317629213E-004 F
     orb,it,eci,eold,eci-eold=                    1                   19 -0.96647925811070889      -0.96635391064214105       -1.2534746856784906E-004 F
     orb,it,eci,eold,eci-eold=                    1                   20 -0.96817659795181654      -0.96647925811070889       -1.6973398411076479E-003 F
     orb,it,eci,eold,eci-eold=                    1                   21 -0.96830974784257884      -0.96817659795181654       -1.3314989076229633E-004 F
     orb,it,eci,eold,eci-eold=                    1                   22 -0.96842759942253775      -0.96830974784257884       -1.1785157995891637E-004 F
     orb,it,eci,eold,eci-eold=                    1                   23 -0.96982259839522922      -0.96842759942253775       -1.3949989726914636E-003 F
     orb,it,eci,eold,eci-eold=                    1                   24 -0.97019788593277378      -0.96982259839522922       -3.7528753754456634E-004 F
     orb,it,eci,eold,eci-eold=                    1                   25 -0.97029645448954049      -0.97019788593277378       -9.8568556766709392E-005 F
     orb,it,eci,eold,eci-eold=                    1                   26 -0.97155483975298118      -0.97029645448954049       -1.2583852634406867E-003 F
     orb,it,eci,eold,eci-eold=                    1                   27 -0.97185081628618331      -0.97155483975298118       -2.9597653320212469E-004 F
     orb,it,eci,eold,eci-eold=                    1                   28 -0.97196695478964257      -0.97185081628618331       -1.1613850345926213E-004 F
     orb,it,eci,eold,eci-eold=                    1                   29 -0.97288970400620178      -0.97196695478964257       -9.2274921655921549E-004 F
     orb,it,eci,eold,eci-eold=                    1                   30 -0.97307654534923604      -0.97288970400620178       -1.8684134303426081E-004 F
     orb,it,eci,eold,eci-eold=                    1                   31 -0.97313477136815407      -0.97307654534923604       -5.8226018918028366E-005 F
     orb,it,eci,eold,eci-eold=                    1                   32 -0.97401473487846246      -0.97313477136815407       -8.7996351030839026E-004 F
     orb,it,eci,eold,eci-eold=                    1                   33 -0.97420141757737788      -0.97401473487846246       -1.8668269891541911E-004 F
     orb,it,eci,eold,eci-eold=                    1                   34 -0.97421649963165957      -0.97420141757737788       -1.5082054281689850E-005 F
     orb,it,eci,eold,eci-eold=                    1                   35 -0.97471913315083070      -0.97421649963165957       -5.0263351917112509E-004 F
     orb,it,eci,eold,eci-eold=                    1                   36 -0.97486819010979242      -0.97471913315083070       -1.4905695896172411E-004 F
     orb,it,eci,eold,eci-eold=                    1                   37 -0.97486853750781510      -0.97486819010979242       -3.4739802268202169E-007 F
     orb,it,eci,eold,eci-eold=                    1                   38 -0.97524226218152754      -0.97486853750781510       -3.7372467371243889E-004 F
     orb,it,eci,eold,eci-eold=                    1                   39 -0.97555181507986566      -0.97524226218152754       -3.0955289833811683E-004 F
     orb,it,eci,eold,eci-eold=                    1                   40 -0.97569628920059503      -0.97555181507986566       -1.4447412072937649E-004 F
     orb,it,eci,eold,eci-eold=                    1                   41 -0.97602121755569060      -0.97569628920059503       -3.2492835509556617E-004 F
     orb,it,eci,eold,eci-eold=                    1                   42 -0.97622951889422083      -0.97602121755569060       -2.0830133853022570E-004 F
     orb,it,eci,eold,eci-eold=                    1                   43 -0.97645466931335068      -0.97622951889422083       -2.2515041912984923E-004 F
     orb,it,eci,eold,eci-eold=                    1                   44 -0.97657369991081766      -0.97645466931335068       -1.1903059746698474E-004 F
     orb,it,eci,eold,eci-eold=                    1                   45 -0.97680671356990700      -0.97657369991081766       -2.3301365908934280E-004 F
     orb,it,eci,eold,eci-eold=                    1                   46 -0.97681927041265093      -0.97680671356990700       -1.2556842743927099E-005 F
     orb,it,eci,eold,eci-eold=                    1                   47 -0.97682022848969052      -0.97681927041265093       -9.5807703959227553E-007 F
     orb,it,eci,eold,eci-eold=                    1                   48 -0.97694633951449217      -0.97682022848969052       -1.2611102480164504E-004 F
     orb,it,eci,eold,eci-eold=                    1                   49 -0.97701119270513037      -0.97694633951449217       -6.4853190638203273E-005 F
     orb,it,eci,eold,eci-eold=                    1                   50 -0.97704158244978201      -0.97701119270513037       -3.0389744651637685E-005 F
     orb,it,eci,eold,eci-eold=                    1                   51 -0.97717930775743089      -0.97704158244978201       -1.3772530764888380E-004 F
     orb,it,eci,eold,eci-eold=                    1                   52 -0.97723747215562995      -0.97717930775743089       -5.8164398199056500E-005 F
     orb,it,eci,eold,eci-eold=                    1                   53 -0.97725120215323991      -0.97723747215562995       -1.3729997609956968E-005 F
     orb,it,eci,eold,eci-eold=                    1                   54 -0.97733183610186170      -0.97725120215323991       -8.0633948621788853E-005 F
     orb,it,eci,eold,eci-eold=                    1                   55 -0.97735969131234257      -0.97733183610186170       -2.7855210480876025E-005 F
     orb,it,eci,eold,eci-eold=                    1                   56 -0.97737552853575393      -0.97735969131234257       -1.5837223411363510E-005 F
     orb,it,eci,eold,eci-eold=                    1                   57 -0.97746202374179925      -0.97737552853575393       -8.6495206045311690E-005 F
     orb,it,eci,eold,eci-eold=                    1                   58 -0.97750819766953934      -0.97746202374179925       -4.6173927740089660E-005 F
     orb,it,eci,eold,eci-eold=                    1                   59 -0.97752372849332003      -0.97750819766953934       -1.5530823780696146E-005 F
     orb,it,eci,eold,eci-eold=                    1                   60 -0.97757888099745960      -0.97752372849332003       -5.5152504139566183E-005 F
     orb,it,eci,eold,eci-eold=                    1                   61 -0.97758836087611922      -0.97757888099745960       -9.4798786596239637E-006 F
     orb,it,eci,eold,eci-eold=                    1                   62 -0.97759427052248982      -0.97758836087611922       -5.9096463705943236E-006 F
     orb,it,eci,eold,eci-eold=                    1                   63 -0.97764353090183476      -0.97759427052248982       -4.9260379344939764E-005 F
     orb,it,eci,eold,eci-eold=                    1                   64 -0.97766552312019694      -0.97764353090183476       -2.1992218362187899E-005 F
     orb,it,eci,eold,eci-eold=                    1                   65 -0.97767222412993393      -0.97766552312019694       -6.7010097369868404E-006 F
     orb,it,eci,eold,eci-eold=                    1                   66 -0.97771003461781125      -0.97767222412993393       -3.7810487877321108E-005 F
     orb,it,eci,eold,eci-eold=                    1                   67 -0.97772050026639956      -0.97771003461781125       -1.0465648588309229E-005 F
     orb,it,eci,eold,eci-eold=                    1                   68 -0.97772301598640121      -0.97772050026639956       -2.5157200016501235E-006 F
     orb,it,eci,eold,eci-eold=                    1                   69 -0.97775594847985203      -0.97772301598640121       -3.2932493450821276E-005 F
     orb,it,eci,eold,eci-eold=                    1                   70 -0.97777351141191893      -0.97775594847985203       -1.7562932066894632E-005 F
     orb,it,eci,eold,eci-eold=                    1                   71 -0.97777772806551455      -0.97777351141191893       -4.2166535956233986E-006 F
     orb,it,eci,eold,eci-eold=                    1                   72 -0.97780358180525162      -0.97777772806551455       -2.5853739737069503E-005 F
     orb,it,eci,eold,eci-eold=                    1                   73 -0.97781407112629037      -0.97780358180525162       -1.0489321038753552E-005 F
     orb,it,eci,eold,eci-eold=                    1                   74 -0.97781714387605989      -0.97781407112629037       -3.0727497695171024E-006 F
     orb,it,eci,eold,eci-eold=                    1                   75 -0.97783964442642324      -0.97781714387605989       -2.2500550363346861E-005 F
     orb,it,eci,eold,eci-eold=                    1                   76 -0.97785114696123221      -0.97783964442642324       -1.1502534808971454E-005 F
     orb,it,eci,eold,eci-eold=                    1                   77 -0.97785464325258054      -0.97785114696123221       -3.4962913483260749E-006 F
     orb,it,eci,eold,eci-eold=                    1                   78 -0.97787248635007540      -0.97785464325258054       -1.7843097494862903E-005 F
     orb,it,eci,eold,eci-eold=                    1                   79 -0.97787904795073333      -0.97787248635007540       -6.5616006579283237E-006 F
     orb,it,eci,eold,eci-eold=                    1                   80 -0.97788112059481580      -0.97787904795073333       -2.0726440824736514E-006 F
     orb,it,eci,eold,eci-eold=                    1                   81 -0.97789585607184737      -0.97788112059481580       -1.4735477031568855E-005 F
     orb,it,eci,eold,eci-eold=                    1                   82 -0.97790286425215567      -0.97789585607184737       -7.0081803082988614E-006 F
     orb,it,eci,eold,eci-eold=                    1                   83 -0.97790508930882858      -0.97790286425215567       -2.2250566729109522E-006 F
     orb,it,eci,eold,eci-eold=                    1                   84 -0.97791635181401859      -0.97790508930882858       -1.1262505190012817E-005 F
     orb,it,eci,eold,eci-eold=                    1                   85 -0.97791993994674720      -0.97791635181401859       -3.5881327286046982E-006 F
     orb,it,eci,eold,eci-eold=                    1                   86 -0.97792107683576202      -0.97791993994674720       -1.1368890148188981E-006 F
     orb,it,eci,eold,eci-eold=                    1                   87 -0.97793014958055802      -0.97792107683576202       -9.0727447960015084E-006 F
     orb,it,eci,eold,eci-eold=                    1                   88 -0.97793450112666935      -0.97793014958055802       -4.3515461113363685E-006 F
     orb,it,eci,eold,eci-eold=                    1                   89 -0.97793592913595617      -0.97793450112666935       -1.4280092868190764E-006 F
     orb,it,eci,eold,eci-eold=                    1                   90 -0.97794274986215868      -0.97793592913595617       -6.8207262025055115E-006 F
     orb,it,eci,eold,eci-eold=                    1                   91 -0.97794486822099480      -0.97794274986215868       -2.1183588361228800E-006 F
     orb,it,eci,eold,eci-eold=                    1                   92 -0.97794567440474522      -0.97794486822099480       -8.0618375042362800E-007 F
     orb,it,eci,eold,eci-eold=                    1                   93 -0.97795139659109254      -0.97794567440474522       -5.7221863473122525E-006 F
     orb,it,eci,eold,eci-eold=                    1                   94 -0.97795428620608960      -0.97795139659109254       -2.8896149970591978E-006 F
     orb,it,eci,eold,eci-eold=                    1                   95 -0.97795540363257771      -0.97795428620608960       -1.1174264881175233E-006 F
     orb,it,eci,eold,eci-eold=                    1                   96 -0.97796005763877225      -0.97795540363257771       -4.6540061945377076E-006 F
     orb,it,eci,eold,eci-eold=                    1                   97 -0.97796124013016594      -0.97796005763877225       -1.1824913936919756E-006 F
     orb,it,eci,eold,eci-eold=                    1                   98 -0.97796154569252947      -0.97796124013016594       -3.0556236352285993E-007 F
     orb,it,eci,eold,eci-eold=                    1                   99 -0.97796491479768244      -0.97796154569252947       -3.3691051529727289E-006 F
     orb,it,eci,eold,eci-eold=                    1                  100 -0.97796640547296509      -0.97796491479768244       -1.4906752826560066E-006 F
     orb,it,eci,eold,eci-eold=                    1                  101 -0.97796690856476243      -0.97796640547296509       -5.0309179733254439E-007 F
     orb,it,eci,eold,eci-eold=                    1                  102 -0.97796980157360835      -0.97796690856476243       -2.8930088459278025E-006 F
     orb,it,eci,eold,eci-eold=                    1                  103 -0.97797078121368863      -0.97796980157360835       -9.7964008027862093E-007 F
     orb,it,eci,eold,eci-eold=                    1                  104 -0.97797100852661667      -0.97797078121368863       -2.2731292803612746E-007 F
     orb,it,eci,eold,eci-eold=                    1                  105 -0.97797327812545798      -0.97797100852661667       -2.2695988413090618E-006 F
     orb,it,eci,eold,eci-eold=                    1                  106 -0.97797438707316720      -0.97797327812545798       -1.1089477092163236E-006 F
     orb,it,eci,eold,eci-eold=                    1                  107 -0.97797473778056676      -0.97797438707316720       -3.5070739956566399E-007 F
     orb,it,eci,eold,eci-eold=                    1                  108 -0.97797676245322462      -0.97797473778056676       -2.0246726578632135E-006 F
     orb,it,eci,eold,eci-eold=                    1                  109 -0.97797760041208237      -0.97797676245322462       -8.3795885774673451E-007 F
     orb,it,eci,eold,eci-eold=                    1                  110 -0.97797781395763728      -0.97797760041208237       -2.1354555490571414E-007 F
     orb,it,eci,eold,eci-eold=                    1                  111 -0.97797940677729911      -0.97797781395763728       -1.5928196618331114E-006 F
     orb,it,eci,eold,eci-eold=                    1                  112 -0.97798014776954290      -0.97797940677729911       -7.4099224378620931E-007 F
     orb,it,eci,eold,eci-eold=                    1                  113 -0.97798037971788554      -0.97798014776954290       -2.3194834264383957E-007 F
     orb,it,eci,eold,eci-eold=                    1                  114 -0.97798172774798009      -0.97798037971788554       -1.3480300945500900E-006 F
     orb,it,eci,eold,eci-eold=                    1                  115 -0.97798228144048471      -0.97798172774798009       -5.5369250462344866E-007 F
     orb,it,eci,eold,eci-eold=                    1                  116 -0.97798243441319688      -0.97798228144048471       -1.5297271216407893E-007 F
     orb,it,eci,eold,eci-eold=                    1                  117 -0.97798345156049271      -0.97798243441319688       -1.0171472958342420E-006 F
     orb,it,eci,eold,eci-eold=                    1                  118 -0.97798384235184554      -0.97798345156049271       -3.9079135283337507E-007 F
     orb,it,eci,eold,eci-eold=                    1                  119 -0.97798395865472199      -0.97798384235184554       -1.1630287644059933E-007 F
     orb,it,eci,eold,eci-eold=                    1                  120 -0.97798476811713020      -0.97798395865472199       -8.0946240821333504E-007 F
     orb,it,eci,eold,eci-eold=                    1                  121 -0.97798511284217449      -0.97798476811713020       -3.4472504428784134E-007 F
     orbital   1 current e= -0.151533E+00 error=0.780E-01 (eci= -0.977985113E+00 error=0.345E-06) iterations 121(   0 preconditioned, Ep,Sp= 20.0  200.0)
     orb,it,eci,eold,eci-eold=                    1                    1 -0.97798727185802803      -0.97798511284217449       -2.1590158535422788E-006 F
     orb,it,eci,eold,eci-eold=                    1                    2 -0.97798798047809055      -0.97798727185802803       -7.0862006251726228E-007 F
     orb,it,eci,eold,eci-eold=                    1                    3 -0.97798805953503010      -0.97798798047809055       -7.9056939550348204E-008 F
     orb,it,eci,eold,eci-eold=                    1                    4 -0.97798859223182211      -0.97798805953503010       -5.3269679201051190E-007 F
     orb,it,eci,eold,eci-eold=                    1                    5 -0.97798920265513789      -0.97798859223182211       -6.1042331578331499E-007 F
     orb,it,eci,eold,eci-eold=                    1                    6 -0.97798948269694086      -0.97798920265513789       -2.8004180296914427E-007 F
     orb,it,eci,eold,eci-eold=                    1                    7 -0.97798950269492391      -0.97798948269694086       -1.9997983047304047E-008 F
     orb,it,eci,eold,eci-eold=                    1                    8 -0.97798950269492391      -0.97798950269492391        0.0000000000000000      F
     orbital   1 current e= -0.151528E+00 error=0.493E-05 (eci= -0.977989503E+00 error=0.000E+00) iterations   8(   0 preconditioned, Ep,Sp= 20.0  200.0)
     orb,it,eci,eold,eci-eold=                    1                    1 -0.97798984043438097      -0.97798950261145590       -3.3782292507833489E-007 F
     orb,it,eci,eold,eci-eold=                    1                    2 -0.97798999083719496      -0.97798984043438097       -1.5040281398093214E-007 F
     orb,it,eci,eold,eci-eold=                    1                    3 -0.97799006240010100      -0.97798999083719496       -7.1562906045485875E-008 F
     orb,it,eci,eold,eci-eold=                    1                    4 -0.97799007930668780      -0.97799006240010100       -1.6906586797205136E-008 F
     orb,it,eci,eold,eci-eold=                    1                    5 -0.97799009284180671      -0.97799007930668780       -1.3535118914553834E-008 F
     orb,it,eci,eold,eci-eold=                    1                    6 -0.97799010586666624      -0.97799009284180671       -1.3024859524257693E-008 F
     orb,it,eci,eold,eci-eold=                    1                    7 -0.97799011530923197      -0.97799010586666624       -9.4425657293228937E-009 F
     orb,it,eci,eold,eci-eold=                    1                    8 -0.97799011900882837      -0.97799011530923197       -3.6995964070030141E-009 F
     orb,it,eci,eold,eci-eold=                    1                    9 -0.97799012163898058      -0.97799011900882837       -2.6301522071392469E-009 F
     orb,it,eci,eold,eci-eold=                    1                   10 -0.97799012446580791      -0.97799012163898058       -2.8268273277731737E-009 F
     orb,it,eci,eold,eci-eold=                    1                   11 -0.97799012561206133      -0.97799012446580791       -1.1462534255102241E-009 F
     orb,it,eci,eold,eci-eold=                    1                   12 -0.97799012592371037      -0.97799012561206133       -3.1164903990799075E-010 F
     orbital   1 current e= -0.151524E+00 error=0.441E-05 (eci= -0.977990126E+00 error=0.312E-09) iterations  12(   0 preconditioned, Ep,Sp= 20.0  200.0)
     orb,it,eci,eold,eci-eold=                    2                    1 -0.79566133349903623      -0.79513758619995634       -5.2374729907989082E-004 F
     orb,it,eci,eold,eci-eold=                    2                    2 -0.79569854914589788      -0.79566133349903623       -3.7215646861654683E-005 F
     orb,it,eci,eold,eci-eold=                    2                    3 -0.79574801550094054      -0.79569854914589788       -4.9466355042659949E-005 F
     orb,it,eci,eold,eci-eold=                    2                    4 -0.79586007979417506      -0.79574801550094054       -1.1206429323451506E-004 F
     orb,it,eci,eold,eci-eold=                    2                    5 -0.79591809642885480      -0.79586007979417506       -5.8016634679747270E-005 F
     orb,it,eci,eold,eci-eold=                    2                    6 -0.79600661191480049      -0.79591809642885480       -8.8515485945683814E-005 F
     orb,it,eci,eold,eci-eold=                    2                    7 -0.79606691824470899      -0.79600661191480049       -6.0306329908499379E-005 F
     orb,it,eci,eold,eci-eold=                    2                    8 -0.79612077032492179      -0.79606691824470899       -5.3852080212801745E-005 F
     orb,it,eci,eold,eci-eold=                    2                    9 -0.79614810400200620      -0.79612077032492179       -2.7333677084406816E-005 F
     orb,it,eci,eold,eci-eold=                    2                   10 -0.79617164074330127      -0.79614810400200620       -2.3536741295071550E-005 F
     orb,it,eci,eold,eci-eold=                    2                   11 -0.79618157178686511      -0.79617164074330127       -9.9310435638377825E-006 F
     orb,it,eci,eold,eci-eold=                    2                   12 -0.79618786120486074      -0.79618157178686511       -6.2894179956307639E-006 F
     orb,it,eci,eold,eci-eold=                    2                   13 -0.79622689788233869      -0.79618786120486074       -3.9036677477954917E-005 F
     orb,it,eci,eold,eci-eold=                    2                   14 -0.79624665617075518      -0.79622689788233869       -1.9758288416493741E-005 F
     orb,it,eci,eold,eci-eold=                    2                   15 -0.79626299694823799      -0.79624665617075518       -1.6340777482803936E-005 F
     orb,it,eci,eold,eci-eold=                    2                   16 -0.79627332121772032      -0.79626299694823799       -1.0324269482331339E-005 F
     orb,it,eci,eold,eci-eold=                    2                   17 -0.79630695370509696      -0.79627332121772032       -3.3632487376644704E-005 F
     orb,it,eci,eold,eci-eold=                    2                   18 -0.79631860785580399      -0.79630695370509696       -1.1654150707030020E-005 F
     orb,it,eci,eold,eci-eold=                    2                   19 -0.79632239350806322      -0.79631860785580399       -3.7856522592250030E-006 F
     orb,it,eci,eold,eci-eold=                    2                   20 -0.79634289629300081      -0.79632239350806322       -2.0502784937592722E-005 F
     orb,it,eci,eold,eci-eold=                    2                   21 -0.79634700373884804      -0.79634289629300081       -4.1074458472234454E-006 F
     orb,it,eci,eold,eci-eold=                    2                   22 -0.79634871711821797      -0.79634700373884804       -1.7133793699386501E-006 F
     orb,it,eci,eold,eci-eold=                    2                   23 -0.79636608801881059      -0.79634871711821797       -1.7370900592617033E-005 F
     orb,it,eci,eold,eci-eold=                    2                   24 -0.79637208525398895      -0.79636608801881059       -5.9972351783565969E-006 F
     orb,it,eci,eold,eci-eold=                    2                   25 -0.79637279254938953      -0.79637208525398895       -7.0729540058156459E-007 F
     orb,it,eci,eold,eci-eold=                    2                   26 -0.79638283049728198      -0.79637279254938953       -1.0037947892449495E-005 F
     orb,it,eci,eold,eci-eold=                    2                   27 -0.79638650578153780      -0.79638283049728198       -3.6752842558218646E-006 F
     orb,it,eci,eold,eci-eold=                    2                   28 -0.79638877258705798      -0.79638650578153780       -2.2668055201791049E-006 F
     orb,it,eci,eold,eci-eold=                    2                   29 -0.79640058171547401      -0.79638877258705798       -1.1809128416029324E-005 F
     orb,it,eci,eold,eci-eold=                    2                   30 -0.79640326928486660      -0.79640058171547401       -2.6875693925898503E-006 F
     orb,it,eci,eold,eci-eold=                    2                   31 -0.79640411632010133      -0.79640326928486660       -8.4703523473006470E-007 F
     orb,it,eci,eold,eci-eold=                    2                   32 -0.79641310882094840      -0.79640411632010133       -8.9925008470714829E-006 F
     orb,it,eci,eold,eci-eold=                    2                   33 -0.79641332297572143      -0.79641310882094840       -2.1415477302610952E-007 F
     orb,it,eci,eold,eci-eold=                    2                   34 -0.79641360378545989      -0.79641332297572143       -2.8080973846211776E-007 F
     orb,it,eci,eold,eci-eold=                    2                   35 -0.79642045029141484      -0.79641360378545989       -6.8465059549494001E-006 F
     orb,it,eci,eold,eci-eold=                    2                   36 -0.79642255781269522      -0.79642045029141484       -2.1075212803811638E-006 F
     orb,it,eci,eold,eci-eold=                    2                   37 -0.79642306927666606      -0.79642255781269522       -5.1146397084256279E-007 F
     orb,it,eci,eold,eci-eold=                    2                   38 -0.79642928921537903      -0.79642306927666606       -6.2199387129702188E-006 F
     orb,it,eci,eold,eci-eold=                    2                   39 -0.79643070016326911      -0.79642928921537903       -1.4109478900792283E-006 F
     orb,it,eci,eold,eci-eold=                    2                   40 -0.79643125916248858      -0.79643070016326911       -5.5899921946878095E-007 F
     orb,it,eci,eold,eci-eold=                    2                   41 -0.79643518110977185      -0.79643125916248858       -3.9219472832696667E-006 F
     orb,it,eci,eold,eci-eold=                    2                   42 -0.79643596130702243      -0.79643518110977185       -7.8019725058275924E-007 F
     orb,it,eci,eold,eci-eold=                    2                   43 -0.79643610662157505      -0.79643596130702243       -1.4531455261312942E-007 F
     orb,it,eci,eold,eci-eold=                    2                   44 -0.79643946073003535      -0.79643610662157505       -3.3541084603072591E-006 F
     orb,it,eci,eold,eci-eold=                    2                   45 -0.79644133222494573      -0.79643946073003535       -1.8714949103770806E-006 F
     orb,it,eci,eold,eci-eold=                    2                   46 -0.79644187334322480      -0.79644133222494573       -5.4111827907377119E-007 F
     orb,it,eci,eold,eci-eold=                    2                   47 -0.79644448333598639      -0.79644187334322480       -2.6099927615819141E-006 F
     orb,it,eci,eold,eci-eold=                    2                   48 -0.79644495306507757      -0.79644448333598639       -4.6972909117926065E-007 F
     orb,it,eci,eold,eci-eold=                    2                   49 -0.79644504262857496      -0.79644495306507757       -8.9563497396305536E-008 F
     orb,it,eci,eold,eci-eold=                    2                   50 -0.79644728312634627      -0.79644504262857496       -2.2404977713108565E-006 F
     orb,it,eci,eold,eci-eold=                    2                   51 -0.79644828660609857      -0.79644728312634627       -1.0034797522928685E-006 F
     orb,it,eci,eold,eci-eold=                    2                   52 -0.79644846042204609      -0.79644828660609857       -1.7381594752396978E-007 F
     orb,it,eci,eold,eci-eold=                    2                   53 -0.79645027998749418      -0.79644846042204609       -1.8195654480912538E-006 F
     orb,it,eci,eold,eci-eold=                    2                   54 -0.79645092401388085      -0.79645027998749418       -6.4402638666472001E-007 F
     orb,it,eci,eold,eci-eold=                    2                   55 -0.79645097243026375      -0.79645092401388085       -4.8416382902871646E-008 F
     orb,it,eci,eold,eci-eold=                    2                   56 -0.79645221921901488      -0.79645097243026375       -1.2467887511302678E-006 F
     orb,it,eci,eold,eci-eold=                    2                   57 -0.79645289521346296      -0.79645221921901488       -6.7599444808497111E-007 F
     orb,it,eci,eold,eci-eold=                    2                   58 -0.79645320649680462      -0.79645289521346296       -3.1128334165853033E-007 F
     orb,it,eci,eold,eci-eold=                    2                   59 -0.79645454781924463      -0.79645320649680462       -1.3413224400071755E-006 F
     orb,it,eci,eold,eci-eold=                    2                   60 -0.79645470650919403      -0.79645454781924463       -1.5868994940326786E-007 F
     orb,it,eci,eold,eci-eold=                    2                   61 -0.79645476752187849      -0.79645470650919403       -6.1012684460237665E-008 F
     orb,it,eci,eold,eci-eold=                    2                   62 -0.79645599758773877      -0.79645476752187849       -1.2300658602804049E-006 F
     orb,it,eci,eold,eci-eold=                    2                   63 -0.79645619578977445      -0.79645599758773877       -1.9820203567277872E-007 F
     orb,it,eci,eold,eci-eold=                    2                   64 -0.79645625252068708      -0.79645619578977445       -5.6730912634250785E-008 F
     orb,it,eci,eold,eci-eold=                    2                   65 -0.79645723397005352      -0.79645625252068708       -9.8144936644395386E-007 F
     orb,it,eci,eold,eci-eold=                    2                   66 -0.79645779779615355      -0.79645723397005352       -5.6382610003069544E-007 F
     orb,it,eci,eold,eci-eold=                    2                   67 -0.79645818227268150      -0.79645779779615355       -3.8447652794815212E-007 F
     orb,it,eci,eold,eci-eold=                    2                   68 -0.79645836485328814      -0.79645818227268150       -1.8258060663356446E-007 F
     orb,it,eci,eold,eci-eold=                    2                   69 -0.79645885345020306      -0.79645836485328814       -4.8859691492708635E-007 F
     orb,it,eci,eold,eci-eold=                    2                   70 -0.79645893005655966      -0.79645885345020306       -7.6606356591568670E-008 F
     orb,it,eci,eold,eci-eold=                    2                   71 -0.79645895145591061      -0.79645893005655966       -2.1399350957906904E-008 F
     orb,it,eci,eold,eci-eold=                    2                   72 -0.79645926392512290      -0.79645895145591061       -3.1246921228245128E-007 F
     orb,it,eci,eold,eci-eold=                    2                   73 -0.79645938236299818      -0.79645926392512290       -1.1843787528498240E-007 F
     orb,it,eci,eold,eci-eold=                    2                   74 -0.79645942121822266      -0.79645938236299818       -3.8855224482325923E-008 F
     orb,it,eci,eold,eci-eold=                    2                   75 -0.79645972357355677      -0.79645942121822266       -3.0235533410305493E-007 F
     orb,it,eci,eold,eci-eold=                    2                   76 -0.79645982825962336      -0.79645972357355677       -1.0468606659319590E-007 F
     orb,it,eci,eold,eci-eold=                    2                   77 -0.79645983167107626      -0.79645982825962336       -3.4114528979500847E-009 F
     orb,it,eci,eold,eci-eold=                    2                   78 -0.79646004684763061      -0.79645983167107626       -2.1517655435232541E-007 F
     orb,it,eci,eold,eci-eold=                    2                   79 -0.79646019097977583      -0.79646004684763061       -1.4413214521891149E-007 F
     orb,it,eci,eold,eci-eold=                    2                   80 -0.79646023849848802      -0.79646019097977583       -4.7518712187333279E-008 F
     orb,it,eci,eold,eci-eold=                    2                   81 -0.79646043113707121      -0.79646023849848802       -1.9263858319629179E-007 F
     orb,it,eci,eold,eci-eold=                    2                   82 -0.79646050887876396      -0.79646043113707121       -7.7741692749988545E-008 F
     orb,it,eci,eold,eci-eold=                    2                   83 -0.79646053868654998      -0.79646050887876396       -2.9807786017244098E-008 F
     orb,it,eci,eold,eci-eold=                    2                   84 -0.79646069390036467      -0.79646053868654998       -1.5521381468985851E-007 F
     orb,it,eci,eold,eci-eold=                    2                   85 -0.79646073527938732      -0.79646069390036467       -4.1379022652776598E-008 F
     orb,it,eci,eold,eci-eold=                    2                   86 -0.79646074008932843      -0.79646073527938732       -4.8099411120716695E-009 F
     orb,it,eci,eold,eci-eold=                    2                   87 -0.79646085037291825      -0.79646074008932843       -1.1028358981590713E-007 F
     orb,it,eci,eold,eci-eold=                    2                   88 -0.79646093014335539      -0.79646085037291825       -7.9770437144688344E-008 F
     orb,it,eci,eold,eci-eold=                    2                   89 -0.79646096602385141      -0.79646093014335539       -3.5880496018769747E-008 F
     orb,it,eci,eold,eci-eold=                    2                   90 -0.79646106233807490      -0.79646096602385141       -9.6314223485549633E-008 F
     orb,it,eci,eold,eci-eold=                    2                   91 -0.79646107831597779      -0.79646106233807490       -1.5977902889652285E-008 F
     orb,it,eci,eold,eci-eold=                    2                   92 -0.79646108870700005      -0.79646107831597779       -1.0391022264855110E-008 F
     orb,it,eci,eold,eci-eold=                    2                   93 -0.79646117229538171      -0.79646108870700005       -8.3588381660781863E-008 F
     orb,it,eci,eold,eci-eold=                    2                   94 -0.79646120781442564      -0.79646117229538171       -3.5519043928289307E-008 F
     orb,it,eci,eold,eci-eold=                    2                   95 -0.79646121558679528      -0.79646120781442564       -7.7723696367826278E-009 F
     orb,it,eci,eold,eci-eold=                    2                   96 -0.79646127103173014      -0.79646121558679528       -5.5444934865533924E-008 F
     orb,it,eci,eold,eci-eold=                    2                   97 -0.79646128816734685      -0.79646127103173014       -1.7135616703356504E-008 F
     orb,it,eci,eold,eci-eold=                    2                   98 -0.79646129409634325      -0.79646128816734685       -5.9289964049469290E-009 F
     orb,it,eci,eold,eci-eold=                    2                   99 -0.79646134563449256      -0.79646129409634325       -5.1538149303809178E-008 F
     orb,it,eci,eold,eci-eold=                    2                  100 -0.79646137120140437      -0.79646134563449256       -2.5566911809882242E-008 F
     orb,it,eci,eold,eci-eold=                    2                  101 -0.79646137867426070      -0.79646137120140437       -7.4728563337345122E-009 F
     orb,it,eci,eold,eci-eold=                    2                  102 -0.79646142251754559      -0.79646137867426070       -4.3843284891487144E-008 F
     orb,it,eci,eold,eci-eold=                    2                  103 -0.79646144325524437      -0.79646142251754559       -2.0737698780415315E-008 F
     orb,it,eci,eold,eci-eold=                    2                  104 -0.79646144980833489      -0.79646144325524437       -6.5530905146715668E-009 F
     orb,it,eci,eold,eci-eold=                    2                  105 -0.79646148432968555      -0.79646144980833489       -3.4521350666949502E-008 F
     orb,it,eci,eold,eci-eold=                    2                  106 -0.79646149803468069      -0.79646148432968555       -1.3704995138752452E-008 F
     orb,it,eci,eold,eci-eold=                    2                  107 -0.79646150282947759      -0.79646149803468069       -4.7947968928596651E-009 F
     orb,it,eci,eold,eci-eold=                    2                  108 -0.79646152993935537      -0.79646150282947759       -2.7109877787090397E-008 F
     orb,it,eci,eold,eci-eold=                    2                  109 -0.79646153851630208      -0.79646152993935537       -8.5769467084162443E-009 F
     orb,it,eci,eold,eci-eold=                    2                  110 -0.79646154093983768      -0.79646153851630208       -2.4235355944313142E-009 F
     orb,it,eci,eold,eci-eold=                    2                  111 -0.79646156247575373      -0.79646154093983768       -2.1535916050474668E-008 F
     orb,it,eci,eold,eci-eold=                    2                  112 -0.79646157209314128      -0.79646156247575373       -9.6173875530070063E-009 F
     orb,it,eci,eold,eci-eold=                    2                  113 -0.79646157508603577      -0.79646157209314128       -2.9928944877966046E-009 F
     orb,it,eci,eold,eci-eold=                    2                  114 -0.79646159309992859      -0.79646157508603577       -1.8013892821855393E-008 F
     orb,it,eci,eold,eci-eold=                    2                  115 -0.79646159977933195      -0.79646159309992859       -6.6794033637407324E-009 F
     orb,it,eci,eold,eci-eold=                    2                  116 -0.79646160143529188      -0.79646159977933195       -1.6559599247401025E-009 F
     orb,it,eci,eold,eci-eold=                    2                  117 -0.79646161538499216      -0.79646160143529188       -1.3949700283788502E-008 F
     orb,it,eci,eold,eci-eold=                    2                  118 -0.79646162238857721      -0.79646161538499216       -7.0035850452399018E-009 F
     orb,it,eci,eold,eci-eold=                    2                  119 -0.79646162492201777      -0.79646162238857721       -2.5334405684418471E-009 F
     orb,it,eci,eold,eci-eold=                    2                  120 -0.79646163672777504      -0.79646162492201777       -1.1805757260674454E-008 F
     orb,it,eci,eold,eci-eold=                    2                  121 -0.79646163987811502      -0.79646163672777504       -3.1503399888777039E-009 F
     orbital   2 current e=  0.345527E+00 error=0.465E-01 (eci= -0.796461640E+00 error=0.315E-08) iterations 121(   0 preconditioned, Ep,Sp= 20.0  200.0)
     orb,it,eci,eold,eci-eold=                    2                    1 -0.79646164497918936      -0.79646163987811502       -5.1010743407076120E-009 F
     orb,it,eci,eold,eci-eold=                    2                    2 -0.79646164578713086      -0.79646164497918936       -8.0794149148744054E-010 F
     orbital   2 current e=  0.345507E+00 error=0.206E-04 (eci= -0.796461646E+00 error=0.808E-09) iterations   2(   0 preconditioned, Ep,Sp= 20.0  200.0)
     orb,it,eci,eold,eci-eold=                    2                    1 -0.79646164578713086      -0.79646164578713086        0.0000000000000000      F
     orbital   2 current e=  0.345497E+00 error=0.987E-05 (eci= -0.796461646E+00 error=0.000E+00) iterations   1(   0 preconditioned, Ep,Sp= 20.0  200.0)
     orb,it,eci,eold,eci-eold=                    3                    1 -0.79385586169679057      -0.79377321753356378       -8.2644163226786027E-005 F
     orb,it,eci,eold,eci-eold=                    3                    2 -0.79386873773121147      -0.79385586169679057       -1.2876034420905569E-005 F
     orb,it,eci,eold,eci-eold=                    3                    3 -0.79390803232989482      -0.79386873773121147       -3.9294598683348170E-005 F
     orb,it,eci,eold,eci-eold=                    3                    4 -0.79391486336268580      -0.79390803232989482       -6.8310327909770763E-006 F
     orb,it,eci,eold,eci-eold=                    3                    5 -0.79394579908656937      -0.79391486336268580       -3.0935723883573907E-005 F
     orb,it,eci,eold,eci-eold=                    3                    6 -0.79397091222472627      -0.79394579908656937       -2.5113138156895864E-005 F
     orb,it,eci,eold,eci-eold=                    3                    7 -0.79397960941174672      -0.79397091222472627       -8.6971870204566315E-006 F
     orb,it,eci,eold,eci-eold=                    3                    8 -0.79401206168165561      -0.79397960941174672       -3.2452269908889164E-005 F
     orb,it,eci,eold,eci-eold=                    3                    9 -0.79401703840854632      -0.79401206168165561       -4.9767268907041640E-006 F
     orb,it,eci,eold,eci-eold=                    3                   10 -0.79402086038762665      -0.79401703840854632       -3.8219790803317721E-006 F
     orb,it,eci,eold,eci-eold=                    3                   11 -0.79404391888509862      -0.79402086038762665       -2.3058497471972750E-005 F
     orb,it,eci,eold,eci-eold=                    3                   12 -0.79404904752849148      -0.79404391888509862       -5.1286433928598996E-006 F
     orb,it,eci,eold,eci-eold=                    3                   13 -0.79405303261962834      -0.79404904752849148       -3.9850911368599640E-006 F
     orb,it,eci,eold,eci-eold=                    3                   14 -0.79407417063590702      -0.79405303261962834       -2.1138016278676730E-005 F
     orb,it,eci,eold,eci-eold=                    3                   15 -0.79407757387660860      -0.79407417063590702       -3.4032407015827104E-006 F
     orb,it,eci,eold,eci-eold=                    3                   16 -0.79407848144465454      -0.79407757387660860       -9.0756804593805640E-007 F
     orb,it,eci,eold,eci-eold=                    3                   17 -0.79409578328710440      -0.79407848144465454       -1.7301842449857219E-005 F
     orb,it,eci,eold,eci-eold=                    3                   18 -0.79410131342756796      -0.79409578328710440       -5.5301404635610396E-006 F
     orb,it,eci,eold,eci-eold=                    3                   19 -0.79410185277743861      -0.79410131342756796       -5.3934987065407114E-007 F
     orb,it,eci,eold,eci-eold=                    3                   20 -0.79411540359855792      -0.79410185277743861       -1.3550821119312495E-005 F
     orb,it,eci,eold,eci-eold=                    3                   21 -0.79412080999772749      -0.79411540359855792       -5.4063991695718627E-006 F
     orb,it,eci,eold,eci-eold=                    3                   22 -0.79412195286707454      -0.79412080999772749       -1.1428693470483253E-006 F
     orb,it,eci,eold,eci-eold=                    3                   23 -0.79413293346493519      -0.79412195286707454       -1.0980597860643648E-005 F
     orb,it,eci,eold,eci-eold=                    3                   24 -0.79413671969248523      -0.79413293346493519       -3.7862275500399889E-006 F
     orb,it,eci,eold,eci-eold=                    3                   25 -0.79413786162506450      -0.79413671969248523       -1.1419325792738633E-006 F
     orb,it,eci,eold,eci-eold=                    3                   26 -0.79414726342650088      -0.79413786162506450       -9.4018014363816960E-006 F
     orb,it,eci,eold,eci-eold=                    3                   27 -0.79414915211817272      -0.79414726342650088       -1.8886916718363622E-006 F
     orb,it,eci,eold,eci-eold=                    3                   28 -0.79414986400633636      -0.79414915211817272       -7.1188816364031737E-007 F
     orb,it,eci,eold,eci-eold=                    3                   29 -0.79415797166966362      -0.79414986400633636       -8.1076633272614274E-006 F
     orb,it,eci,eold,eci-eold=                    3                   30 -0.79416204800133627      -0.79415797166966362       -4.0763316726533105E-006 F
     orb,it,eci,eold,eci-eold=                    3                   31 -0.79416493452285963      -0.79416204800133627       -2.8865215233597752E-006 F
     orb,it,eci,eold,eci-eold=                    3                   32 -0.79416649025531560      -0.79416493452285963       -1.5557324559711816E-006 F
     orb,it,eci,eold,eci-eold=                    3                   33 -0.79417022681413663      -0.79416649025531560       -3.7365588210214185E-006 F
     orb,it,eci,eold,eci-eold=                    3                   34 -0.79417252180843556      -0.79417022681413663       -2.2949942989347605E-006 F
     orb,it,eci,eold,eci-eold=                    3                   35 -0.79417464878611055      -0.79417252180843556       -2.1269776749877067E-006 F
     orb,it,eci,eold,eci-eold=                    3                   36 -0.79417570175959407      -0.79417464878611055       -1.0529734835174054E-006 F
     orb,it,eci,eold,eci-eold=                    3                   37 -0.79417782360937461      -0.79417570175959407       -2.1218497805453040E-006 F
     orb,it,eci,eold,eci-eold=                    3                   38 -0.79417909820126487      -0.79417782360937461       -1.2745918902545839E-006 F
     orb,it,eci,eold,eci-eold=                    3                   39 -0.79418040017362523      -0.79417909820126487       -1.3019723603679978E-006 F
     orb,it,eci,eold,eci-eold=                    3                   40 -0.79418103754385605      -0.79418040017362523       -6.3737023081600341E-007 F
     orb,it,eci,eold,eci-eold=                    3                   41 -0.79418224112007318      -0.79418103754385605       -1.2035762171347386E-006 F
     orb,it,eci,eold,eci-eold=                    3                   42 -0.79418225075873305      -0.79418224112007318       -9.6386598702480342E-009 F
     orb,it,eci,eold,eci-eold=                    3                   43 -0.79418232255955590      -0.79418225075873305       -7.1800822842860157E-008 F
     orb,it,eci,eold,eci-eold=                    3                   44 -0.79418320545944887      -0.79418232255955590       -8.8289989297329896E-007 F
     orb,it,eci,eold,eci-eold=                    3                   45 -0.79418345353435482      -0.79418320545944887       -2.4807490595080139E-007 F
     orb,it,eci,eold,eci-eold=                    3                   46 -0.79418347374710829      -0.79418345353435482       -2.0212753470971734E-008 F
     orb,it,eci,eold,eci-eold=                    3                   47 -0.79418410120229044      -0.79418347374710829       -6.2745518214502027E-007 F
     orb,it,eci,eold,eci-eold=                    3                   48 -0.79418438493401433      -0.79418410120229044       -2.8373172389350998E-007 F
     orb,it,eci,eold,eci-eold=                    3                   49 -0.79418445580927433      -0.79418438493401433       -7.0875259994274131E-008 F
     orb,it,eci,eold,eci-eold=                    3                   50 -0.79418493783598776      -0.79418445580927433       -4.8202671343311465E-007 F
     orb,it,eci,eold,eci-eold=                    3                   51 -0.79418511186934460      -0.79418493783598776       -1.7403335683674470E-007 F
     orb,it,eci,eold,eci-eold=                    3                   52 -0.79418516832540753      -0.79418511186934460       -5.6456062935694717E-008 F
     orb,it,eci,eold,eci-eold=                    3                   53 -0.79418553174809836      -0.79418516832540753       -3.6342269083000645E-007 F
     orb,it,eci,eold,eci-eold=                    3                   54 -0.79418563310941170      -0.79418553174809836       -1.0136131334270715E-007 F
     orb,it,eci,eold,eci-eold=                    3                   55 -0.79418565854774248      -0.79418563310941170       -2.5438330775173768E-008 F
     orb,it,eci,eold,eci-eold=                    3                   56 -0.79418592271602262      -0.79418565854774248       -2.6416828013964277E-007 F
     orb,it,eci,eold,eci-eold=                    3                   57 -0.79418602785414671      -0.79418592271602262       -1.0513812409573831E-007 F
     orb,it,eci,eold,eci-eold=                    3                   58 -0.79418606611295284      -0.79418602785414671       -3.8258806123181444E-008 F
     orb,it,eci,eold,eci-eold=                    3                   59 -0.79418629562534981      -0.79418606611295284       -2.2951239697643899E-007 F
     orb,it,eci,eold,eci-eold=                    3                   60 -0.79418639425132032      -0.79418629562534981       -9.8625970501586835E-008 F
     orb,it,eci,eold,eci-eold=                    3                   61 -0.79418643377791476      -0.79418639425132032       -3.9526594441952057E-008 F
     orb,it,eci,eold,eci-eold=                    3                   62 -0.79418663756365571      -0.79418643377791476       -2.0378574094870316E-007 F
     orb,it,eci,eold,eci-eold=                    3                   63 -0.79418669719214607      -0.79418663756365571       -5.9628490367558129E-008 F
     orb,it,eci,eold,eci-eold=                    3                   64 -0.79418670828673388      -0.79418669719214607       -1.1094587804016953E-008 F
     orb,it,eci,eold,eci-eold=                    3                   65 -0.79418686298192476      -0.79418670828673388       -1.5469519087929484E-007 F
     orb,it,eci,eold,eci-eold=                    3                   66 -0.79418693097273563      -0.79418686298192476       -6.7990810870277585E-008 F
     orb,it,eci,eold,eci-eold=                    3                   67 -0.79418694584078720      -0.79418693097273563       -1.4868051567695773E-008 F
     orb,it,eci,eold,eci-eold=                    3                   68 -0.79418706426229813      -0.79418694584078720       -1.1842151093066633E-007 F
     orb,it,eci,eold,eci-eold=                    3                   69 -0.79418709990128211      -0.79418706426229813       -3.5638983986174821E-008 F
     orb,it,eci,eold,eci-eold=                    3                   70 -0.79418710586563013      -0.79418709990128211       -5.9643480154747408E-009 F
     orb,it,eci,eold,eci-eold=                    3                   71 -0.79418720128263343      -0.79418710586563013       -9.5417003298514658E-008 F
     orb,it,eci,eold,eci-eold=                    3                   72 -0.79418724289103215      -0.79418720128263343       -4.1608398726467044E-008 F
     orb,it,eci,eold,eci-eold=                    3                   73 -0.79418725053332040      -0.79418724289103215       -7.6422882466786746E-009 F
     orb,it,eci,eold,eci-eold=                    3                   74 -0.79418732082974675      -0.79418725053332040       -7.0296426346594387E-008 F
     orb,it,eci,eold,eci-eold=                    3                   75 -0.79418734883926789      -0.79418732082974675       -2.8009521146898919E-008 F
     orb,it,eci,eold,eci-eold=                    3                   76 -0.79418735718193256      -0.79418734883926789       -8.3426646702022822E-009 F
     orb,it,eci,eold,eci-eold=                    3                   77 -0.79418741597967268      -0.79418735718193256       -5.8797740121185882E-008 F
     orb,it,eci,eold,eci-eold=                    3                   78 -0.79418744011863240      -0.79418741597967268       -2.4138959719977038E-008 F
     orb,it,eci,eold,eci-eold=                    3                   79 -0.79418744732899960      -0.79418744011863240       -7.2103671922008061E-009 F
     orb,it,eci,eold,eci-eold=                    3                   80 -0.79418749272989231      -0.79418744732899960       -4.5400892711988661E-008 F
     orb,it,eci,eold,eci-eold=                    3                   81 -0.79418751027561618      -0.79418749272989231       -1.7545723873801933E-008 F
     orb,it,eci,eold,eci-eold=                    3                   82 -0.79418751646504104      -0.79418751027561618       -6.1894248615246283E-009 F
     orb,it,eci,eold,eci-eold=                    3                   83 -0.79418755302214405      -0.79418751646504104       -3.6557103011425340E-008 F
     orb,it,eci,eold,eci-eold=                    3                   84 -0.79418756520682909      -0.79418755302214405       -1.2184685038718612E-008 F
     orb,it,eci,eold,eci-eold=                    3                   85 -0.79418756872583862      -0.79418756520682909       -3.5190095282189304E-009 F
     orb,it,eci,eold,eci-eold=                    3                   86 -0.79418759670906081      -0.79418756872583862       -2.7983222183891598E-008 F
     orb,it,eci,eold,eci-eold=                    3                   87 -0.79418760781799502      -0.79418759670906081       -1.1108934216963462E-008 F
     orb,it,eci,eold,eci-eold=                    3                   88 -0.79418761128050619      -0.79418760781799502       -3.4625111666741759E-009 F
     orb,it,eci,eold,eci-eold=                    3                   89 -0.79418763317568786      -0.79418761128050619       -2.1895181667730412E-008 F
     orb,it,eci,eold,eci-eold=                    3                   90 -0.79418763993655372      -0.79418763317568786       -6.7608658671503008E-009 F
     orb,it,eci,eold,eci-eold=                    3                   91 -0.79418764158593702      -0.79418763993655372       -1.6493832966091304E-009 F
     orb,it,eci,eold,eci-eold=                    3                   92 -0.79418765796499824      -0.79418764158593702       -1.6379061218430024E-008 F
     orb,it,eci,eold,eci-eold=                    3                   93 -0.79418766371778227      -0.79418765796499824       -5.7527840269244734E-009 F
     orb,it,eci,eold,eci-eold=                    3                   94 -0.79418766524297413      -0.79418766371778227       -1.5251918616954185E-009 F
     orb,it,eci,eold,eci-eold=                    3                   95 -0.79418767977916493      -0.79418766524297413       -1.4536190806602178E-008 F
     orb,it,eci,eold,eci-eold=                    3                   96 -0.79418768712801058      -0.79418767977916493       -7.3488456431292093E-009 F
     orb,it,eci,eold,eci-eold=                    3                   97 -0.79418768932556405      -0.79418768712801058       -2.1975534725271473E-009 F
     orb,it,eci,eold,eci-eold=                    3                   98 -0.79418770158889318      -0.79418768932556405       -1.2263329129957867E-008 F
     orb,it,eci,eold,eci-eold=                    3                   99 -0.79418770557306095      -0.79418770158889318       -3.9841677734742120E-009 F
     orb,it,eci,eold,eci-eold=                    3                  100 -0.79418770626084367      -0.79418770557306095       -6.8778271966607463E-010 F
     orbital   3 current e=  0.463319E+00 error=0.808E-01 (eci= -0.794187706E+00 error=0.688E-09) iterations 100(   0 preconditioned, Ep,Sp= 20.0  200.0)
     orb,it,eci,eold,eci-eold=                    3                    1 -0.79418773382545793      -0.79418770626084367       -2.7564614257791220E-008 F
     orb,it,eci,eold,eci-eold=                    3                    2 -0.79418773951969079      -0.79418773382545793       -5.6942328630071870E-009 F
     orb,it,eci,eold,eci-eold=                    3                    3 -0.79418774495298927      -0.79418773951969079       -5.4332984777971660E-009 F
     orb,it,eci,eold,eci-eold=                    3                    4 -0.79418775510635620      -0.79418774495298927       -1.0153366925003127E-008 F
     orb,it,eci,eold,eci-eold=                    3                    5 -0.79418775814766052      -0.79418775510635620       -3.0413043194954525E-009 F
     orb,it,eci,eold,eci-eold=                    3                    6 -0.79418775929578267      -0.79418775814766052       -1.1481221529052732E-009 F
     orb,it,eci,eold,eci-eold=                    3                    7 -0.79418776159022098      -0.79418775929578267       -2.2944383060163887E-009 F
     orb,it,eci,eold,eci-eold=                    3                    8 -0.79418776248087952      -0.79418776159022098       -8.9065854691483537E-010 F
     orbital   3 current e=  0.463683E+00 error=0.364E-03 (eci= -0.794187762E+00 error=0.891E-09) iterations   8(   0 preconditioned, Ep,Sp= 20.0  200.0)
     orb,it,eci,eold,eci-eold=                    3                    1 -0.79418776714817141      -0.79418776248087952       -4.6672918863066570E-009 F
     orb,it,eci,eold,eci-eold=                    3                    2 -0.79418776784301515      -0.79418776714817141       -6.9484373810269062E-010 F
     orbital   3 current e=  0.463704E+00 error=0.208E-04 (eci= -0.794187768E+00 error=0.695E-09) iterations   2(   0 preconditioned, Ep,Sp= 20.0  200.0)
     orb,it,eci,eold,eci-eold=                    4                    1 -0.79374573685129823      -0.79366770402516040       -7.8032826137830469E-005 F
     orb,it,eci,eold,eci-eold=                    4                    2 -0.79375371402270178      -0.79374573685129823       -7.9771714035503649E-006 F
     orb,it,eci,eold,eci-eold=                    4                    3 -0.79379350197346643      -0.79375371402270178       -3.9787950764647029E-005 F
     orb,it,eci,eold,eci-eold=                    4                    4 -0.79379350840520901      -0.79379350197346643       -6.4317425829685249E-009 F
     orb,it,eci,eold,eci-eold=                    4                    5 -0.79379841391040351      -0.79379350840520901       -4.9055051944968397E-006 F
     orb,it,eci,eold,eci-eold=                    4                    6 -0.79382403450839112      -0.79379841391040351       -2.5620597987607852E-005 F
     orb,it,eci,eold,eci-eold=                    4                    7 -0.79382611760929489      -0.79382403450839112       -2.0831009037713955E-006 F
     orb,it,eci,eold,eci-eold=                    4                    8 -0.79383290489523040      -0.79382611760929489       -6.7872859355055937E-006 F
     orb,it,eci,eold,eci-eold=                    4                    9 -0.79385374307968393      -0.79383290489523040       -2.0838184453531028E-005 F
     orb,it,eci,eold,eci-eold=                    4                   10 -0.79385987396607294      -0.79385374307968393       -6.1308863890108256E-006 F
     orb,it,eci,eold,eci-eold=                    4                   11 -0.79386705064003860      -0.79385987396607294       -7.1766739656586864E-006 F
     orb,it,eci,eold,eci-eold=                    4                   12 -0.79388415080822561      -0.79386705064003860       -1.7100168187011988E-005 F
     orb,it,eci,eold,eci-eold=                    4                   13 -0.79388823708311651      -0.79388415080822561       -4.0862748909020752E-006 F
     orb,it,eci,eold,eci-eold=                    4                   14 -0.79389275220058464      -0.79388823708311651       -4.5151174681290485E-006 F
     orb,it,eci,eold,eci-eold=                    4                   15 -0.79390616839497952      -0.79389275220058464       -1.3416194394877401E-005 F
     orb,it,eci,eold,eci-eold=                    4                   16 -0.79390900277005749      -0.79390616839497952       -2.8343750779757926E-006 F
     orb,it,eci,eold,eci-eold=                    4                   17 -0.79391150778594866      -0.79390900277005749       -2.5050158911632536E-006 F
     orb,it,eci,eold,eci-eold=                    4                   18 -0.79392127716731464      -0.79391150778594866       -9.7693813659871509E-006 F
     orb,it,eci,eold,eci-eold=                    4                   19 -0.79392351807406181      -0.79392127716731464       -2.2409067471640398E-006 F
     orb,it,eci,eold,eci-eold=                    4                   20 -0.79392491608486404      -0.79392351807406181       -1.3980108022337845E-006 F
     orb,it,eci,eold,eci-eold=                    4                   21 -0.79393110734500127      -0.79392491608486404       -6.1912601372338116E-006 F
     orb,it,eci,eold,eci-eold=                    4                   22 -0.79393253254385243      -0.79393110734500127       -1.4251988511571057E-006 F
     orb,it,eci,eold,eci-eold=                    4                   23 -0.79393342635468278      -0.79393253254385243       -8.9381083034911768E-007 F
     orb,it,eci,eold,eci-eold=                    4                   24 -0.79393737917314422      -0.79393342635468278       -3.9528184614390227E-006 F
     orb,it,eci,eold,eci-eold=                    4                   25 -0.79393862358661871      -0.79393737917314422       -1.2444134744882263E-006 F
     orb,it,eci,eold,eci-eold=                    4                   26 -0.79393947038829082      -0.79393862358661871       -8.4680167211637070E-007 F
     orb,it,eci,eold,eci-eold=                    4                   27 -0.79394228298393432      -0.79393947038829082       -2.8125956434976729E-006 F
     orb,it,eci,eold,eci-eold=                    4                   28 -0.79394328104520950      -0.79394228298393432       -9.9806127518142773E-007 F
     orb,it,eci,eold,eci-eold=                    4                   29 -0.79394402074912784      -0.79394328104520950       -7.3970391833988458E-007 F
     orb,it,eci,eold,eci-eold=                    4                   30 -0.79394614145782061      -0.79394402074912784       -2.1207086927654828E-006 F
     orb,it,eci,eold,eci-eold=                    4                   31 -0.79394686522640168      -0.79394614145782061       -7.2376858106792952E-007 F
     orb,it,eci,eold,eci-eold=                    4                   32 -0.79394741463297303      -0.79394686522640168       -5.4940657134849857E-007 F
     orb,it,eci,eold,eci-eold=                    4                   33 -0.79394896284239147      -0.79394741463297303       -1.5482094184449124E-006 F
     orb,it,eci,eold,eci-eold=                    4                   34 -0.79394943552031771      -0.79394896284239147       -4.7267792624428040E-007 F
     orb,it,eci,eold,eci-eold=                    4                   35 -0.79394980281680061      -0.79394943552031771       -3.6729648289490768E-007 F
     orb,it,eci,eold,eci-eold=                    4                   36 -0.79395086472540777      -0.79394980281680061       -1.0619086071583794E-006 F
     orb,it,eci,eold,eci-eold=                    4                   37 -0.79395115075055211      -0.79395086472540777       -2.8602514434705739E-007 F
     orb,it,eci,eold,eci-eold=                    4                   38 -0.79395139247919411      -0.79395115075055211       -2.4172864199201172E-007 F
     orb,it,eci,eold,eci-eold=                    4                   39 -0.79395211074283822      -0.79395139247919411       -7.1826364411720078E-007 F
     orb,it,eci,eold,eci-eold=                    4                   40 -0.79395227620188913      -0.79395211074283822       -1.6545905090481483E-007 F
     orb,it,eci,eold,eci-eold=                    4                   41 -0.79395243258132986      -0.79395227620188913       -1.5637944072999233E-007 F
     orb,it,eci,eold,eci-eold=                    4                   42 -0.79395294303539032      -0.79395243258132986       -5.1045406046501540E-007 F
     orb,it,eci,eold,eci-eold=                    4                   43 -0.79395304656814836      -0.79395294303539032       -1.0353275803343109E-007 F
     orb,it,eci,eold,eci-eold=                    4                   44 -0.79395313961694025      -0.79395304656814836       -9.3048791893757254E-008 F
     orb,it,eci,eold,eci-eold=                    4                   45 -0.79395352894893945      -0.79395313961694025       -3.8933199919544137E-007 F
     orb,it,eci,eold,eci-eold=                    4                   46 -0.79395362261916447      -0.79395352894893945       -9.3670225020936471E-008 F
     orb,it,eci,eold,eci-eold=                    4                   47 -0.79395367572260211      -0.79395362261916447       -5.3103437647195051E-008 F
     orb,it,eci,eold,eci-eold=                    4                   48 -0.79395397827008962      -0.79395367572260211       -3.0254748750735416E-007 F
     orb,it,eci,eold,eci-eold=                    4                   49 -0.79395408141064072      -0.79395397827008962       -1.0314055109983400E-007 F
     orb,it,eci,eold,eci-eold=                    4                   50 -0.79395411831201745      -0.79395408141064072       -3.6901376732068059E-008 F
     orb,it,eci,eold,eci-eold=                    4                   51 -0.79395433709007424      -0.79395411831201745       -2.1877805678194306E-007 F
     orb,it,eci,eold,eci-eold=                    4                   52 -0.79395443798752485      -0.79395433709007424       -1.0089745061669930E-007 F
     orb,it,eci,eold,eci-eold=                    4                   53 -0.79395448195245710      -0.79395443798752485       -4.3964932250339928E-008 F
     orb,it,eci,eold,eci-eold=                    4                   54 -0.79395463572526548      -0.79395448195245710       -1.5377280837558516E-007 F
     orb,it,eci,eold,eci-eold=                    4                   55 -0.79395469037581079      -0.79395463572526548       -5.4650545311396570E-008 F
     orb,it,eci,eold,eci-eold=                    4                   56 -0.79395472845105486      -0.79395469037581079       -3.8075244068735969E-008 F
     orb,it,eci,eold,eci-eold=                    4                   57 -0.79395485433741009      -0.79395472845105486       -1.2588635522892133E-007 F
     orb,it,eci,eold,eci-eold=                    4                   58 -0.79395487892100514      -0.79395485433741009       -2.4583595048532914E-008 F
     orb,it,eci,eold,eci-eold=                    4                   59 -0.79395489393487884      -0.79395487892100514       -1.5013873699842861E-008 F
     orb,it,eci,eold,eci-eold=                    4                   60 -0.79395499350131726      -0.79395489393487884       -9.9566438427345361E-008 F
     orb,it,eci,eold,eci-eold=                    4                   61 -0.79395502877209001      -0.79395499350131726       -3.5270772746898160E-008 F
     orb,it,eci,eold,eci-eold=                    4                   62 -0.79395503934658951      -0.79395502877209001       -1.0574499498261503E-008 F
     orb,it,eci,eold,eci-eold=                    4                   63 -0.79395511142745268      -0.79395503934658951       -7.2080863167123255E-008 F
     orb,it,eci,eold,eci-eold=                    4                   64 -0.79395513611610502      -0.79395511142745268       -2.4688652344728723E-008 F
[...]
   10    7   10   10       -0.0039835432
   10    7   11   10        0.0000233134
   10    7   12   10       -0.0000000007
   10    7   13   10        0.0000000041
   10    7   11   11       -0.0164558088
   10    7   12   11       -0.0000069150
   10    7   13   11        0.0000068652
   10    7   12   12       -0.0132334039
   10    7   13   12        0.0000000613
   10    7   13   13       -0.0132401997
   11    7   11    7        0.0395263991
   11    7   12    7        0.0000437459
   11    7   13    7       -0.0000633755
   11    7    8    8        0.0000061760
   11    7    9    8       -0.0000000089
   11    7   10    8        0.0000001521
   11    7   11    8       -0.0000258152
   11    7   12    8        0.0017372385
   11    7   13    8        0.0303374518
   11    7    9    9        0.0000061884
   11    7   10    9       -0.0000000639
   11    7   11    9        0.0000001517
   11    7   12    9        0.0303248267
   11    7   13    9       -0.0017253274
   11    7   10   10        0.0000137436
   11    7   11   10       -0.0391433724
   11    7   12   10        0.0000192576
   11    7   13   10       -0.0000509734
   11    7   11   11       -0.0000014104
   11    7   12   11        0.0000000053
   11    7   13   11       -0.0000000472
   11    7   12   12        0.0000006084
   11    7   13   12       -0.0000000003
   11    7   13   13        0.0000006700
   12    7   12    7        0.0210093969
   12    7   13    7        0.0000003335
   12    7    8    8        0.0000005216
   12    7    9    8       -0.0000001214
   12    7   10    8       -0.0000000745
   12    7   11    8       -0.0002784065
   12    7   12    8       -0.0000037707
   12    7   13    8        0.0000656019
   12    7    9    9        0.0000006462
   12    7   10    9       -0.0000012937
   12    7   11    9       -0.0048904074
   12    7   12    9        0.0000666801
   12    7   13    9       -0.0000064169
   12    7   10   10        0.0000005309
   12    7   11   10       -0.0000822362
   12    7   12   10       -0.0117055722
   12    7   13   10        0.0000018076
   12    7   11   11        0.0000005687
   12    7   12   11       -0.0000004925
   12    7   13   11        0.0000000006
   12    7   12   12        0.0000005903
   12    7   13   12       -0.0000000911
   12    7   13   13        0.0000005267
   13    7   13    7        0.0210382168
   13    7    8    8       -0.0000016069
   13    7    9    8        0.0000000579
   13    7   10    8       -0.0000012907
   13    7   11    8       -0.0048936697
   13    7   12    8       -0.0000047600
   13    7   13    8       -0.0001035644
   13    7    9    9       -0.0000013709
   13    7   10    9        0.0000000727
   13    7   11    9        0.0002796676
   13    7   12    9       -0.0000936114
   13    7   13    9        0.0000054855
   13    7   10   10       -0.0000013274
   13    7   11   10        0.0001198471
   13    7   12   10        0.0000018857
   13    7   13   10       -0.0117234595
   13    7   11   11       -0.0000014572
   13    7   12   11        0.0000000006
   13    7   13   11       -0.0000004917
   13    7   12   12       -0.0000013317
   13    7   13   12        0.0000000372
   13    7   13   13       -0.0000015184
    8    8    8    8        0.3159161236
    8    8    9    8       -0.0000000303
    8    8   10    8        0.0000077179
    8    8   11    8       -0.0000000068
    8    8   12    8        0.0000003150
    8    8   13    8        0.0000055508
    8    8    9    9        0.2886982997
    8    8   10    9       -0.0000000184
    8    8   11    9       -0.0000000004
    8    8   12    9        0.0000048780
    8    8   13    9       -0.0000002886
    8    8   10   10        0.2994239940
    8    8   11   10       -0.0000077546
    8    8   12   10        0.0000000582
    8    8   13   10       -0.0000001002
    8    8   11   11        0.3007244221
    8    8   12   11        0.0000039062
    8    8   13   11       -0.0000192997
    8    8   12   12        0.2825567195
    8    8   13   12        0.0011424409
    8    8   13   13        0.3021922902
    9    8    9    8        0.0142113410
    9    8   10    8       -0.0000000025
    9    8   11    8        0.0000000000
    9    8   12    8        0.0000003349
    9    8   13    8       -0.0000000306
    9    8    9    9        0.0000000303
    9    8   10    9        0.0000007723
    9    8   11    9       -0.0000000007
    9    8   12    9        0.0000000067
    9    8   13    9        0.0000003372
    9    8   10   10       -0.0000000000
    9    8   11   10        0.0000000155
    9    8   12   10       -0.0000000090
    9    8   13   10        0.0000000062
    9    8   11   11       -0.0000000007
    9    8   12   11       -0.0000058788
    9    8   13   11        0.0000004230
    9    8   12   12        0.0011374437
    9    8   13   12        0.0100835326
    9    8   13   13       -0.0011370122
   10    8   10    8        0.0154129484
   10    8   11    8       -0.0000009984
   10    8   12    8       -0.0000000012
   10    8   13    8       -0.0000001378
   10    8    9    9        0.0000063464
   10    8   10    9        0.0000000000
   10    8   11    9        0.0000000012
   10    8   12    9       -0.0000001181
   10    8   13    9        0.0000000145
   10    8   10   10        0.0000062034
   10    8   11   10        0.0000001788
   10    8   12   10       -0.0000000222
   10    8   13   10       -0.0000003873
   10    8   11   11        0.0000202246
   10    8   12   11       -0.0004915082
   10    8   13   11       -0.0085875120
   10    8   12   12        0.0000131813
   10    8   13   12        0.0000073142
   10    8   13   13       -0.0000248050
   11    8   11    8        0.0129569396
   11    8   12    8        0.0000033697
   11    8   13    8       -0.0000381328
   11    8    9    9       -0.0000000054
   11    8   10    9        0.0000000013
   11    8   11    9       -0.0000000011
   11    8   12    9       -0.0000325962
   11    8   13    9        0.0000018923
   11    8   10   10        0.0000000198
   11    8   11   10        0.0000421310
   11    8   12   10        0.0000535478
   11    8   13   10        0.0009700055
   11    8   11   11        0.0000000037
   11    8   12   11       -0.0000000105
   11    8   13   11       -0.0000001746
   11    8   12   12        0.0000000003
   11    8   13   12       -0.0000000007
   11    8   13   13       -0.0000000016
   12    8   12    8        0.0059225256
   12    8   13    8        0.0027565430
   12    8    9    9        0.0000002757
   12    8   10    9       -0.0000000074
   12    8   11    9        0.0000005477
   12    8   12    9        0.0027813416
   12    8   13    9        0.0056062301
   12    8   10   10        0.0000005523
   12    8   11   10       -0.0028180092
   12    8   12   10        0.0000082167
   12    8   13   10        0.0000057399
   12    8   11   11       -0.0000002468
   12    8   12   11       -0.0000000012
   12    8   13   11       -0.0000000002
   12    8   12   12       -0.0000001018
   12    8   13   12       -0.0000000553
   12    8   13   13       -0.0000000787
   13    8   13    8        0.0540051151
   13    8    9    9        0.0000049148
   13    8   10    9        0.0000000579
   13    8   11    9        0.0000004548
   13    8   12    9        0.0427590635
   13    8   13    9       -0.0027662484
   13    8   10   10        0.0000096975
   13    8   11   10       -0.0491696068
   13    8   12   10        0.0000264105
   13    8   13   10       -0.0000799289
   13    8   11   11       -0.0000042158
   13    8   12   11       -0.0000000327
   13    8   13   11        0.0000000455
   13    8   12   12       -0.0000014678
   13    8   13   12        0.0000000026
   13    8   13   13       -0.0000014896
    9    9    9    9        0.3158592370
    9    9   10    9       -0.0000000231
    9    9   11    9       -0.0000000004
    9    9   12    9        0.0000055345
    9    9   13    9       -0.0000003277
    9    9   10   10        0.2994037810
    9    9   11   10       -0.0000077683
    9    9   12   10        0.0000000642
    9    9   13   10       -0.0000000809
    9    9   11   11        0.3007010204
    9    9   12   11        0.0000045773
    9    9   13   11       -0.0000077721
    9    9   12   12        0.3020937636
    9    9   13   12       -0.0011302767
    9    9   13   13        0.2826005673
   10    9   10    9        0.0154170118
   10    9   11    9       -0.0000009992
   10    9   12    9        0.0000000595
   10    9   13    9       -0.0000000096
   10    9   10   10       -0.0000000190
   10    9   11   10       -0.0000000817
   10    9   12   10       -0.0000003911
   10    9   13   10        0.0000000220
   10    9   11   11       -0.0000005621
   10    9   12   11       -0.0085901638
   10    9   13   11        0.0004886599
   10    9   12   12        0.0000163497
   10    9   13   12       -0.0000191235
   10    9   13   13        0.0000020767
   11    9   11    9        0.0129552516
   11    9   12    9        0.0000054285
   11    9   13    9       -0.0000060650
   11    9   10   10       -0.0000000135
   11    9   11   10       -0.0000008861
   11    9   12   10        0.0009709698
   11    9   13   10       -0.0000569772
   11    9   11   11       -0.0000000007
   11    9   12   11       -0.0000001773
   11    9   13   11        0.0000000091
   11    9   12   12       -0.0000000047
   11    9   13   12       -0.0000000002
   11    9   13   13        0.0000000012
   12    9   12    9        0.0539662010
   12    9   13    9       -0.0027381439
   12    9   10   10        0.0000096654
   12    9   11   10       -0.0491483140
   12    9   12   10        0.0000365600
   12    9   13   10       -0.0000702295
   12    9   11   11       -0.0000042461
   12    9   12   11       -0.0000000341
   12    9   13   11        0.0000000423
   12    9   12   12       -0.0000016065
   12    9   13   12       -0.0000000042
   12    9   13   13       -0.0000014191
   13    9   13    9        0.0059204830
   13    9   10   10       -0.0000005601
   13    9   11   10        0.0027940802
   13    9   12   10       -0.0000180243
   13    9   13   10        0.0000048865
   13    9   11   11        0.0000002283
   13    9   12   11        0.0000000039
   13    9   13   11       -0.0000000033
   13    9   12   12        0.0000000668
   13    9   13   12       -0.0000000531
   13    9   13   13        0.0000000792
   10   10   10   10        0.3395544632
   10   10   11   10       -0.0000165244
   10   10   12   10        0.0000000670
   10   10   13   10       -0.0000000871
   10   10   11   11        0.3320731273
   10   10   12   11       -0.0000100959
   10   10   13   11        0.0000234109
   10   10   12   12        0.3020590239
   10   10   13   12        0.0000042261
   10   10   13   13        0.3021229593
   11   10   11   10        0.0769308052
   11   10   12   10       -0.0000278458
   11   10   13   10        0.0000731984
   11   10   11   11        0.0000059830
   11   10   12   11        0.0000000484
   11   10   13   11       -0.0000000584
   11   10   12   12        0.0000022138
   11   10   13   12       -0.0000000003
   11   10   13   13        0.0000021014
   12   10   12   10        0.0152485822
   12   10   13   10       -0.0000021393
   12   10   11   11        0.0000000694
   12   10   12   11        0.0000006564
   12   10   13   11       -0.0000000000
   12   10   12   12        0.0000000670
   12   10   13   12       -0.0000000052
   12   10   13   13        0.0000000578
   13   10   13   10        0.0152578338
   13   10   11   11       -0.0000000885
   13   10   12   11       -0.0000000000
   13   10   13   11        0.0000006476
   13   10   12   12       -0.0000000784
   13   10   13   12        0.0000000037
   13   10   13   13       -0.0000000879
   11   11   11   11        0.3533499974
   11   11   12   11       -0.0000006540
   11   11   13   11       -0.0000018747
   11   11   12   12        0.3138785222
   11   11   13   12        0.0000062855
   11   11   13   13        0.3139563900
   12   11   12   11        0.0133271938
   12   11   13   11        0.0000009116
   12   11   12   12        0.0000014820
   12   11   13   12        0.0000014328
   12   11   13   13        0.0000040612
   13   11   13   11        0.0133315168
   13   11   12   12       -0.0000077921
   13   11   13   12       -0.0000014141
   13   11   13   13       -0.0000049649
   12   12   12   12        0.3145150686
   12   12   13   12       -0.0000074119
   12   12   13   13        0.2919482911
   13   12   13   12        0.0115537940
   13   12   13   13        0.0000216033
   13   13   13   13        0.3146682214
 end_two_electron_integrals


 output epsi filename:./pspw_hf_H2.emovecs

 Total PSPW energy     :  -0.7921382280E+00


=== Spin Contamination ===

 <Sexact^2> =    0.0000000000000000     
 <S^2>      =    0.0000000000000000     



== Center of Charge ==

spin up     (    0.0000,    0.0000,    0.0001 )
spin down   (    0.0000,    0.0000,    0.0001 )
     total  (    0.0000,    0.0000,    0.0001 )
ionic       (    0.0000,    0.0000,    0.0000 )


== Molecular Dipole wrt Center of Mass ==

mu   =  (   -0.0000,   -0.0000,   -0.0001 ) au
|mu| =     0.0001 au,       0.0003 Debye

 output psi filename:./pspw_hf_H2.movecs

 Writing Crystallographic Information File:./H2.cif
   - cell not shifted (nwpw:cif_shift_cell .false.)


== Timing ==

cputime in seconds
  prologue    :   0.686983E+01
  main loop   :   0.124001E+04
  epilogue    :   0.315193E-01
  total       :   0.124691E+04
  cputime/step:   0.821199E+01       (     151 evalulations,      63 linesearches)


Time spent doing                        total          step       percent
  total time                 :   0.124692E+04  0.825776E+01       100.0 %
  i/o time                   :   0.588017E+00  0.389415E-02         0.0 %
  FFTs                       :   0.937965E+03  0.621169E+01        75.2 %
  dot products               :   0.119990E+02  0.794633E-01         1.0 %
  geodesic                   :   0.707138E-01  0.468303E-03         0.0 %
  ffm_dgemm                  :   0.110323E-01  0.730616E-04         0.0 %
  fmf_dgemm                  :   0.184029E-01  0.121873E-03         0.0 %
  mmm_dgemm                  :   0.299221E-02  0.198160E-04         0.0 %
  m_diagonalize              :   0.133167E-02  0.881900E-05         0.0 %
  local pseudopotentials     :   0.156455E+02  0.103613E+00         1.3 %
  non-local pseudopotentials :   0.104854E+02  0.694395E-01         0.8 %
  structure factors          :   0.208071E+01  0.137795E-01         0.2 %
  phase factors              :   0.877200E-05  0.580927E-07         0.0 %
  masking and packing        :   0.142025E+02  0.940560E-01         1.1 %
  queue fft                  :   0.154544E+02  0.102347E+00         1.2 %
  queue fft (serial)         :   0.540057E+01  0.357653E-01         0.4 %
  queue fft (message passing):   0.995768E+01  0.659449E-01         0.8 %
  HFX potential              :   0.133063E+02  0.881211E-01         1.1 %
  non-local psp FFM          :   0.976057E+01  0.646396E-01         0.8 %
  non-local psp FMF          :   0.196897E+00  0.130395E-02         0.0 %
  non-local psp FFM A        :   0.155989E+00  0.103304E-02         0.0 %
  non-local psp FFM B        :   0.287601E+00  0.190464E-02         0.0 %

== HFX Counters ==
  HFX Evalulations         =   151
  Lin ACE HFX Evalulations =     0


     >>>  JOB COMPLETED     AT Tue Apr 22 15:14:58 2025  <<<

 Task  times  cpu:     1161.1s     wall:     1246.9s


                                NWChem Input Module
                                -------------------


 Summary of allocated global arrays
-----------------------------------
  No active global arrays


MA_summarize_allocated_blocks: starting scan ...
MA_summarize_allocated_blocks: scan completed: 0 heap blocks, 0 stack blocks
MA usage statistics:

	allocation statistics:
					      heap	     stack
					      ----	     -----
	current number of blocks	         0	         0
	maximum number of blocks	       313	        36
	current total bytes		         0	         0
	maximum total bytes		  41047664	  13584712
	maximum total K-bytes		     41048	     13585
	maximum total M-bytes		        42	        14


                                     CITATION
                                     --------
                Please cite the following reference when publishing
                           results obtained with NWChem:

          E. Apra, E. J. Bylaska, W. A. de Jong, N. Govind, K. Kowalski,
       T. P. Straatsma, M. Valiev, H. J. J. van Dam, Y. Alexeev, J. Anchell,
       V. Anisimov, F. W. Aquino, R. Atta-Fynn, J. Autschbach, N. P. Bauman,
     J. C. Becca, D. E. Bernholdt, K. Bhaskaran-Nair, S. Bogatko, P. Borowski,
         J. Boschen, J. Brabec, A. Bruner, E. Cauet, Y. Chen, G. N. Chuev,
      C. J. Cramer, J. Daily, M. J. O. Deegan, T. H. Dunning Jr., M. Dupuis,
   K. G. Dyall, G. I. Fann, S. A. Fischer, A. Fonari, H. Fruchtl, L. Gagliardi,
      J. Garza, N. Gawande, S. Ghosh, K. Glaesemann, A. W. Gotz, J. Hammond,
       V. Helms, E. D. Hermes, K. Hirao, S. Hirata, M. Jacquelin, L. Jensen,
   B. G. Johnson, H. Jonsson, R. A. Kendall, M. Klemm, R. Kobayashi, V. Konkov,
      S. Krishnamoorthy, M. Krishnan, Z. Lin, R. D. Lins, R. J. Littlefield,
      A. J. Logsdail, K. Lopata, W. Ma, A. V. Marenich, J. Martin del Campo,
   D. Mejia-Rodriguez, J. E. Moore, J. M. Mullin, T. Nakajima, D. R. Nascimento,
    J. A. Nichols, P. J. Nichols, J. Nieplocha, A. Otero-de-la-Roza, B. Palmer,
    A. Panyala, T. Pirojsirikul, B. Peng, R. Peverati, J. Pittner, L. Pollack,
   R. M. Richard, P. Sadayappan, G. C. Schatz, W. A. Shelton, D. W. Silverstein,
   D. M. A. Smith, T. A. Soares, D. Song, M. Swart, H. L. Taylor, G. S. Thomas,
            V. Tipparaju, D. G. Truhlar, K. Tsemekhman, T. Van Voorhis,
      A. Vazquez-Mayagoitia, P. Verma, O. Villa, A. Vishnu, K. D. Vogiatzis,
        D. Wang, J. H. Weare, M. J. Williamson, T. L. Windus, K. Wolinski,
        A. T. Wong, Q. Wu, C. Yang, Q. Yu, M. Zacharias, Z. Zhang, Y. Zhao,
                                and R. J. Harrison
                        "NWChem: Past, present, and future
                         J. Chem. Phys. 152, 184102 (2020)
                               doi:10.1063/5.0004997

                                      AUTHORS
                                      -------
  E. Apra, E. J. Bylaska, N. Govind, K. Kowalski, M. Valiev, D. Mejia-Rodriguez,
       A. Kunitsa, N. P. Bauman, A. Panyala, W. A. de Jong, T. P. Straatsma,
   H. J. J. van Dam, D. Wang, T. L. Windus, J. Hammond, J. Autschbach, A. Woods,
    K. Bhaskaran-Nair, J. Brabec, K. Lopata, S. A. Fischer, S. Krishnamoorthy,
     M. Jacquelin, W. Ma, M. Klemm, O. Villa, Y. Chen, V. Anisimov, F. Aquino,
     S. Hirata, M. T. Hackler, E. Hermes, L. Jensen, J. E. Moore, J. C. Becca,
      V. Konjkov, T. Risthaus, M. Malagoli, A. Marenich, A. Otero-de-la-Roza,
        J. Mullin, P. Nichols, R. Peverati, J. Pittner, Y. Zhao, P.-D. Fan,
        A. Fonari, M. J. Williamson, R. J. Harrison, J. R. Rehr, M. Dupuis,
     D. Silverstein, D. M. A. Smith, J. Nieplocha, V. Tipparaju, M. Krishnan,
     B. E. Van Kuiken, A. Vazquez-Mayagoitia, M. Swart, Q. Wu, T. Van Voorhis,
     A. A. Auer, M. Nooijen, L. D. Crosby, E. Brown, G. Cisneros, G. I. Fann,
   H. Fruchtl, J. Garza, K. Hirao, R. A. Kendall, J. A. Nichols, K. Tsemekhman,
    K. Wolinski, J. Anchell, D. E. Bernholdt, P. Borowski, T. Clark, D. Clerc,
   H. Dachsel, M. J. O. Deegan, K. Dyall, D. Elwood, E. Glendening, M. Gutowski,
   A. C. Hess, J. Jaffe, B. G. Johnson, J. Ju, R. Kobayashi, R. Kutteh, Z. Lin,
   R. Littlefield, X. Long, B. Meng, T. Nakajima, S. Niu, L. Pollack, M. Rosing,
   K. Glaesemann, G. Sandrone, M. Stave, H. Taylor, G. Thomas, J. H. van Lenthe,
                               A. T. Wong, Z. Zhang.

 Total times  cpu:     1161.1s     wall:     1247.0s
