 argument  1 = H2-5.0.nw



============================== echo of input deck ==============================
title "swnc: e theory=pspw4 xc=hf formula=H2 charge=0 mult=1"
#machinejob:expert

echo

start pspw_hf_H2

memory heap 1200 mb stack 1200 mb global 10 mb

charge 0

geometry
H    0.00000    0.00000   -2.50000
H    0.00000    0.00000    2.50000
end

nwpw
  ### pseudopotential block begin ###
  ### pseudopotential block end   ###
  simulation_cell
     SC 15.0000
     boundary_conditions aperiodic
  end

  cutoff 50.0
  mult 1
  xc hf
  lmbfgs
  tolerances 1.0e-9 1.0e-9

  virtual 12
end
set nwpw:cif_filename H2

#set nwpw:CI_maxit_orb 15
#set nwpw:CI_maxit_linesearch 15
set pspw:HFX_screening_radius 14.0


set nwpw:2qintegrals .true.
set nwpw:3x3_virtual .true.

task pspw energy
================================================================================


                                         
                                         


             Northwest Computational Chemistry Package (NWChem) 7.2.3
             --------------------------------------------------------


                    Environmental Molecular Sciences Laboratory
                       Pacific Northwest National Laboratory
                                Richland, WA 99352

                              Copyright (c) 1994-2022
                       Pacific Northwest National Laboratory
                            Battelle Memorial Institute

             NWChem is an open-source computational chemistry package
                        distributed under the terms of the
                      Educational Community License (ECL) 2.0
             A copy of the license is included with this distribution
                              in the LICENSE.TXT file

                                  ACKNOWLEDGMENT
                                  --------------

            This software and its documentation were developed at the
            EMSL at Pacific Northwest National Laboratory, a multiprogram
            national laboratory, operated for the U.S. Department of Energy
            by Battelle under Contract Number DE-AC05-76RL01830. Support
            for this work was provided by the Department of Energy Office
            of Biological and Environmental Research, Office of Basic
            Energy Sciences, and the Office of Advanced Scientific Computing.


           Job information
           ---------------

    hostname        = mqs-al
    program         = nwchem
    date            = Sun Apr  6 19:10:05 2025

    compiled        = Thu_Oct_31_08:55:15_2024
    source          = /home/conda/feedstock_root/build_artifacts/nwchem_1730356057992/work
    nwchem branch   = 7.2.3
    nwchem revision = c400b04
    ga revision     = 5.8.0
    use scalapack   = T
    input           = H2-5.0.nw
    prefix          = pspw_hf_H2.
    data base       = ./pspw_hf_H2.db
    status          = startup
    nproc           =       24
    time left       =     -1s



           Memory information
           ------------------

    heap     =  157286400 doubles =   1200.0 Mbytes
    stack    =  157286397 doubles =   1200.0 Mbytes
    global   =    1310720 doubles =     10.0 Mbytes (distinct from heap & stack)
    total    =  315883517 doubles =   2410.0 Mbytes
    verify   = yes
    hardfail = no 


           Directory information
           ---------------------

  0 permanent = .
  0 scratch   = .




                                NWChem Input Module
                                -------------------


               swnc: e theory=pspw4 xc=hf formula=H2 charge=0 mult=1
               -----------------------------------------------------

 Scaling coordinates for geometry "geometry" by  1.889725989
 (inverse scale =  0.529177249)

  zeroes
  zeroes
  zeroes
  zeroes
  zeroes
  zeroes
  zeroes
  zeroes
  zeroes
  zeroes
  zeroes
  zeroes
  zeroes
  zeroes
  zeroes
  zeroes
  zeroes
  zeroes
  zeroes
  zeroes
  zeroes
  zeroes
  zeroes
  zeroes
  zeroes
  zeroes
  zeroes
  zeroes
  zeroes
  zeroes
  zeroes
  zeroes
  zeroes
  zeroes
  zeroes
  zeroes
  zeroes
  zeroes
  zeroes
  zeroes
  zeroes
  zeroes
  zeroes
  zeroes
  zeroes
  zeroes
  zeroes
  zeroes
 ORDER OF PRIMARY AXIS IS BEING SET TO 4
 D4H symmetry detected

          ------
          auto-z
          ------
     1 autoz failed with cvr_scaling = 1.2 changing to 1.3
     2 autoz failed with cvr_scaling = 1.3 changing to 1.4
     3 autoz failed with cvr_scaling = 1.4 changing to 1.5
     4 autoz failed with cvr_scaling = 1.5 changing to 1.6
     5 autoz failed with cvr_scaling = 1.6 changing to 1.7

 AUTOZ failed to generate good internal coordinates.
 Cartesian coordinates will be used in optimizations.



                             Geometry "geometry" -> ""
                             -------------------------

 Output coordinates in angstroms (scale by  1.889725989 to convert to a.u.)

  No.       Tag          Charge          X              Y              Z
 ---- ---------------- ---------- -------------- -------------- --------------
    1 H                    1.0000     0.00000000     0.00000000    -2.50000000
    2 H                    1.0000     0.00000000     0.00000000     2.50000000

      Atomic Mass 
      ----------- 

      H                  1.007825


 Effective nuclear repulsion energy (a.u.)       0.1058354498

            Nuclear Dipole moment (a.u.) 
            ----------------------------
        X                 Y               Z
 ---------------- ---------------- ----------------
     0.0000000000     0.0000000000     0.0000000000

      Symmetry information
      --------------------

 Group name             D4h       
 Group number             28
 Group order              16
 No. of unique centers     1

      Symmetry unique atoms

     1


            XYZ format geometry
            -------------------
     2
 geometry
 H                     0.00000000     0.00000000    -2.50000000
 H                     0.00000000     0.00000000     2.50000000

          ****************************************************
          *                                                  *
          *               NWPW PSPW Calculation              *
          *                                                  *
          * [ (Grassmann/Stiefel manifold implementation)  ] *
          *                                                  *
          *      [ NorthWest Chemistry implementation ]      *
          *                                                  *
          *            version #5.10   06/12/02              *
          *                                                  *
          *    This code was developed by Eric J. Bylaska,   *
          *    and was based upon algorithms and code        *
          *    developed by the group of Prof. John H. Weare *
          *                                                  *
          ****************************************************
     >>>  JOB STARTED       AT Sun Apr  6 19:10:06 2025  <<<
          ================ input data ========================

 input psi filename:./pspw_hf_H2.movecs

 number of processors used:        24
 processor grid           :  24 x   1
 parallel mapping         :2d-hilbert
 parallel mapping         :  balanced
 number of threads        :         1
 parallel io              :       off

 options:
      boundary conditions  = aperiodic   (version4)
      electron spin        = restricted
      exchange-correlation = Hartree-Fock
      - HFX relaxed
      - HFX restricted orbitals :    1
      - HFX free-space coulomb solver


 elements involved in the cluster:
      1: H   valence charge:  1.0000  lmax=  1
             comment    : Parameterized (Chem.Phys.Lett., vol 322, page 447) Hamman psp
             pseudpotential type            :   0
             highest angular component      :   1
             local potential used           :   1
             number of non-local projections:   1
             aperiodic cutoff radius        :  1.000
             cutoff =   0.800   0.800


 total charge:   0.000

 atomic composition:
     H   :    2

 number of electrons: spin up=     1 (   1 per task)  down=     1 (   1 per task) (Fourier space)
 number of orbitals : spin up=     1 (   1 per task)  down=     1 (   1 per task) (Fourier space)

 supercell:
      cell_name:  cell_default                                      
      lattice:    a1=<  15.000   0.000   0.000 >
                  a2=<   0.000  15.000   0.000 >
                  a3=<   0.000   0.000  15.000 >
      reciprocal: b1=<   0.419   0.000   0.000 >
                  b2=<   0.000   0.419   0.000 >
                  b3=<   0.000   0.000   0.419 >
      lattice:    a=      15.000 b=     15.000 c=      15.000
                  alpha=  90.000 beta=  90.000 gamma=  90.000
                  omega=      3375.0

      density cutoff=100.000  fft= 70x 70x 70(    80618 waves     3359 per task)
      wavefnc cutoff= 50.000  fft= 70x 70x 70(    28526 waves     1188 per task)

 technical parameters:
      time step=      5.80     fictitious mass=  400000.0
      tolerance=0.100E-08 (energy)   0.100E-08 (density)
      maximum iterations =      1000 (   10 inner    100 outer )





== Energy Calculation ==


          ============ Grassmann lmbfgs iteration ============
     >>>  ITERATION STARTED AT Sun Apr  6 19:10:12 2025  <<<
    iter.           Energy         DeltaE       DeltaRho 
    ------------------------------------------------------
      10   -0.7831323121E+00   -0.51125E-02    0.26454E-01
     -  10 steepest descent iterations performed
      20   -0.7976663571E+00   -0.41472E-03    0.13479E-03
      30   -0.7986040153E+00   -0.22314E-04    0.15794E-04
      40   -0.7986800646E+00   -0.12928E-05    0.15117E-05
      50   -0.7986841954E+00   -0.16294E-06    0.33885E-07
      60   -0.7986846258E+00   -0.10301E-07    0.13266E-08
      70   -0.7986846642E+00   -0.10599E-08    0.74317E-10
      80   -0.7986846649E+00   -0.71910E-09    0.16109E-11
  *** tolerance ok. iteration terminated
     >>>  ITERATION ENDED   AT Sun Apr  6 19:10:20 2025  <<<


==  Summary Of Results  ==

 number of electrons: spin up=    1.00000  down=    1.00000 (real space)

 total     energy    :  -0.7986846649E+00 (   -0.39934E+00/ion)
 total orbital energy:  -0.6046835463E+00 (   -0.60468E+00/electron)
 hartree   energy    :   0.5996731369E+00 (    0.59967E+00/electron)
 exc-corr  energy    :   0.0000000000E+00 (    0.00000E+00/electron)
 HF exchange energy  :  -0.2998365685E+00 (   -0.29984E+00/electron)
 ion-ion   energy    :   0.1058354498E+00 (    0.52918E-01/ion)

 kinetic (planewave) :   0.6073642655E+00 (    0.60736E+00/electron)
 V_local (planewave) :  -0.1665515195E+01 (   -0.16655E+01/electron)
 V_nl    (planewave) :  -0.1462057533E+00 (   -0.14621E+00/electron)
 V_Coul  (planewave) :   0.1199346274E+01 (    0.11993E+01/electron)
 V_xc.   (planewave) :   0.0000000000E+00 (    0.00000E+00/electron)
 K.S. HFX energy     :  -0.5996731369E+00 (   -0.59967E+00/electron)
 Virial Coefficient  :  -0.1008249431E+01

 orbital energies:
    -0.3023418E+00 (  -8.227eV)


== Virtual Orbital Calculation ==


 input epsi filename:./pspw_hf_H2.emovecs

 COVOs Mimimization
 ------------------
CI gradient algorithm =         3
maxit_sweeps          =         3
maxit_orb             =       120
maxit_linesearch      =        15
maxerror              = 0.100E-08

     orb,it,eci,eold,eci-eold=                    1                    1 -0.89254299191687536      -0.84885726710823683       -4.3685724808638526E-002 F
     orb,it,eci,eold,eci-eold=                    1                    2 -0.89498451838446902      -0.89254299191687536       -2.4415264675936577E-003 F
     orb,it,eci,eold,eci-eold=                    1                    3 -0.89543310779602125      -0.89498451838446902       -4.4858941155223597E-004 F
     orb,it,eci,eold,eci-eold=                    1                    4 -0.90074074732553955      -0.89543310779602125       -5.3076395295182932E-003 F
     orb,it,eci,eold,eci-eold=                    1                    5 -0.90413858928278434      -0.90074074732553955       -3.3978419572447960E-003 F
     orb,it,eci,eold,eci-eold=                    1                    6 -0.90581443751245772      -0.90413858928278434       -1.6758482296733712E-003 F
     orb,it,eci,eold,eci-eold=                    1                    7 -0.90899479607612266      -0.90581443751245772       -3.1803585636649423E-003 F
     orb,it,eci,eold,eci-eold=                    1                    8 -0.91061896242597040      -0.90899479607612266       -1.6241663498477443E-003 F
     orb,it,eci,eold,eci-eold=                    1                    9 -0.91428601826960609      -0.91061896242597040       -3.6670558436356915E-003 F
     orb,it,eci,eold,eci-eold=                    1                   10 -0.92002168106295423      -0.91428601826960609       -5.7356627933481397E-003 F
     orb,it,eci,eold,eci-eold=                    1                   11 -0.92295653042986059      -0.92002168106295423       -2.9348493669063558E-003 F
     orb,it,eci,eold,eci-eold=                    1                   12 -0.92370653785872703      -0.92295653042986059       -7.5000742886643934E-004 F
     orb,it,eci,eold,eci-eold=                    1                   13 -0.92706945817154518      -0.92370653785872703       -3.3629203128181517E-003 F
     orb,it,eci,eold,eci-eold=                    1                   14 -0.93384155563066029      -0.92706945817154518       -6.7720974591151117E-003 F
     orb,it,eci,eold,eci-eold=                    1                   15 -0.93742606509916881      -0.93384155563066029       -3.5845094685085233E-003 F
     orb,it,eci,eold,eci-eold=                    1                   16 -0.94173257703975355      -0.93742606509916881       -4.3065119405847341E-003 F
     orb,it,eci,eold,eci-eold=                    1                   17 -0.94654646146045451      -0.94173257703975355       -4.8138844207009646E-003 F
     orb,it,eci,eold,eci-eold=                    1                   18 -0.94727022468137401      -0.94654646146045451       -7.2376322091949330E-004 F
     orb,it,eci,eold,eci-eold=                    1                   19 -0.95160890575217549      -0.94727022468137401       -4.3386810708014867E-003 F
     orb,it,eci,eold,eci-eold=                    1                   20 -0.95599767069738861      -0.95160890575217549       -4.3887649452131194E-003 F
     orb,it,eci,eold,eci-eold=                    1                   21 -0.95868088702168019      -0.95599767069738861       -2.6832163242915819E-003 F
     orb,it,eci,eold,eci-eold=                    1                   22 -0.96303357132232081      -0.95868088702168019       -4.3526843006406191E-003 F
     orb,it,eci,eold,eci-eold=                    1                   23 -0.96554360873898570      -0.96303357132232081       -2.5100374166648898E-003 F
     orb,it,eci,eold,eci-eold=                    1                   24 -0.96742616586618890      -0.96554360873898570       -1.8825571272031993E-003 F
     orb,it,eci,eold,eci-eold=                    1                   25 -0.96854986902292017      -0.96742616586618890       -1.1237031567312705E-003 F
     orb,it,eci,eold,eci-eold=                    1                   26 -0.96998034707291281      -0.96854986902292017       -1.4304780499926339E-003 F
     orb,it,eci,eold,eci-eold=                    1                   27 -0.97088249137803317      -0.96998034707291281       -9.0214430512036703E-004 F
     orb,it,eci,eold,eci-eold=                    1                   28 -0.97209229574367439      -0.97088249137803317       -1.2098043656412205E-003 F
     orb,it,eci,eold,eci-eold=                    1                   29 -0.97277297019519493      -0.97209229574367439       -6.8067445152053541E-004 F
     orb,it,eci,eold,eci-eold=                    1                   30 -0.97351695854206466      -0.97277297019519493       -7.4398834686972837E-004 F
     orb,it,eci,eold,eci-eold=                    1                   31 -0.97392705353768916      -0.97351695854206466       -4.1009499562449925E-004 F
     orb,it,eci,eold,eci-eold=                    1                   32 -0.97444536792526315      -0.97392705353768916       -5.1831438757399262E-004 F
     orb,it,eci,eold,eci-eold=                    1                   33 -0.97471790517341472      -0.97444536792526315       -2.7253724815157199E-004 F
     orb,it,eci,eold,eci-eold=                    1                   34 -0.97490832085317047      -0.97471790517341472       -1.9041567975575102E-004 F
     orb,it,eci,eold,eci-eold=                    1                   35 -0.97500968300086321      -0.97490832085317047       -1.0136214769274066E-004 F
     orb,it,eci,eold,eci-eold=                    1                   36 -0.97533952048286099      -0.97500968300086321       -3.2983748199777452E-004 F
     orb,it,eci,eold,eci-eold=                    1                   37 -0.97552413024932838      -0.97533952048286099       -1.8460976646739180E-004 F
     orb,it,eci,eold,eci-eold=                    1                   38 -0.97565347097135924      -0.97552413024932838       -1.2934072203085734E-004 F
     orb,it,eci,eold,eci-eold=                    1                   39 -0.97571622064517460      -0.97565347097135924       -6.2749673815365448E-005 F
     orb,it,eci,eold,eci-eold=                    1                   40 -0.97582504018802863      -0.97571622064517460       -1.0881954285402173E-004 F
     orb,it,eci,eold,eci-eold=                    1                   41 -0.97583824754534954      -0.97582504018802863       -1.3207357320910162E-005 F
     orb,it,eci,eold,eci-eold=                    1                   42 -0.97587556299063261      -0.97583824754534954       -3.7315445283070403E-005 F
     orb,it,eci,eold,eci-eold=                    1                   43 -0.97592748850164623      -0.97587556299063261       -5.1925511013628523E-005 F
     orb,it,eci,eold,eci-eold=                    1                   44 -0.97595769058992743      -0.97592748850164623       -3.0202088281194861E-005 F
     orb,it,eci,eold,eci-eold=                    1                   45 -0.97601295410830369      -0.97595769058992743       -5.5263518376258425E-005 F
     orb,it,eci,eold,eci-eold=                    1                   46 -0.97602187905441806      -0.97601295410830369       -8.9249461143747766E-006 F
     orb,it,eci,eold,eci-eold=                    1                   47 -0.97603598575963069      -0.97602187905441806       -1.4106705212624249E-005 F
     orb,it,eci,eold,eci-eold=                    1                   48 -0.97606945363717668      -0.97603598575963069       -3.3467877545989566E-005 F
     orb,it,eci,eold,eci-eold=                    1                   49 -0.97607320346620285      -0.97606945363717668       -3.7498290261783751E-006 F
     orb,it,eci,eold,eci-eold=                    1                   50 -0.97608193703143742      -0.97607320346620285       -8.7335652345643666E-006 F
     orb,it,eci,eold,eci-eold=                    1                   51 -0.97610475866518487      -0.97608193703143742       -2.2821633747449610E-005 F
     orb,it,eci,eold,eci-eold=                    1                   52 -0.97611948809163818      -0.97610475866518487       -1.4729426453308214E-005 F
     orb,it,eci,eold,eci-eold=                    1                   53 -0.97613855060279675      -0.97611948809163818       -1.9062511158574047E-005 F
     orb,it,eci,eold,eci-eold=                    1                   54 -0.97614834006689710      -0.97613855060279675       -9.7894641003515304E-006 F
     orb,it,eci,eold,eci-eold=                    1                   55 -0.97615897935249296      -0.97614834006689710       -1.0639285595859249E-005 F
     orb,it,eci,eold,eci-eold=                    1                   56 -0.97616414341608226      -0.97615897935249296       -5.1640635893024367E-006 F
     orb,it,eci,eold,eci-eold=                    1                   57 -0.97617309491363269      -0.97616414341608226       -8.9514975504245697E-006 F
     orb,it,eci,eold,eci-eold=                    1                   58 -0.97617414064795949      -0.97617309491363269       -1.0457343267988861E-006 F
     orb,it,eci,eold,eci-eold=                    1                   59 -0.97617573227176446      -0.97617414064795949       -1.5916238049751286E-006 F
     orb,it,eci,eold,eci-eold=                    1                   60 -0.97618231314888493      -0.97617573227176446       -6.5808771204656225E-006 F
     orb,it,eci,eold,eci-eold=                    1                   61 -0.97618383386300156      -0.97618231314888493       -1.5207141166317939E-006 F
     orb,it,eci,eold,eci-eold=                    1                   62 -0.97618473173480624      -0.97618383386300156       -8.9787180468370309E-007 F
     orb,it,eci,eold,eci-eold=                    1                   63 -0.97618952997299235      -0.97618473173480624       -4.7982381861100265E-006 F
     orb,it,eci,eold,eci-eold=                    1                   64 -0.97619030272491913      -0.97618952997299235       -7.7275192678083471E-007 F
     orb,it,eci,eold,eci-eold=                    1                   65 -0.97619050310999844      -0.97619030272491913       -2.0038507930753013E-007 F
     orb,it,eci,eold,eci-eold=                    1                   66 -0.97619416560150318      -0.97619050310999844       -3.6624915047411832E-006 F
     orb,it,eci,eold,eci-eold=                    1                   67 -0.97619551709079455      -0.97619416560150318       -1.3514892913679688E-006 F
     orb,it,eci,eold,eci-eold=                    1                   68 -0.97619578599171863      -0.97619551709079455       -2.6890092408304866E-007 F
     orb,it,eci,eold,eci-eold=                    1                   69 -0.97619870334697878      -0.97619578599171863       -2.9173552601458042E-006 F
     orb,it,eci,eold,eci-eold=                    1                   70 -0.97619961332264960      -0.97619870334697878       -9.0997567081529951E-007 F
     orb,it,eci,eold,eci-eold=                    1                   71 -0.97619966879730635      -0.97619961332264960       -5.5474656757148466E-008 F
     orb,it,eci,eold,eci-eold=                    1                   72 -0.97620194045364206      -0.97619966879730635       -2.2716563357061403E-006 F
     orb,it,eci,eold,eci-eold=                    1                   73 -0.97620333152992900      -0.97620194045364206       -1.3910762869384641E-006 F
     orb,it,eci,eold,eci-eold=                    1                   74 -0.97620373135425731      -0.97620333152992900       -3.9982432831209280E-007 F
     orb,it,eci,eold,eci-eold=                    1                   75 -0.97620538196953699      -0.97620373135425731       -1.6506152796802454E-006 F
     orb,it,eci,eold,eci-eold=                    1                   76 -0.97620573538114785      -0.97620538196953699       -3.5341161086499540E-007 F
     orb,it,eci,eold,eci-eold=                    1                   77 -0.97620588715269552      -0.97620573538114785       -1.5177154766288226E-007 F
     orb,it,eci,eold,eci-eold=                    1                   78 -0.97620733887719113      -0.97620588715269552       -1.4517244956158137E-006 F
     orb,it,eci,eold,eci-eold=                    1                   79 -0.97620777203682996      -0.97620733887719113       -4.3315963882406550E-007 F
     orb,it,eci,eold,eci-eold=                    1                   80 -0.97620777376678392      -0.97620777203682996       -1.7299539578630174E-009 F
     orb,it,eci,eold,eci-eold=                    1                   81 -0.97620869721743653      -0.97620777376678392       -9.2345065261234538E-007 F
     orb,it,eci,eold,eci-eold=                    1                   82 -0.97620910296719510      -0.97620869721743653       -4.0574975856966233E-007 F
     orb,it,eci,eold,eci-eold=                    1                   83 -0.97620921363524815      -0.97620910296719510       -1.1066805305492977E-007 F
     orb,it,eci,eold,eci-eold=                    1                   84 -0.97621003200345202      -0.97620921363524815       -8.1836820386982367E-007 F
     orb,it,eci,eold,eci-eold=                    1                   85 -0.97621038091183310      -0.97621003200345202       -3.4890838107592970E-007 F
     orb,it,eci,eold,eci-eold=                    1                   86 -0.97621047792089510      -0.97621038091183310       -9.7009062005604108E-008 F
     orb,it,eci,eold,eci-eold=                    1                   87 -0.97621110729545590      -0.97621047792089510       -6.2937456080103260E-007 F
     orb,it,eci,eold,eci-eold=                    1                   88 -0.97621134387182873      -0.97621110729545590       -2.3657637282514798E-007 F
     orb,it,eci,eold,eci-eold=                    1                   89 -0.97621141209354567      -0.97621134387182873       -6.8221716942318267E-008 F
     orb,it,eci,eold,eci-eold=                    1                   90 -0.97621186707946250      -0.97621141209354567       -4.5498591683124090E-007 F
     orb,it,eci,eold,eci-eold=                    1                   91 -0.97621201553838388      -0.97621186707946250       -1.4845892137849148E-007 F
     orb,it,eci,eold,eci-eold=                    1                   92 -0.97621206977536967      -0.97621201553838388       -5.4236985791433767E-008 F
     orb,it,eci,eold,eci-eold=                    1                   93 -0.97621245101771026      -0.97621206977536967       -3.8124234058578566E-007 F
     orb,it,eci,eold,eci-eold=                    1                   94 -0.97621256525016897      -0.97621245101771026       -1.1423245871444720E-007 F
     orb,it,eci,eold,eci-eold=                    1                   95 -0.97621258338365613      -0.97621256525016897       -1.8133487156291039E-008 F
     orb,it,eci,eold,eci-eold=                    1                   96 -0.97621285808097169      -0.97621258338365613       -2.7469731556095667E-007 F
     orb,it,eci,eold,eci-eold=                    1                   97 -0.97621296595128659      -0.97621285808097169       -1.0787031490266941E-007 F
     orb,it,eci,eold,eci-eold=                    1                   98 -0.97621298882513985      -0.97621296595128659       -2.2873853255944709E-008 F
     orb,it,eci,eold,eci-eold=                    1                   99 -0.97621319462892453      -0.97621298882513985       -2.0580378468082472E-007 F
     orb,it,eci,eold,eci-eold=                    1                  100 -0.97621326395506602      -0.97621319462892453       -6.9326141494130411E-008 F
     orb,it,eci,eold,eci-eold=                    1                  101 -0.97621328258778917      -0.97621326395506602       -1.8632723142175678E-008 F
     orb,it,eci,eold,eci-eold=                    1                  102 -0.97621345866177922      -0.97621328258778917       -1.7607399005470370E-007 F
     orb,it,eci,eold,eci-eold=                    1                  103 -0.97621350380817662      -0.97621345866177922       -4.5146397398276861E-008 F
     orb,it,eci,eold,eci-eold=                    1                  104 -0.97621351788253974      -0.97621350380817662       -1.4074363119398470E-008 F
     orb,it,eci,eold,eci-eold=                    1                  105 -0.97621369700830574      -0.97621351788253974       -1.7912576599776742E-007 F
     orb,it,eci,eold,eci-eold=                    1                  106 -0.97621372275544060      -0.97621369700830574       -2.5747134868581156E-008 F
     orb,it,eci,eold,eci-eold=                    1                  107 -0.97621373344591067      -0.97621372275544060       -1.0690470064744773E-008 F
     orb,it,eci,eold,eci-eold=                    1                  108 -0.97621386516032649      -0.97621373344591067       -1.3171441581860677E-007 F
     orb,it,eci,eold,eci-eold=                    1                  109 -0.97621394018320728      -0.97621386516032649       -7.5022880796637992E-008 F
     orb,it,eci,eold,eci-eold=                    1                  110 -0.97621399871257841      -0.97621394018320728       -5.8529371127491459E-008 F
     orb,it,eci,eold,eci-eold=                    1                  111 -0.97621402361280030      -0.97621399871257841       -2.4900221884394114E-008 F
     orb,it,eci,eold,eci-eold=                    1                  112 -0.97621408191824388      -0.97621402361280030       -5.8305443584316663E-008 F
     orb,it,eci,eold,eci-eold=                    1                  113 -0.97621408843843016      -0.97621408191824388       -6.5201862797792387E-009 F
     orb,it,eci,eold,eci-eold=                    1                  114 -0.97621409269747872      -0.97621408843843016       -4.2590485582749693E-009 F
     orb,it,eci,eold,eci-eold=                    1                  115 -0.97621413800406232      -0.97621409269747872       -4.5306583595916550E-008 F
     orb,it,eci,eold,eci-eold=                    1                  116 -0.97621415983052673      -0.97621413800406232       -2.1826464413621238E-008 F
     orb,it,eci,eold,eci-eold=                    1                  117 -0.97621416594133392      -0.97621415983052673       -6.1108071935933594E-009 F
     orb,it,eci,eold,eci-eold=                    1                  118 -0.97621419515774166      -0.97621416594133392       -2.9216407737564509E-008 F
     orb,it,eci,eold,eci-eold=                    1                  119 -0.97621420060536801      -0.97621419515774166       -5.4476263500191635E-009 F
     orb,it,eci,eold,eci-eold=                    1                  120 -0.97621420330691155      -0.97621420060536801       -2.7015435444255331E-009 F
     orb,it,eci,eold,eci-eold=                    1                  121 -0.97621423083820558      -0.97621420330691155       -2.7531294022331565E-008 F
     orbital   1 current e= -0.152592E+00 error=0.270E+00 (eci= -0.976214231E+00 error=0.275E-07) iterations 121(   0 preconditioned, Ep,Sp= 20.0  200.0)
     orb,it,eci,eold,eci-eold=                    1                    1 -0.97621428585751735      -0.97621423083820558       -5.5019311773207846E-008 F
     orb,it,eci,eold,eci-eold=                    1                    2 -0.97621430402880272      -0.97621428585751735       -1.8171285365298218E-008 F
     orb,it,eci,eold,eci-eold=                    1                    3 -0.97621431202716191      -0.97621430402880272       -7.9983591971810597E-009 F
     orb,it,eci,eold,eci-eold=                    1                    4 -0.97621433726796436      -0.97621431202716191       -2.5240802448145416E-008 F
     orb,it,eci,eold,eci-eold=                    1                    5 -0.97621435627148956      -0.97621433726796436       -1.9003525197902604E-008 F
     orb,it,eci,eold,eci-eold=                    1                    6 -0.97621436102124481      -0.97621435627148956       -4.7497552557729250E-009 F
     orb,it,eci,eold,eci-eold=                    1                    7 -0.97621436357420421      -0.97621436102124481       -2.5529593994377819E-009 F
     orb,it,eci,eold,eci-eold=                    1                    8 -0.97621437000744138      -0.97621436357420421       -6.4332371652042752E-009 F
     orb,it,eci,eold,eci-eold=                    1                    9 -0.97621437304374670      -0.97621437000744138       -3.0363053182824729E-009 F
     orb,it,eci,eold,eci-eold=                    1                   10 -0.97621437410222611      -0.97621437304374670       -1.0584794152279642E-009 F
     orb,it,eci,eold,eci-eold=                    1                   11 -0.97621437457608884      -0.97621437410222611       -4.7386272683525021E-010 F
     orbital   1 current e= -0.152594E+00 error=0.229E-05 (eci= -0.976214375E+00 error=0.474E-09) iterations  11(   0 preconditioned, Ep,Sp= 20.0  200.0)
     orb,it,eci,eold,eci-eold=                    1                    1 -0.97621437746669970      -0.97621437457608884       -2.8906108617832160E-009 F
     orb,it,eci,eold,eci-eold=                    1                    2 -0.97621437877099682      -0.97621437746669970       -1.3042971147569915E-009 F
     orb,it,eci,eold,eci-eold=                    1                    3 -0.97621437899549601      -0.97621437877099682       -2.2449919701017507E-010 F
     orbital   1 current e= -0.152595E+00 error=0.814E-07 (eci= -0.976214379E+00 error=0.224E-09) iterations   3(   0 preconditioned, Ep,Sp= 20.0  200.0)
     orb,it,eci,eold,eci-eold=                    2                    1 -0.80059742607688578      -0.79986700673799893       -7.3041933888684518E-004 F
     orb,it,eci,eold,eci-eold=                    2                    2 -0.80067235508661361      -0.80059742607688578       -7.4929009727831009E-005 F
     orb,it,eci,eold,eci-eold=                    2                    3 -0.80083941227724387      -0.80067235508661361       -1.6705719063025981E-004 F
     orb,it,eci,eold,eci-eold=                    2                    4 -0.80102092015332604      -0.80083941227724387       -1.8150787608217644E-004 F
     orb,it,eci,eold,eci-eold=                    2                    5 -0.80120867052211953      -0.80102092015332604       -1.8775036879348228E-004 F
     orb,it,eci,eold,eci-eold=                    2                    6 -0.80135956012724996      -0.80120867052211953       -1.5088960513043315E-004 F
     orb,it,eci,eold,eci-eold=                    2                    7 -0.80138438209429719      -0.80135956012724996       -2.4821967047228277E-005 F
     orb,it,eci,eold,eci-eold=                    2                    8 -0.80146188487194192      -0.80138438209429719       -7.7502777644733456E-005 F
     orb,it,eci,eold,eci-eold=                    2                    9 -0.80156659477150938      -0.80146188487194192       -1.0470989956745669E-004 F
     orb,it,eci,eold,eci-eold=                    2                   10 -0.80162935419557413      -0.80156659477150938       -6.2759424064751101E-005 F
     orb,it,eci,eold,eci-eold=                    2                   11 -0.80170723077302286      -0.80162935419557413       -7.7876577448732220E-005 F
     orb,it,eci,eold,eci-eold=                    2                   12 -0.80177341502756838      -0.80170723077302286       -6.6184254545520460E-005 F
     orb,it,eci,eold,eci-eold=                    2                   13 -0.80209589180418894      -0.80177341502756838       -3.2247677662056162E-004 F
     orb,it,eci,eold,eci-eold=                    2                   14 -0.80231968112412799      -0.80209589180418894       -2.2378931993904949E-004 F
     orb,it,eci,eold,eci-eold=                    2                   15 -0.80236934563566331      -0.80231968112412799       -4.9664511535318923E-005 F
     orb,it,eci,eold,eci-eold=                    2                   16 -0.80243572192391066      -0.80236934563566331       -6.6376288247349535E-005 F
     orb,it,eci,eold,eci-eold=                    2                   17 -0.80249775916480326      -0.80243572192391066       -6.2037240892598433E-005 F
     orb,it,eci,eold,eci-eold=                    2                   18 -0.80252585698396084      -0.80249775916480326       -2.8097819157579806E-005 F
     orb,it,eci,eold,eci-eold=                    2                   19 -0.80254898330602198      -0.80252585698396084       -2.3126322061139959E-005 F
     orb,it,eci,eold,eci-eold=                    2                   20 -0.80256412953596179      -0.80254898330602198       -1.5146229939810851E-005 F
     orb,it,eci,eold,eci-eold=                    2                   21 -0.80257177987071171      -0.80256412953596179       -7.6503347499201624E-006 F
     orb,it,eci,eold,eci-eold=                    2                   22 -0.80257704021982734      -0.80257177987071171       -5.2603491156322235E-006 F
     orb,it,eci,eold,eci-eold=                    2                   23 -0.80258044936959250      -0.80257704021982734       -3.4091497651544955E-006 F
     orb,it,eci,eold,eci-eold=                    2                   24 -0.80259023817126707      -0.80258044936959250       -9.7888016745706352E-006 F
     orb,it,eci,eold,eci-eold=                    2                   25 -0.80259263227814315      -0.80259023817126707       -2.3941068760802153E-006 F
     orb,it,eci,eold,eci-eold=                    2                   26 -0.80259647571528192      -0.80259263227814315       -3.8434371387729982E-006 F
     orb,it,eci,eold,eci-eold=                    2                   27 -0.80260141150365771      -0.80259647571528192       -4.9357883757927823E-006 F
     orb,it,eci,eold,eci-eold=                    2                   28 -0.80260343704735804      -0.80260141150365771       -2.0255437003235954E-006 F
     orb,it,eci,eold,eci-eold=                    2                   29 -0.80260622775947066      -0.80260343704735804       -2.7907121126213852E-006 F
     orb,it,eci,eold,eci-eold=                    2                   30 -0.80260801285034611      -0.80260622775947066       -1.7850908754502015E-006 F
     orb,it,eci,eold,eci-eold=                    2                   31 -0.80260940455894714      -0.80260801285034611       -1.3917086010284407E-006 F
     orb,it,eci,eold,eci-eold=                    2                   32 -0.80261004421753501      -0.80260940455894714       -6.3965858787540242E-007 F
     orb,it,eci,eold,eci-eold=                    2                   33 -0.80261138761768702      -0.80261004421753501       -1.3434001520096217E-006 F
     orb,it,eci,eold,eci-eold=                    2                   34 -0.80261142755089965      -0.80261138761768702       -3.9933212625520298E-008 F
     orb,it,eci,eold,eci-eold=                    2                   35 -0.80261164354110659      -0.80261142755089965       -2.1599020694207383E-007 F
     orb,it,eci,eold,eci-eold=                    2                   36 -0.80261215346938797      -0.80261164354110659       -5.0992828137808033E-007 F
     orb,it,eci,eold,eci-eold=                    2                   37 -0.80261220468307637      -0.80261215346938797       -5.1213688401219315E-008 F
     orb,it,eci,eold,eci-eold=                    2                   38 -0.80261224810675769      -0.80261220468307637       -4.3423681317378282E-008 F
     orb,it,eci,eold,eci-eold=                    2                   39 -0.80261259619519087      -0.80261224810675769       -3.4808843318856475E-007 F
     orb,it,eci,eold,eci-eold=                    2                   40 -0.80261305222377954      -0.80261259619519087       -4.5602858866899965E-007 F
     orb,it,eci,eold,eci-eold=                    2                   41 -0.80261328846418223      -0.80261305222377954       -2.3624040268455104E-007 F
     orb,it,eci,eold,eci-eold=                    2                   42 -0.80261355567494308      -0.80261328846418223       -2.6721076085145512E-007 F
     orb,it,eci,eold,eci-eold=                    2                   43 -0.80261368127595589      -0.80261355567494308       -1.2560101281255953E-007 F
     orb,it,eci,eold,eci-eold=                    2                   44 -0.80261384931912194      -0.80261368127595589       -1.6804316604890346E-007 F
     orb,it,eci,eold,eci-eold=                    2                   45 -0.80261394771799721      -0.80261384931912194       -9.8398875270078179E-008 F
     orb,it,eci,eold,eci-eold=                    2                   46 -0.80261407802596330      -0.80261394771799721       -1.3030796608415329E-007 F
     orb,it,eci,eold,eci-eold=                    2                   47 -0.80261415006206738      -0.80261407802596330       -7.2036104081796282E-008 F
     orb,it,eci,eold,eci-eold=                    2                   48 -0.80261423518966413      -0.80261415006206738       -8.5127596749501322E-008 F
     orb,it,eci,eold,eci-eold=                    2                   49 -0.80261427756722803      -0.80261423518966413       -4.2377563902462612E-008 F
     orb,it,eci,eold,eci-eold=                    2                   50 -0.80261432540267941      -0.80261427756722803       -4.7835451377764571E-008 F
     orb,it,eci,eold,eci-eold=                    2                   51 -0.80261435377820511      -0.80261432540267941       -2.8375525706891835E-008 F
     orb,it,eci,eold,eci-eold=                    2                   52 -0.80261441048242532      -0.80261435377820511       -5.6704220208203537E-008 F
     orb,it,eci,eold,eci-eold=                    2                   53 -0.80261441048242532      -0.80261441048242532        0.0000000000000000      F
     orbital   2 current e=  0.377197E+00 error=0.410E+00 (eci= -0.802614410E+00 error=0.000E+00) iterations  53(   0 preconditioned, Ep,Sp= 20.0  200.0)
     orb,it,eci,eold,eci-eold=                    2                    1 -0.80261449903207083      -0.80261440953869045       -8.9493380373006914E-008 F
     orb,it,eci,eold,eci-eold=                    2                    2 -0.80261452199560668      -0.80261449903207083       -2.2963535850628602E-008 F
     orb,it,eci,eold,eci-eold=                    2                    3 -0.80261453061305854      -0.80261452199560668       -8.6174518632020636E-009 F
     orb,it,eci,eold,eci-eold=                    2                    4 -0.80261454430537726      -0.80261453061305854       -1.3692318723279584E-008 F
     orb,it,eci,eold,eci-eold=                    2                    5 -0.80261455776065771      -0.80261454430537726       -1.3455280445384687E-008 F
     orb,it,eci,eold,eci-eold=                    2                    6 -0.80261456834424183      -0.80261455776065771       -1.0583584120205103E-008 F
     orb,it,eci,eold,eci-eold=                    2                    7 -0.80261458470983116      -0.80261456834424183       -1.6365589328160013E-008 F
     orb,it,eci,eold,eci-eold=                    2                    8 -0.80261458631712190      -0.80261458470983116       -1.6072907449427021E-009 F
     orb,it,eci,eold,eci-eold=                    2                    9 -0.80261458677457131      -0.80261458631712190       -4.5744941168379682E-010 F
     orbital   2 current e=  0.378212E+00 error=0.101E-02 (eci= -0.802614587E+00 error=0.457E-09) iterations   9(   0 preconditioned, Ep,Sp= 20.0  200.0)
     orb,it,eci,eold,eci-eold=                    2                    1 -0.80261459465361507      -0.80261458677457131       -7.8790437507691991E-009 F
     orb,it,eci,eold,eci-eold=                    2                    2 -0.80261459505209953      -0.80261459465361507       -3.9848446764523260E-010 F
     orbital   2 current e=  0.378179E+00 error=0.322E-04 (eci= -0.802614595E+00 error=0.398E-09) iterations   2(   0 preconditioned, Ep,Sp= 20.0  200.0)
     orb,it,eci,eold,eci-eold=                    3                    1 -0.79942078657869742      -0.79903608933826464       -3.8469724043277420E-004 F
     orb,it,eci,eold,eci-eold=                    3                    2 -0.79956035185318752      -0.79942078657869742       -1.3956527449010547E-004 F
     orb,it,eci,eold,eci-eold=                    3                    3 -0.79972418197158668      -0.79956035185318752       -1.6383011839915529E-004 F
     orb,it,eci,eold,eci-eold=                    3                    4 -0.79972698738989079      -0.79972418197158668       -2.8054183041081870E-006 F
     orb,it,eci,eold,eci-eold=                    3                    5 -0.79990508673995409      -0.79972698738989079       -1.7809935006329880E-004 F
     orb,it,eci,eold,eci-eold=                    3                    6 -0.80012718533519045      -0.79990508673995409       -2.2209859523636410E-004 F
     orb,it,eci,eold,eci-eold=                    3                    7 -0.80026837468645962      -0.80012718533519045       -1.4118935126916643E-004 F
     orb,it,eci,eold,eci-eold=                    3                    8 -0.80031821153536686      -0.80026837468645962       -4.9836848907247600E-005 F
     orb,it,eci,eold,eci-eold=                    3                    9 -0.80042719096851433      -0.80031821153536686       -1.0897943314747138E-004 F
     orb,it,eci,eold,eci-eold=                    3                   10 -0.80047135831923666      -0.80042719096851433       -4.4167350722323917E-005 F
     orb,it,eci,eold,eci-eold=                    3                   11 -0.80050921260057772      -0.80047135831923666       -3.7854281341065388E-005 F
     orb,it,eci,eold,eci-eold=                    3                   12 -0.80051794906572982      -0.80050921260057772       -8.7364651520926984E-006 F
     orb,it,eci,eold,eci-eold=                    3                   13 -0.80052444802663580      -0.80051794906572982       -6.4989609059873388E-006 F
     orb,it,eci,eold,eci-eold=                    3                   14 -0.80053451134742526      -0.80052444802663580       -1.0063320789455155E-005 F
     orb,it,eci,eold,eci-eold=                    3                   15 -0.80059035592977912      -0.80053451134742526       -5.5844582353858918E-005 F
     orb,it,eci,eold,eci-eold=                    3                   16 -0.80065000317908652      -0.80059035592977912       -5.9647249307404060E-005 F
     orb,it,eci,eold,eci-eold=                    3                   17 -0.80066393545733761      -0.80065000317908652       -1.3932278251083119E-005 F
     orb,it,eci,eold,eci-eold=                    3                   18 -0.80071957068389943      -0.80066393545733761       -5.5635226561823181E-005 F
     orb,it,eci,eold,eci-eold=                    3                   19 -0.80072568241854913      -0.80071957068389943       -6.1117346497052694E-006 F
     orb,it,eci,eold,eci-eold=                    3                   20 -0.80073524245012750      -0.80072568241854913       -9.5600315783705980E-006 F
     orb,it,eci,eold,eci-eold=                    3                   21 -0.80078284987942172      -0.80073524245012750       -4.7607429294216352E-005 F
     orb,it,eci,eold,eci-eold=                    3                   22 -0.80079696499553998      -0.80078284987942172       -1.4115116118262883E-005 F
     orb,it,eci,eold,eci-eold=                    3                   23 -0.80080705981013067      -0.80079696499553998       -1.0094814590688728E-005 F
     orb,it,eci,eold,eci-eold=                    3                   24 -0.80081385821406981      -0.80080705981013067       -6.7984039391344453E-006 F
     orb,it,eci,eold,eci-eold=                    3                   25 -0.80081810057489822      -0.80081385821406981       -4.2423608284103409E-006 F
     orb,it,eci,eold,eci-eold=                    3                   26 -0.80082071313606829      -0.80081810057489822       -2.6125611700678064E-006 F
     orb,it,eci,eold,eci-eold=                    3                   27 -0.80082207830726915      -0.80082071313606829       -1.3651712008622141E-006 F
     orb,it,eci,eold,eci-eold=                    3                   28 -0.80082219877027017      -0.80082207830726915       -1.2046300101875573E-007 F
     orb,it,eci,eold,eci-eold=                    3                   29 -0.80082225709691257      -0.80082219877027017       -5.8326642404793461E-008 F
     orb,it,eci,eold,eci-eold=                    3                   30 -0.80082390655947933      -0.80082225709691257       -1.6494625667551333E-006 F
     orb,it,eci,eold,eci-eold=                    3                   31 -0.80082468810612717      -0.80082390655947933       -7.8154664784335637E-007 F
     orb,it,eci,eold,eci-eold=                    3                   32 -0.80082505138422566      -0.80082468810612717       -3.6327809849190373E-007 F
     orb,it,eci,eold,eci-eold=                    3                   33 -0.80082514144743155      -0.80082505138422566       -9.0063205893109455E-008 F
     orb,it,eci,eold,eci-eold=                    3                   34 -0.80082516403843074      -0.80082514144743155       -2.2590999182448002E-008 F
     orb,it,eci,eold,eci-eold=                    3                   35 -0.80082534077694256      -0.80082516403843074       -1.7673851182564704E-007 F
     orb,it,eci,eold,eci-eold=                    3                   36 -0.80082535592071058      -0.80082534077694256       -1.5143768017367165E-008 F
     orb,it,eci,eold,eci-eold=                    3                   37 -0.80082536522216163      -0.80082535592071058       -9.3014510538225181E-009 F
     orb,it,eci,eold,eci-eold=                    3                   38 -0.80082549696931760      -0.80082536522216163       -1.3174715596253606E-007 F
     orb,it,eci,eold,eci-eold=                    3                   39 -0.80082550396489971      -0.80082549696931760       -6.9955821135891938E-009 F
     orb,it,eci,eold,eci-eold=                    3                   40 -0.80082551252611411      -0.80082550396489971       -8.5612144040680960E-009 F
     orb,it,eci,eold,eci-eold=                    3                   41 -0.80082558804333859      -0.80082551252611411       -7.5517224473742317E-008 F
     orb,it,eci,eold,eci-eold=                    3                   42 -0.80082562739739716      -0.80082558804333859       -3.9354058567475647E-008 F
     orb,it,eci,eold,eci-eold=                    3                   43 -0.80082567202895527      -0.80082562739739716       -4.4631558115959535E-008 F
     orb,it,eci,eold,eci-eold=                    3                   44 -0.80082569675004844      -0.80082567202895527       -2.4721093172530573E-008 F
     orb,it,eci,eold,eci-eold=                    3                   45 -0.80082572283916487      -0.80082569675004844       -2.6089116422767233E-008 F
     orb,it,eci,eold,eci-eold=                    3                   46 -0.80082573315693417      -0.80082572283916487       -1.0317769305601132E-008 F
     orb,it,eci,eold,eci-eold=                    3                   47 -0.80082575684012891      -0.80082573315693417       -2.3683194738666202E-008 F
     orb,it,eci,eold,eci-eold=                    3                   48 -0.80082576491672353      -0.80082575684012891       -8.0765946153249502E-009 F
     orb,it,eci,eold,eci-eold=                    3                   49 -0.80082577048483561      -0.80082576491672353       -5.5681120825212815E-009 F
     orb,it,eci,eold,eci-eold=                    3                   50 -0.80082578922804826      -0.80082577048483561       -1.8743212648608676E-008 F
     orb,it,eci,eold,eci-eold=                    3                   51 -0.80082579499835749      -0.80082578922804826       -5.7703092304350889E-009 F
     orb,it,eci,eold,eci-eold=                    3                   52 -0.80082579926850550      -0.80082579499835749       -4.2701480129636593E-009 F
     orb,it,eci,eold,eci-eold=                    3                   53 -0.80082581549489684      -0.80082579926850550       -1.6226391341689350E-008 F
     orb,it,eci,eold,eci-eold=                    3                   54 -0.80082581840588651      -0.80082581549489684       -2.9109896715340255E-009 F
     orb,it,eci,eold,eci-eold=                    3                   55 -0.80082581943261233      -0.80082581840588651       -1.0267258154783576E-009 F
     orb,it,eci,eold,eci-eold=                    3                   56 -0.80082583032696730      -0.80082581943261233       -1.0894354973700615E-008 F
     orb,it,eci,eold,eci-eold=                    3                   57 -0.80082583426093457      -0.80082583032696730       -3.9339672630589462E-009 F
     orb,it,eci,eold,eci-eold=                    3                   58 -0.80082583600689750      -0.80082583426093457       -1.7459629297889023E-009 F
     orb,it,eci,eold,eci-eold=                    3                   59 -0.80082584656428779      -0.80082583600689750       -1.0557390295318214E-008 F
     orb,it,eci,eold,eci-eold=                    3                   60 -0.80082584960533354      -0.80082584656428779       -3.0410457485530173E-009 F
     orb,it,eci,eold,eci-eold=                    3                   61 -0.80082584993120398      -0.80082584960533354       -3.2587044174192670E-010 F
     orbital   3 current e=  0.396554E+00 error=0.225E+00 (eci= -0.800825850E+00 error=0.326E-09) iterations  61(   0 preconditioned, Ep,Sp= 20.0  200.0)
     orb,it,eci,eold,eci-eold=                    3                    1 -0.80082586131030853      -0.80082584993120398       -1.1379104547515340E-008 F
     orb,it,eci,eold,eci-eold=                    3                    2 -0.80082586786141574      -0.80082586131030853       -6.5511072122603764E-009 F
     orb,it,eci,eold,eci-eold=                    3                    3 -0.80082587206559497      -0.80082586786141574       -4.2041792269742473E-009 F
     orb,it,eci,eold,eci-eold=                    3                    4 -0.80082587430232677      -0.80082587206559497       -2.2367317997762370E-009 F
     orb,it,eci,eold,eci-eold=                    3                    5 -0.80082587957979423      -0.80082587430232677       -5.2774674630384766E-009 F
     orb,it,eci,eold,eci-eold=                    3                    6 -0.80082587957979423      -0.80082587957979423        0.0000000000000000      F
     orbital   3 current e=  0.396692E+00 error=0.138E-03 (eci= -0.800825880E+00 error=0.000E+00) iterations   6(   0 preconditioned, Ep,Sp= 20.0  200.0)
     orb,it,eci,eold,eci-eold=                    3                    1 -0.80082588273330668      -0.80082587948945871       -3.2438479680152454E-009 F
     orb,it,eci,eold,eci-eold=                    3                    2 -0.80082588290189571      -0.80082588273330668       -1.6858903162386696E-010 F
     orbital   3 current e=  0.396727E+00 error=0.351E-04 (eci= -0.800825883E+00 error=0.169E-09) iterations   2(   0 preconditioned, Ep,Sp= 20.0  200.0)
     orb,it,eci,eold,eci-eold=                    4                    1 -0.79993075489069521      -0.79957856139290340       -3.5219349779180842E-004 F
     orb,it,eci,eold,eci-eold=                    4                    2 -0.79997432845086569      -0.79993075489069521       -4.3573560170484527E-005 F
     orb,it,eci,eold,eci-eold=                    4                    3 -0.80006710624374688      -0.79997432845086569       -9.2777792881193477E-005 F
     orb,it,eci,eold,eci-eold=                    4                    4 -0.80010177223144729      -0.80006710624374688       -3.4665987700410739E-005 F
     orb,it,eci,eold,eci-eold=                    4                    5 -0.80011181014278976      -0.80010177223144729       -1.0037911342464234E-005 F
     orb,it,eci,eold,eci-eold=                    4                    6 -0.80011813773414731      -0.80011181014278976       -6.3275913575466802E-006 F
     orb,it,eci,eold,eci-eold=                    4                    7 -0.80012643574977893      -0.80011813773414731       -8.2980156316247999E-006 F
     orb,it,eci,eold,eci-eold=                    4                    8 -0.80017745818542996      -0.80012643574977893       -5.1022435651026932E-005 F
     orb,it,eci,eold,eci-eold=                    4                    9 -0.80020538752095172      -0.80017745818542996       -2.7929335521759135E-005 F
     orb,it,eci,eold,eci-eold=                    4                   10 -0.80022488238752298      -0.80020538752095172       -1.9494866571267977E-005 F
     orb,it,eci,eold,eci-eold=                    4                   11 -0.80025092323115232      -0.80022488238752298       -2.6040843629338006E-005 F
     orb,it,eci,eold,eci-eold=                    4                   12 -0.80025680230784102      -0.80025092323115232       -5.8790766886973600E-006 F
     orb,it,eci,eold,eci-eold=                    4                   13 -0.80026825952389002      -0.80025680230784102       -1.1457216049004515E-005 F
     orb,it,eci,eold,eci-eold=                    4                   14 -0.80028851276427282      -0.80026825952389002       -2.0253240382794857E-005 F
     orb,it,eci,eold,eci-eold=                    4                   15 -0.80030839706695345      -0.80028851276427282       -1.9884302680628352E-005 F
     orb,it,eci,eold,eci-eold=                    4                   16 -0.80031664057134666      -0.80030839706695345       -8.2435043932127527E-006 F
     orb,it,eci,eold,eci-eold=                    4                   17 -0.80033557693479196      -0.80031664057134666       -1.8936363445298809E-005 F
     orb,it,eci,eold,eci-eold=                    4                   18 -0.80033882872434603      -0.80033557693479196       -3.2517895540706832E-006 F
     orb,it,eci,eold,eci-eold=                    4                   19 -0.80033999686525403      -0.80033882872434603       -1.1681409080033234E-006 F
     orb,it,eci,eold,eci-eold=                    4                   20 -0.80036399822538296      -0.80033999686525403       -2.4001360128922400E-005 F
     orb,it,eci,eold,eci-eold=                    4                   21 -0.80037638249993026      -0.80036399822538296       -1.2384274547305729E-005 F
     orb,it,eci,eold,eci-eold=                    4                   22 -0.80038292909328401      -0.80037638249993026       -6.5465933537511845E-006 F
     orb,it,eci,eold,eci-eold=                    4                   23 -0.80038648165815118      -0.80038292909328401       -3.5525648671708154E-006 F
     orb,it,eci,eold,eci-eold=                    4                   24 -0.80039310962669186      -0.80038648165815118       -6.6279685406733790E-006 F
     orb,it,eci,eold,eci-eold=                    4                   25 -0.80039674119893178      -0.80039310962669186       -3.6315722399260508E-006 F
     orb,it,eci,eold,eci-eold=                    4                   26 -0.80040089314499685      -0.80039674119893178       -4.1519460650674134E-006 F
     orb,it,eci,eold,eci-eold=                    4                   27 -0.80040111368051226      -0.80040089314499685       -2.2053551540501815E-007 F
     orb,it,eci,eold,eci-eold=                    4                   28 -0.80040257912017254      -0.80040111368051226       -1.4654396602864495E-006 F
     orb,it,eci,eold,eci-eold=                    4                   29 -0.80040531841007656      -0.80040257912017254       -2.7392899040190599E-006 F
     orb,it,eci,eold,eci-eold=                    4                   30 -0.80040547757967351      -0.80040531841007656       -1.5916959694717292E-007 F
     orb,it,eci,eold,eci-eold=                    4                   31 -0.80040637239941681      -0.80040547757967351       -8.9481974330229974E-007 F
     orb,it,eci,eold,eci-eold=                    4                   32 -0.80040838505492284      -0.80040637239941681       -2.0126555060340223E-006 F
     orb,it,eci,eold,eci-eold=                    4                   33 -0.80040840957322057      -0.80040838505492284       -2.4518297725428795E-008 F
     orb,it,eci,eold,eci-eold=                    4                   34 -0.80040891568296091      -0.80040840957322057       -5.0610974033915568E-007 F
     orb,it,eci,eold,eci-eold=                    4                   35 -0.80041092861556762      -0.80040891568296091       -2.0129326067097608E-006 F
     orb,it,eci,eold,eci-eold=                    4                   36 -0.80041199898246596      -0.80041092861556762       -1.0703668983369496E-006 F
     orb,it,eci,eold,eci-eold=                    4                   37 -0.80041283688927933      -0.80041199898246596       -8.3790681337791995E-007 F
     orb,it,eci,eold,eci-eold=                    4                   38 -0.80041334205335857      -0.80041283688927933       -5.0516407923417717E-007 F
     orb,it,eci,eold,eci-eold=                    4                   39 -0.80041421807603741      -0.80041334205335857       -8.7602267884179241E-007 F
     orb,it,eci,eold,eci-eold=                    4                   40 -0.80041467714977299      -0.80041421807603741       -4.5907373558140563E-007 F
     orb,it,eci,eold,eci-eold=                    4                   41 -0.80041516345251196      -0.80041467714977299       -4.8630273896677068E-007 F
     orb,it,eci,eold,eci-eold=                    4                   42 -0.80041542288042988      -0.80041516345251196       -2.5942791792576969E-007 F
     orb,it,eci,eold,eci-eold=                    4                   43 -0.80041586469521342      -0.80041542288042988       -4.4181478353610970E-007 F
     orb,it,eci,eold,eci-eold=                    4                   44 -0.80041611534807833      -0.80041586469521342       -2.5065286490821848E-007 F
     orb,it,eci,eold,eci-eold=                    4                   45 -0.80041636234190838      -0.80041611534807833       -2.4699383005533093E-007 F
     orb,it,eci,eold,eci-eold=                    4                   46 -0.80041648263766640      -0.80041636234190838       -1.2029575802152692E-007 F
     orb,it,eci,eold,eci-eold=                    4                   47 -0.80041671001755066      -0.80041648263766640       -2.2737988425447497E-007 F
     orb,it,eci,eold,eci-eold=                    4                   48 -0.80041683953019771      -0.80041671001755066       -1.2951264705129972E-007 F
     orb,it,eci,eold,eci-eold=                    4                   49 -0.80041693972445893      -0.80041683953019771       -1.0019426122109820E-007 F
     orb,it,eci,eold,eci-eold=                    4                   50 -0.80041698390302995      -0.80041693972445893       -4.4178571023678614E-008 F
     orb,it,eci,eold,eci-eold=                    4                   51 -0.80041709605939149      -0.80041698390302995       -1.1215636153139030E-007 F
     orb,it,eci,eold,eci-eold=                    4                   52 -0.80041716167032018      -0.80041709605939149       -6.5610928690063020E-008 F
     orb,it,eci,eold,eci-eold=                    4                   53 -0.80041720568767349      -0.80041716167032018       -4.4017353317826746E-008 F
     orb,it,eci,eold,eci-eold=                    4                   54 -0.80041722588465125      -0.80041720568767349       -2.0196977756903323E-008 F
     orb,it,eci,eold,eci-eold=                    4                   55 -0.80041728539073920      -0.80041722588465125       -5.9506087946026298E-008 F
     orb,it,eci,eold,eci-eold=                    4                   56 -0.80041728794722833      -0.80041728539073920       -2.5564891314999727E-009 F
     orb,it,eci,eold,eci-eold=                    4                   57 -0.80041729094711156      -0.80041728794722833       -2.9998832307143175E-009 F
     orb,it,eci,eold,eci-eold=                    4                   58 -0.80041733469841747      -0.80041729094711156       -4.3751305911499117E-008 F
     orb,it,eci,eold,eci-eold=                    4                   59 -0.80041733476563970      -0.80041733469841747       -6.7222227784213828E-011 F
     orbital   4 current e=  0.490182E+00 error=0.509E-01 (eci= -0.800417335E+00 error=0.672E-10) iterations  59(   0 preconditioned, Ep,Sp= 20.0  200.0)
     orb,it,eci,eold,eci-eold=                    4                    1 -0.80041740579443410      -0.80041733476563970       -7.1028794401684081E-008 F
     orb,it,eci,eold,eci-eold=                    4                    2 -0.80041740898528024      -0.80041740579443410       -3.1908461428642454E-009 F
     orb,it,eci,eold,eci-eold=                    4                    3 -0.80041741284167878      -0.80041740898528024       -3.8563985338413431E-009 F
     orb,it,eci,eold,eci-eold=                    4                    4 -0.80041744001201365      -0.80041741284167878       -2.7170334870874058E-008 F
     orb,it,eci,eold,eci-eold=                    4                    5 -0.80041744699771167      -0.80041744001201365       -6.9856980200455610E-009 F
     orb,it,eci,eold,eci-eold=                    4                    6 -0.80041745082906235      -0.80041744699771167       -3.8313506811604725E-009 F
     orb,it,eci,eold,eci-eold=                    4                    7 -0.80041746324340801      -0.80041745082906235       -1.2414345662570270E-008 F
     orb,it,eci,eold,eci-eold=                    4                    8 -0.80041746988080775      -0.80041746324340801       -6.6373997409385765E-009 F
     orb,it,eci,eold,eci-eold=                    4                    9 -0.80041747476727376      -0.80041746988080775       -4.8864660096015200E-009 F
     orb,it,eci,eold,eci-eold=                    4                   10 -0.80041747705942590      -0.80041747476727376       -2.2921521347640805E-009 F
     orb,it,eci,eold,eci-eold=                    4                   11 -0.80041747920933959      -0.80041747705942590       -2.1499136915181793E-009 F
     orb,it,eci,eold,eci-eold=                    4                   12 -0.80041747920933959      -0.80041747920933959        0.0000000000000000      F
     orbital   4 current e=  0.490115E+00 error=0.667E-04 (eci= -0.800417479E+00 error=0.000E+00) iterations  12(   0 preconditioned, Ep,Sp= 20.0  200.0)
     orb,it,eci,eold,eci-eold=                    4                    1 -0.80041748338423768      -0.80041747842990252       -4.9543351643421829E-009 F
     orb,it,eci,eold,eci-eold=                    4                    2 -0.80041748338423768      -0.80041748338423768        0.0000000000000000      F
     orbital   4 current e=  0.490085E+00 error=0.305E-04 (eci= -0.800417483E+00 error=0.000E+00) iterations   2(   0 preconditioned, Ep,Sp= 20.0  200.0)
     orb,it,eci,eold,eci-eold=                    5                    1 -0.79993096176699896      -0.79957795735600801       -3.5300441099095359E-004 F
     orb,it,eci,eold,eci-eold=                    5                    2 -0.79997529413055390      -0.79993096176699896       -4.4332363554944187E-005 F
     orb,it,eci,eold,eci-eold=                    5                    3 -0.80006863706957088      -0.79997529413055390       -9.3342939016971549E-005 F
     orb,it,eci,eold,eci-eold=                    5                    4 -0.80010542212388180      -0.80006863706957088       -3.6785054310928267E-005 F
     orb,it,eci,eold,eci-eold=                    5                    5 -0.80011592144706090      -0.80010542212388180       -1.0499323179091746E-005 F
     orb,it,eci,eold,eci-eold=                    5                    6 -0.80011916742840095      -0.80011592144706090       -3.2459813400498305E-006 F
     orb,it,eci,eold,eci-eold=                    5                    7 -0.80012580759292895      -0.80011916742840095       -6.6401645280045329E-006 F
     orb,it,eci,eold,eci-eold=                    5                    8 -0.80017817314999806      -0.80012580759292895       -5.2365557069111723E-005 F
     orb,it,eci,eold,eci-eold=                    5                    9 -0.80020435091140585      -0.80017817314999806       -2.6177761407786271E-005 F
     orb,it,eci,eold,eci-eold=                    5                   10 -0.80022174966693249      -0.80020435091140585       -1.7398755526643050E-005 F
     orb,it,eci,eold,eci-eold=                    5                   11 -0.80025123194236147      -0.80022174966693249       -2.9482275428982518E-005 F
     orb,it,eci,eold,eci-eold=                    5                   12 -0.80025615430415564      -0.80025123194236147       -4.9223617941684950E-006 F
     orb,it,eci,eold,eci-eold=                    5                   13 -0.80026584430038317      -0.80025615430415564       -9.6899962275243112E-006 F
     orb,it,eci,eold,eci-eold=                    5                   14 -0.80028813447004588      -0.80026584430038317       -2.2290169662708692E-005 F
     orb,it,eci,eold,eci-eold=                    5                   15 -0.80030503354182203      -0.80028813447004588       -1.6899071776155239E-005 F
     orb,it,eci,eold,eci-eold=                    5                   16 -0.80030910995812810      -0.80030503354182203       -4.0764163060647007E-006 F
     orb,it,eci,eold,eci-eold=                    5                   17 -0.80031457378147153      -0.80030910995812810       -5.4638233434323169E-006 F
     orb,it,eci,eold,eci-eold=                    5                   18 -0.80032373867943862      -0.80031457378147153       -9.1648979670955200E-006 F
     orb,it,eci,eold,eci-eold=                    5                   19 -0.80034053055250920      -0.80032373867943862       -1.6791873070576280E-005 F
     orb,it,eci,eold,eci-eold=                    5                   20 -0.80034906676111706      -0.80034053055250920       -8.5362086078566435E-006 F
     orb,it,eci,eold,eci-eold=                    5                   21 -0.80036041197933372      -0.80034906676111706       -1.1345218216662900E-005 F
     orb,it,eci,eold,eci-eold=                    5                   22 -0.80036885619484555      -0.80036041197933372       -8.4442155118269469E-006 F
     orb,it,eci,eold,eci-eold=                    5                   23 -0.80037392773699367      -0.80036885619484555       -5.0715421481273282E-006 F
     orb,it,eci,eold,eci-eold=                    5                   24 -0.80038309386348594      -0.80037392773699367       -9.1661264922660024E-006 F
     orb,it,eci,eold,eci-eold=                    5                   25 -0.80038498555985305      -0.80038309386348594       -1.8916963671067322E-006 F
     orb,it,eci,eold,eci-eold=                    5                   26 -0.80038995414231806      -0.80038498555985305       -4.9685824650147481E-006 F
     orb,it,eci,eold,eci-eold=                    5                   27 -0.80039468649072676      -0.80038995414231806       -4.7323484086980727E-006 F
     orb,it,eci,eold,eci-eold=                    5                   28 -0.80039709395730418      -0.80039468649072676       -2.4074665774254100E-006 F
     orb,it,eci,eold,eci-eold=                    5                   29 -0.80040319425951068      -0.80039709395730418       -6.1003022064909374E-006 F
     orb,it,eci,eold,eci-eold=                    5                   30 -0.80040329901599627      -0.80040319425951068       -1.0475648559715722E-007 F
     orb,it,eci,eold,eci-eold=                    5                   31 -0.80040365329932595      -0.80040329901599627       -3.5428332967324394E-007 F
     orb,it,eci,eold,eci-eold=                    5                   32 -0.80040704517956063      -0.80040365329932595       -3.3918802346821764E-006 F
     orb,it,eci,eold,eci-eold=                    5                   33 -0.80040787563344773      -0.80040704517956063       -8.3045388710178969E-007 F
     orb,it,eci,eold,eci-eold=                    5                   34 -0.80040849784276114      -0.80040787563344773       -6.2220931340561947E-007 F
     orb,it,eci,eold,eci-eold=                    5                   35 -0.80041053335961054      -0.80040849784276114       -2.0355168494079479E-006 F
     orb,it,eci,eold,eci-eold=                    5                   36 -0.80041180799742762      -0.80041053335961054       -1.2746378170724881E-006 F
     orb,it,eci,eold,eci-eold=                    5                   37 -0.80041312145656884      -0.80041180799742762       -1.3134591412278240E-006 F
     orb,it,eci,eold,eci-eold=                    5                   38 -0.80041385686732291      -0.80041312145656884       -7.3541075407135281E-007 F
     orb,it,eci,eold,eci-eold=                    5                   39 -0.80041458968320511      -0.80041385686732291       -7.3281588219842320E-007 F
     orb,it,eci,eold,eci-eold=                    5                   40 -0.80041488498948521      -0.80041458968320511       -2.9530628009588611E-007 F
     orb,it,eci,eold,eci-eold=                    5                   41 -0.80041549387458266      -0.80041488498948521       -6.0888509745282704E-007 F
     orb,it,eci,eold,eci-eold=                    5                   42 -0.80041551543496925      -0.80041549387458266       -2.1560386587182734E-008 F
     orb,it,eci,eold,eci-eold=                    5                   43 -0.80041559368270532      -0.80041551543496925       -7.8247736068348672E-008 F
     orb,it,eci,eold,eci-eold=                    5                   44 -0.80041608478481963      -0.80041559368270532       -4.9110211430836159E-007 F
     orb,it,eci,eold,eci-eold=                    5                   45 -0.80041610964779653      -0.80041608478481963       -2.4862976899520106E-008 F
     orb,it,eci,eold,eci-eold=                    5                   46 -0.80041613151507762      -0.80041610964779653       -2.1867281096987767E-008 F
     orb,it,eci,eold,eci-eold=                    5                   47 -0.80041650554565547      -0.80041613151507762       -3.7403057784324290E-007 F
     orb,it,eci,eold,eci-eold=                    5                   48 -0.80041671348221277      -0.80041650554565547       -2.0793655730599880E-007 F
     orb,it,eci,eold,eci-eold=                    5                   49 -0.80041685985965239      -0.80041671348221277       -1.4637743961376515E-007 F
     orb,it,eci,eold,eci-eold=                    5                   50 -0.80041692050345725      -0.80041685985965239       -6.0643804866700179E-008 F
     orb,it,eci,eold,eci-eold=                    5                   51 -0.80041701970104162      -0.80041692050345725       -9.9197584368937441E-008 F
     orb,it,eci,eold,eci-eold=                    5                   52 -0.80041707722586675      -0.80041701970104162       -5.7524825125554457E-008 F
     orb,it,eci,eold,eci-eold=                    5                   53 -0.80041717290969405      -0.80041707722586675       -9.5683827305848013E-008 F
     orb,it,eci,eold,eci-eold=                    5                   54 -0.80041718373947501      -0.80041717290969405       -1.0829780960897040E-008 F
     orb,it,eci,eold,eci-eold=                    5                   55 -0.80041718986524990      -0.80041718373947501       -6.1257748873444484E-009 F
     orb,it,eci,eold,eci-eold=                    5                   56 -0.80041723340379622      -0.80041718986524990       -4.3538546323773630E-008 F
     orb,it,eci,eold,eci-eold=                    5                   57 -0.80041725570111966      -0.80041723340379622       -2.2297323432063365E-008 F
     orb,it,eci,eold,eci-eold=                    5                   58 -0.80041727621646830      -0.80041725570111966       -2.0515348642113906E-008 F
     orb,it,eci,eold,eci-eold=                    5                   59 -0.80041731568142693      -0.80041727621646830       -3.9464958634383152E-008 F
     orb,it,eci,eold,eci-eold=                    5                   60 -0.80041733603923748      -0.80041731568142693       -2.0357810548432553E-008 F
     orb,it,eci,eold,eci-eold=                    5                   61 -0.80041736453108614      -0.80041733603923748       -2.8491848658163121E-008 F
     orb,it,eci,eold,eci-eold=                    5                   62 -0.80041736878262870      -0.80041736453108614       -4.2515425624500836E-009 F
     orb,it,eci,eold,eci-eold=                    5                   63 -0.80041737415795422      -0.80041736878262870       -5.3753255180311044E-009 F
     orb,it,eci,eold,eci-eold=                    5                   64 -0.80041739296590519      -0.80041737415795422       -1.8807950974419896E-008 F
     orb,it,eci,eold,eci-eold=                    5                   65 -0.80041739578299864      -0.80041739296590519       -2.8170934474047726E-009 F
     orb,it,eci,eold,eci-eold=                    5                   66 -0.80041739841457837      -0.80041739578299864       -2.6315797319043099E-009 F
     orb,it,eci,eold,eci-eold=                    5                   67 -0.80041741524912968      -0.80041739841457837       -1.6834551308519963E-008 F
     orb,it,eci,eold,eci-eold=                    5                   68 -0.80041741747338335      -0.80041741524912968       -2.2242536701355675E-009 F
     orb,it,eci,eold,eci-eold=                    5                   69 -0.80041741823169288      -0.80041741747338335       -7.5830952628308523E-010 F
     orbital   5 current e=  0.489522E+00 error=0.519E-01 (eci= -0.800417418E+00 error=0.758E-09) iterations  69(   0 preconditioned, Ep,Sp= 20.0  200.0)
     orb,it,eci,eold,eci-eold=                    5                    1 -0.80041742451080511      -0.80041741823169288       -6.2791122301675273E-009 F
     orb,it,eci,eold,eci-eold=                    5                    2 -0.80041742513940295      -0.80041742451080511       -6.2859784044633216E-010 F
     orbital   5 current e=  0.489567E+00 error=0.453E-04 (eci= -0.800417425E+00 error=0.629E-09) iterations   2(   0 preconditioned, Ep,Sp= 20.0  200.0)
     orb,it,eci,eold,eci-eold=                    5                    1 -0.80041746925674873      -0.80041742513940295       -4.4117345776584216E-008 F
     orb,it,eci,eold,eci-eold=                    5                    2 -0.80041747271039676      -0.80041746925674873       -3.4536480342239884E-009 F
     orb,it,eci,eold,eci-eold=                    5                    3 -0.80041747648570760      -0.80041747271039676       -3.7753108417248882E-009 F
     orb,it,eci,eold,eci-eold=                    5                    4 -0.80041747797137008      -0.80041747648570760       -1.4856624819259423E-009 F
     orb,it,eci,eold,eci-eold=                    5                    5 -0.80041747885907211      -0.80041747797137008       -8.8770202300025858E-010 F
     orbital   5 current e=  0.489753E+00 error=0.186E-03 (eci= -0.800417479E+00 error=0.888E-09) iterations   5(   0 preconditioned, Ep,Sp= 20.0  200.0)
     orb,it,eci,eold,eci-eold=                    6                    1 -0.79985099961655870      -0.79932809149646955       -5.2290812008914944E-004 F
     orb,it,eci,eold,eci-eold=                    6                    2 -0.79993126952630489      -0.79985099961655870       -8.0269909746188972E-005 F
     orb,it,eci,eold,eci-eold=                    6                    3 -0.79997606604603655      -0.79993126952630489       -4.4796519731660212E-005 F
     orb,it,eci,eold,eci-eold=                    6                    4 -0.79999043742374898      -0.79997606604603655       -1.4371377712429911E-005 F
     orb,it,eci,eold,eci-eold=                    6                    5 -0.80002601030848186      -0.79999043742374898       -3.5572884732881782E-005 F
     orb,it,eci,eold,eci-eold=                    6                    6 -0.80003458365340463      -0.80002601030848186       -8.5733449227687331E-006 F
     orb,it,eci,eold,eci-eold=                    6                    7 -0.80008473573012262      -0.80003458365340463       -5.0152076717990823E-005 F
     orb,it,eci,eold,eci-eold=                    6                    8 -0.80016020567405044      -0.80008473573012262       -7.5469943927819472E-005 F
     orb,it,eci,eold,eci-eold=                    6                    9 -0.80021009048636127      -0.80016020567405044       -4.9884812310829751E-005 F
     orb,it,eci,eold,eci-eold=                    6                   10 -0.80024213025381008      -0.80021009048636127       -3.2039767448810430E-005 F
     orb,it,eci,eold,eci-eold=                    6                   11 -0.80026538704799610      -0.80024213025381008       -2.3256794186021779E-005 F
     orb,it,eci,eold,eci-eold=                    6                   12 -0.80027663863185272      -0.80026538704799610       -1.1251583856619618E-005 F
     orb,it,eci,eold,eci-eold=                    6                   13 -0.80028254456889902      -0.80027663863185272       -5.9059370463021565E-006 F
     orb,it,eci,eold,eci-eold=                    6                   14 -0.80030905026109955      -0.80028254456889902       -2.6505692200529118E-005 F
     orb,it,eci,eold,eci-eold=                    6                   15 -0.80032306371984041      -0.80030905026109955       -1.4013458740858020E-005 F
     orb,it,eci,eold,eci-eold=                    6                   16 -0.80033108984904944      -0.80032306371984041       -8.0261292090266778E-006 F
[...]
   10    7   10   10        0.0021390131
   10    7   11   10       -0.0002961981
   10    7   12   10       -0.0000184218
   10    7   13   10        0.0000725452
   10    7   11   11       -0.0034956283
   10    7   12   11       -0.0000282471
   10    7   13   11        0.0001360178
   10    7   12   12       -0.0036597179
   10    7   13   12        0.0000000150
   10    7   13   13       -0.0035382434
   11    7   11    7        0.0756513346
   11    7   12    7       -0.0000756730
   11    7   13    7        0.0000618265
   11    7    8    8       -0.0015549565
   11    7    9    8        0.0000001810
   11    7   10    8        0.0000006539
   11    7   11    8        0.0000177707
   11    7   12    8        0.0167424367
   11    7   13    8        0.0475232224
   11    7    9    9       -0.0015576511
   11    7   10    9       -0.0000016175
   11    7   11    9       -0.0000417092
   11    7   12    9       -0.0476544421
   11    7   13    9        0.0167024986
   11    7   10   10        0.0024974963
   11    7   11   10       -0.0162361786
   11    7   12   10       -0.0002912057
   11    7   13   10        0.0011813382
   11    7   11   11       -0.0038242588
   11    7   12   11        0.0000064196
   11    7   13   11       -0.0001463902
   11    7   12   12       -0.0029298156
   11    7   13   12       -0.0000047519
   11    7   13   13       -0.0030207634
   12    7   12    7        0.0100699093
   12    7   13    7       -0.0000018764
   12    7    8    8        0.0000006773
   12    7    9    8       -0.0000002428
   12    7   10    8        0.0000930651
   12    7   11    8        0.0012718721
   12    7   12    8       -0.0000160694
   12    7   13    8       -0.0000121403
   12    7    9    9        0.0000012112
   12    7   10    9       -0.0002650527
   12    7   11    9       -0.0036187054
   12    7   12    9        0.0000456280
   12    7   13    9       -0.0000691794
   12    7   10   10       -0.0000065599
   12    7   11   10        0.0000432102
   12    7   12   10       -0.0092472920
   12    7   13   10        0.0000004053
   12    7   11   11        0.0000027017
   12    7   12   11       -0.0001040922
   12    7   13   11       -0.0000002240
   12    7   12   12       -0.0000000498
   12    7   13   12       -0.0000031613
   12    7   13   13        0.0000009148
   13    7   13    7        0.0098941169
   13    7    8    8       -0.0000334934
   13    7    9    8       -0.0000002620
   13    7   10    8        0.0002607751
   13    7   11    8        0.0036732592
   13    7   12    8       -0.0000134009
   13    7   13    8        0.0000459942
   13    7    9    9       -0.0000340664
   13    7   10    9        0.0000915400
   13    7   11    9        0.0012905703
   13    7   12    9        0.0000045287
   13    7   13    9        0.0000155383
   13    7   10   10       -0.0000324484
   13    7   11   10       -0.0000647607
   13    7   12   10        0.0000008340
   13    7   13   10       -0.0090529995
   13    7   11   11       -0.0000602860
   13    7   12   11       -0.0000004030
   13    7   13   11       -0.0001094189
   13    7   12   12       -0.0000408314
   13    7   13   12       -0.0000004425
   13    7   13   13       -0.0000470198
    8    8    8    8        0.3035253756
    8    8    9    8       -0.0000010291
    8    8   10    8        0.0000004481
    8    8   11    8        0.0000002766
    8    8   12    8       -0.0003395139
    8    8   13    8       -0.0009768534
    8    8    9    9        0.2761868731
    8    8   10    9       -0.0000010774
    8    8   11    9       -0.0000004963
    8    8   12    9        0.0008513095
    8    8   13    9       -0.0003029968
    8    8   10   10        0.2852539001
    8    8   11   10       -0.0002648557
    8    8   12   10       -0.0000000025
    8    8   13   10       -0.0000062320
    8    8   11   11        0.2771813747
    8    8   12   11       -0.0000300434
    8    8   13   11        0.0000452492
    8    8   12   12        0.2759473717
    8    8   13   12        0.0066529704
    8    8   13   13        0.2922831021
    9    8    9    8        0.0143123861
    9    8   10    8       -0.0000000391
    9    8   11    8       -0.0000000567
    9    8   12    8        0.0000555504
    9    8   13    8       -0.0000188842
    9    8    9    9        0.0000010019
    9    8   10    9        0.0000000633
    9    8   11    9        0.0000000226
    9    8   12    9       -0.0000190206
    9    8   13    9       -0.0000572456
    9    8   10   10        0.0000000131
    9    8   11   10       -0.0000000623
    9    8   12   10       -0.0000000720
    9    8   13   10       -0.0000001386
    9    8   11   11       -0.0000000306
    9    8   12   11       -0.0000055112
    9    8   13   11       -0.0000059968
    9    8   12   12       -0.0067003720
    9    8   13   12       -0.0084542255
    9    8   13   13        0.0066946487
   10    8   10    8        0.0166866083
   10    8   11    8       -0.0001284082
   10    8   12    8        0.0000004676
   10    8   13    8       -0.0000001405
   10    8    9    9        0.0000004901
   10    8   10    9        0.0000000019
   10    8   11    9       -0.0000000177
   10    8   12    9       -0.0000005248
   10    8   13    9        0.0000000301
   10    8   10   10        0.0000007070
   10    8   11   10       -0.0000001907
   10    8   12   10        0.0000680886
   10    8   13   10        0.0001883868
   10    8   11   11        0.0000007187
   10    8   12   11        0.0005783958
   10    8   13   11        0.0017077017
   10    8   12   12       -0.0000299266
   10    8   13   12        0.0000112685
   10    8   13   13        0.0003127281
   11    8   11    8        0.0085803069
   11    8   12    8        0.0000095159
   11    8   13    8       -0.0000354305
   11    8    9    9        0.0000002265
   11    8   10    9       -0.0000000173
   11    8   11    9       -0.0000000404
   11    8   12    9       -0.0000147466
   11    8   13    9        0.0000006878
   11    8   10   10        0.0000013681
   11    8   11   10       -0.0000003041
   11    8   12   10        0.0018880491
   11    8   13   10        0.0054220703
   11    8   11   11       -0.0000000462
   11    8   12   11       -0.0000785622
   11    8   13   11       -0.0002236427
   11    8   12   12       -0.0000000281
   11    8   13   12       -0.0000020726
   11    8   13   13       -0.0000115311
   12    8   12    8        0.0115122187
   12    8   13    8        0.0154089835
   12    8    9    9       -0.0003008163
   12    8   10    9       -0.0000004534
   12    8   11    9       -0.0000127578
   12    8   12    9       -0.0154701681
   12    8   13    9       -0.0006591297
   12    8   10   10        0.0007263483
   12    8   11   10       -0.0024836499
   12    8   12   10       -0.0000835327
   12    8   13   10        0.0003139006
   12    8   11   11       -0.0007408077
   12    8   12   11        0.0000015770
   12    8   13   11       -0.0000318016
   12    8   12   12       -0.0006740486
   12    8   13   12       -0.0000996492
   12    8   13   13       -0.0006282593
   13    8   13    8        0.0498095063
   13    8    9    9       -0.0008697406
   13    8   10    9       -0.0000012931
   13    8   11    9       -0.0000299302
   13    8   12    9       -0.0379456204
   13    8   13    9        0.0154267001
   13    8   10   10        0.0020413255
   13    8   11   10       -0.0068842071
   13    8   12   10       -0.0002423529
   13    8   13   10        0.0008832969
   13    8   11   11       -0.0021170515
   13    8   12   11        0.0000017683
   13    8   13   11       -0.0000977832
   13    8   12   12       -0.0017379405
   13    8   13   12       -0.0000385234
   13    8   13   13       -0.0019962675
    9    9    9    9        0.3036278785
    9    9   10    9       -0.0000012247
    9    9   11    9       -0.0000006078
    9    9   12    9        0.0009606320
    9    9   13    9       -0.0003439963
    9    9   10   10        0.2853055049
    9    9   11   10       -0.0002652969
    9    9   12   10        0.0000001581
    9    9   13   10       -0.0000062195
    9    9   11   11        0.2772403851
    9    9   12   11       -0.0000182658
    9    9   13   11        0.0000352078
    9    9   12   12        0.2924025834
    9    9   13   12       -0.0066512462
    9    9   13   13        0.2759415143
   10    9   10    9        0.0166815834
   10    9   11    9       -0.0001285069
   10    9   12    9        0.0000015554
   10    9   13    9       -0.0000008032
   10    9   10   10       -0.0000017034
   10    9   11   10        0.0000004221
   10    9   12   10       -0.0001937186
   10    9   13   10        0.0000660576
   10    9   11   11       -0.0000015242
   10    9   12   11       -0.0016455198
   10    9   13   11        0.0005997344
   10    9   12   12        0.0000854744
   10    9   13   12       -0.0001752091
   10    9   13   13        0.0001102714
   11    9   11    9        0.0085851344
   11    9   12    9        0.0000394090
   11    9   13    9       -0.0000609366
   11    9   10   10       -0.0000031886
   11    9   11   10        0.0000009864
   11    9   12   10       -0.0053740100
   11    9   13   10        0.0019045570
   11    9   11   11        0.0000002083
   11    9   12   11        0.0002232701
   11    9   13   11       -0.0000784260
   11    9   12   12        0.0000001199
   11    9   13   12        0.0000057780
   11    9   13   13       -0.0000039643
   12    9   12    9        0.0499447488
   12    9   13    9       -0.0154113687
   12    9   10   10       -0.0020737053
   12    9   11   10        0.0070743687
   12    9   12   10        0.0002381132
   12    9   13   10       -0.0009279975
   12    9   11   11        0.0021024097
   12    9   12   11       -0.0000044913
   12    9   13   11        0.0000922812
   12    9   12   12        0.0019105181
   12    9   13   12       -0.0000302771
   12    9   13   13        0.0017821056
   13    9   13    9        0.0114965121
   13    9   10   10        0.0007186821
   13    9   11   10       -0.0024212672
   13    9   12   10       -0.0000483035
   13    9   13   10        0.0003122384
   13    9   11   11       -0.0007429002
   13    9   12   11        0.0000075258
   13    9   13   11       -0.0000343879
   13    9   12   12       -0.0006086413
   13    9   13   12        0.0000990574
   13    9   13   13       -0.0007011832
   10   10   10   10        0.3215511739
   10   10   11   10       -0.0012002273
   10   10   12   10       -0.0000245128
   10   10   13   10        0.0000893440
   10   10   11   11        0.2986722819
   10   10   12   11       -0.0000227325
   10   10   13   11        0.0000447002
   10   10   12   12        0.3002149732
   10   10   13   12        0.0000002027
   10   10   13   13        0.3002404852
   11   10   11   10        0.0252298056
   11   10   12   10        0.0000684294
   11   10   13   10       -0.0002190716
   11   10   11   11        0.0000418502
   11   10   12   11       -0.0000015218
   11   10   13   11        0.0000362795
   11   10   12   12        0.0000109161
   11   10   13   12        0.0000010879
   11   10   13   13        0.0000426220
   12   10   12   10        0.0297809152
   12   10   13   10       -0.0000053952
   12   10   11   11        0.0000080619
   12   10   12   11        0.0000476768
   12   10   13   11        0.0000006531
   12   10   12   12        0.0000035985
   12   10   13   12        0.0000059516
   12   10   13   13        0.0000062749
   13   10   13   10        0.0299975303
   13   10   11   11       -0.0000355127
   13   10   12   11        0.0000002696
   13   10   13   11        0.0000506788
   13   10   12   12       -0.0000294804
   13   10   13   12       -0.0000012312
   13   10   13   13       -0.0000198436
   11   11   11   11        0.3192018946
   11   11   12   11       -0.0000470353
   11   11   13   11        0.0000832791
   11   11   12   12        0.2899919567
   11   11   13   12        0.0000001466
   11   11   13   13        0.2898405901
   12   11   12   11        0.0121851203
   12   11   13   11        0.0000001433
   12   11   12   12       -0.0000353212
   12   11   13   12        0.0000263072
   12   11   13   13       -0.0000257353
   13   11   13   11        0.0121793798
   13   11   12   12        0.0000327647
   13   11   13   12       -0.0000044889
   13   11   13   13        0.0000855859
   12   12   12   12        0.3121058760
   12   12   13   12       -0.0000026393
   12   12   13   13        0.2871496900
   13   12   13   12        0.0126946576
   13   12   13   13        0.0000056803
   13   13   13   13        0.3119619446
 end_two_electron_integrals


 output epsi filename:./pspw_hf_H2.emovecs

 Total PSPW energy     :  -0.7986846649E+00


=== Spin Contamination ===

 <Sexact^2> =    0.0000000000000000     
 <S^2>      =    0.0000000000000000     



== Center of Charge ==

spin up     (    0.0000,    0.0000,    0.0177 )
spin down   (    0.0000,    0.0000,    0.0177 )
     total  (    0.0000,    0.0000,    0.0177 )
ionic       (    0.0000,    0.0000,    0.0000 )


== Molecular Dipole wrt Center of Mass ==

mu   =  (   -0.0000,   -0.0000,   -0.0354 ) au
|mu| =     0.0354 au,       0.0899 Debye

 output psi filename:./pspw_hf_H2.movecs

 Writing Crystallographic Information File:./H2.cif
   - cell not shifted (nwpw:cif_shift_cell .false.)


== Timing ==

cputime in seconds
  prologue    :   0.647525E+01
  main loop   :   0.375725E+03
  epilogue    :   0.157086E-01
  total       :   0.382216E+03
  cputime/step:   0.221015E+01       (     170 evalulations,      71 linesearches)


Time spent doing                        total          step       percent
  total time                 :   0.382227E+03  0.224839E+01       100.0 %
  i/o time                   :   0.301285E+00  0.177226E-02         0.1 %
  FFTs                       :   0.259207E+03  0.152474E+01        67.8 %
  dot products               :   0.237178E+02  0.139516E+00         6.2 %
  geodesic                   :   0.802839E-01  0.472258E-03         0.0 %
  ffm_dgemm                  :   0.133414E-01  0.784791E-04         0.0 %
  fmf_dgemm                  :   0.766268E-02  0.450746E-04         0.0 %
  mmm_dgemm                  :   0.293956E-02  0.172916E-04         0.0 %
  m_diagonalize              :   0.144999E-02  0.852938E-05         0.0 %
  local pseudopotentials     :   0.528253E+01  0.310737E-01         1.4 %
  non-local pseudopotentials :   0.226832E+02  0.133431E+00         5.9 %
  structure factors          :   0.524314E+00  0.308420E-02         0.1 %
  phase factors              :   0.769800E-05  0.452824E-07         0.0 %
  masking and packing        :   0.788192E+01  0.463643E-01         2.1 %
  queue fft                  :   0.914871E+01  0.538159E-01         2.4 %
  queue fft (serial)         :   0.268923E+01  0.158190E-01         0.7 %
  queue fft (message passing):   0.642542E+01  0.377966E-01         1.7 %
  HFX potential              :   0.425879E+01  0.250517E-01         1.1 %
  non-local psp FFM          :   0.222555E+02  0.130915E+00         5.8 %
  non-local psp FMF          :   0.914489E-01  0.537935E-03         0.0 %
  non-local psp FFM A        :   0.379190E-01  0.223053E-03         0.0 %
  non-local psp FFM B        :   0.120952E+00  0.711482E-03         0.0 %

== HFX Counters ==
  HFX Evalulations         =   170
  Lin ACE HFX Evalulations =     0


     >>>  JOB COMPLETED     AT Sun Apr  6 19:16:28 2025  <<<

 Task  times  cpu:      360.6s     wall:      382.2s


                                NWChem Input Module
                                -------------------


 Summary of allocated global arrays
-----------------------------------
  No active global arrays


MA_summarize_allocated_blocks: starting scan ...
MA_summarize_allocated_blocks: scan completed: 0 heap blocks, 0 stack blocks
MA usage statistics:

	allocation statistics:
					      heap	     stack
					      ----	     -----
	current number of blocks	         0	         0
	maximum number of blocks	       313	        36
	current total bytes		         0	         0
	maximum total bytes		  16458944	   5334728
	maximum total K-bytes		     16459	      5335
	maximum total M-bytes		        17	         6


                                     CITATION
                                     --------
                Please cite the following reference when publishing
                           results obtained with NWChem:

          E. Apra, E. J. Bylaska, W. A. de Jong, N. Govind, K. Kowalski,
       T. P. Straatsma, M. Valiev, H. J. J. van Dam, Y. Alexeev, J. Anchell,
       V. Anisimov, F. W. Aquino, R. Atta-Fynn, J. Autschbach, N. P. Bauman,
     J. C. Becca, D. E. Bernholdt, K. Bhaskaran-Nair, S. Bogatko, P. Borowski,
         J. Boschen, J. Brabec, A. Bruner, E. Cauet, Y. Chen, G. N. Chuev,
      C. J. Cramer, J. Daily, M. J. O. Deegan, T. H. Dunning Jr., M. Dupuis,
   K. G. Dyall, G. I. Fann, S. A. Fischer, A. Fonari, H. Fruchtl, L. Gagliardi,
      J. Garza, N. Gawande, S. Ghosh, K. Glaesemann, A. W. Gotz, J. Hammond,
       V. Helms, E. D. Hermes, K. Hirao, S. Hirata, M. Jacquelin, L. Jensen,
   B. G. Johnson, H. Jonsson, R. A. Kendall, M. Klemm, R. Kobayashi, V. Konkov,
      S. Krishnamoorthy, M. Krishnan, Z. Lin, R. D. Lins, R. J. Littlefield,
      A. J. Logsdail, K. Lopata, W. Ma, A. V. Marenich, J. Martin del Campo,
   D. Mejia-Rodriguez, J. E. Moore, J. M. Mullin, T. Nakajima, D. R. Nascimento,
    J. A. Nichols, P. J. Nichols, J. Nieplocha, A. Otero-de-la-Roza, B. Palmer,
    A. Panyala, T. Pirojsirikul, B. Peng, R. Peverati, J. Pittner, L. Pollack,
   R. M. Richard, P. Sadayappan, G. C. Schatz, W. A. Shelton, D. W. Silverstein,
   D. M. A. Smith, T. A. Soares, D. Song, M. Swart, H. L. Taylor, G. S. Thomas,
            V. Tipparaju, D. G. Truhlar, K. Tsemekhman, T. Van Voorhis,
      A. Vazquez-Mayagoitia, P. Verma, O. Villa, A. Vishnu, K. D. Vogiatzis,
        D. Wang, J. H. Weare, M. J. Williamson, T. L. Windus, K. Wolinski,
        A. T. Wong, Q. Wu, C. Yang, Q. Yu, M. Zacharias, Z. Zhang, Y. Zhao,
                                and R. J. Harrison
                        "NWChem: Past, present, and future
                         J. Chem. Phys. 152, 184102 (2020)
                               doi:10.1063/5.0004997

                                      AUTHORS
                                      -------
  E. Apra, E. J. Bylaska, N. Govind, K. Kowalski, M. Valiev, D. Mejia-Rodriguez,
       A. Kunitsa, N. P. Bauman, A. Panyala, W. A. de Jong, T. P. Straatsma,
   H. J. J. van Dam, D. Wang, T. L. Windus, J. Hammond, J. Autschbach, A. Woods,
    K. Bhaskaran-Nair, J. Brabec, K. Lopata, S. A. Fischer, S. Krishnamoorthy,
     M. Jacquelin, W. Ma, M. Klemm, O. Villa, Y. Chen, V. Anisimov, F. Aquino,
     S. Hirata, M. T. Hackler, E. Hermes, L. Jensen, J. E. Moore, J. C. Becca,
      V. Konjkov, T. Risthaus, M. Malagoli, A. Marenich, A. Otero-de-la-Roza,
        J. Mullin, P. Nichols, R. Peverati, J. Pittner, Y. Zhao, P.-D. Fan,
        A. Fonari, M. J. Williamson, R. J. Harrison, J. R. Rehr, M. Dupuis,
     D. Silverstein, D. M. A. Smith, J. Nieplocha, V. Tipparaju, M. Krishnan,
     B. E. Van Kuiken, A. Vazquez-Mayagoitia, M. Swart, Q. Wu, T. Van Voorhis,
     A. A. Auer, M. Nooijen, L. D. Crosby, E. Brown, G. Cisneros, G. I. Fann,
   H. Fruchtl, J. Garza, K. Hirao, R. A. Kendall, J. A. Nichols, K. Tsemekhman,
    K. Wolinski, J. Anchell, D. E. Bernholdt, P. Borowski, T. Clark, D. Clerc,
   H. Dachsel, M. J. O. Deegan, K. Dyall, D. Elwood, E. Glendening, M. Gutowski,
   A. C. Hess, J. Jaffe, B. G. Johnson, J. Ju, R. Kobayashi, R. Kutteh, Z. Lin,
   R. Littlefield, X. Long, B. Meng, T. Nakajima, S. Niu, L. Pollack, M. Rosing,
   K. Glaesemann, G. Sandrone, M. Stave, H. Taylor, G. Thomas, J. H. van Lenthe,
                               A. T. Wong, Z. Zhang.

 Total times  cpu:      360.6s     wall:      382.4s
