 argument  1 = H2-6.0.nw



============================== echo of input deck ==============================
title "swnc: e theory=pspw4 xc=hf formula=H2 charge=0 mult=1"
#machinejob:expert

echo

start pspw_hf_H2

memory heap 1200 mb stack 1200 mb global 10 mb

charge 0

geometry
H    0.00000    0.00000   -3.00000
H    0.00000    0.00000    3.00000
end

nwpw
  ### pseudopotential block begin ###
  ### pseudopotential block end   ###
  simulation_cell
     SC 15.0000
     boundary_conditions aperiodic
  end

  cutoff 50.0
  mult 1
  xc hf
  lmbfgs
  tolerances 1.0e-9 1.0e-9

  virtual 12
end
set nwpw:cif_filename H2

#set nwpw:CI_maxit_orb 15
#set nwpw:CI_maxit_linesearch 15
set pspw:HFX_screening_radius 14.0


set nwpw:2qintegrals .true.
set nwpw:3x3_virtual .true.

task pspw energy
================================================================================


                                         
                                         


             Northwest Computational Chemistry Package (NWChem) 7.2.3
             --------------------------------------------------------


                    Environmental Molecular Sciences Laboratory
                       Pacific Northwest National Laboratory
                                Richland, WA 99352

                              Copyright (c) 1994-2022
                       Pacific Northwest National Laboratory
                            Battelle Memorial Institute

             NWChem is an open-source computational chemistry package
                        distributed under the terms of the
                      Educational Community License (ECL) 2.0
             A copy of the license is included with this distribution
                              in the LICENSE.TXT file

                                  ACKNOWLEDGMENT
                                  --------------

            This software and its documentation were developed at the
            EMSL at Pacific Northwest National Laboratory, a multiprogram
            national laboratory, operated for the U.S. Department of Energy
            by Battelle under Contract Number DE-AC05-76RL01830. Support
            for this work was provided by the Department of Energy Office
            of Biological and Environmental Research, Office of Basic
            Energy Sciences, and the Office of Advanced Scientific Computing.


           Job information
           ---------------

    hostname        = mqs-al
    program         = nwchem
    date            = Sun Apr  6 19:00:46 2025

    compiled        = Thu_Oct_31_08:55:15_2024
    source          = /home/conda/feedstock_root/build_artifacts/nwchem_1730356057992/work
    nwchem branch   = 7.2.3
    nwchem revision = c400b04
    ga revision     = 5.8.0
    use scalapack   = T
    input           = H2-6.0.nw
    prefix          = pspw_hf_H2.
    data base       = ./pspw_hf_H2.db
    status          = startup
    nproc           =       24
    time left       =     -1s



           Memory information
           ------------------

    heap     =  157286398 doubles =   1200.0 Mbytes
    stack    =  157286395 doubles =   1200.0 Mbytes
    global   =    1310720 doubles =     10.0 Mbytes (distinct from heap & stack)
    total    =  315883513 doubles =   2410.0 Mbytes
    verify   = yes
    hardfail = no 


           Directory information
           ---------------------

  0 permanent = .
  0 scratch   = .




                                NWChem Input Module
                                -------------------


               swnc: e theory=pspw4 xc=hf formula=H2 charge=0 mult=1
               -----------------------------------------------------

 Scaling coordinates for geometry "geometry" by  1.889725989
 (inverse scale =  0.529177249)

  zeroes
  zeroes
  zeroes
  zeroes
  zeroes
  zeroes
  zeroes
  zeroes
  zeroes
  zeroes
  zeroes
  zeroes
  zeroes
  zeroes
  zeroes
  zeroes
  zeroes
  zeroes
  zeroes
  zeroes
  zeroes
  zeroes
  zeroes
  zeroes
  zeroes
  zeroes
  zeroes
  zeroes
  zeroes
  zeroes
  zeroes
  zeroes
  zeroes
  zeroes
  zeroes
  zeroes
  zeroes
  zeroes
  zeroes
  zeroes
  zeroes
  zeroes
  zeroes
  zeroes
  zeroes
  zeroes
  zeroes
  zeroes
 ORDER OF PRIMARY AXIS IS BEING SET TO 4
 D4H symmetry detected

          ------
          auto-z
          ------
     1 autoz failed with cvr_scaling = 1.2 changing to 1.3
     2 autoz failed with cvr_scaling = 1.3 changing to 1.4
     3 autoz failed with cvr_scaling = 1.4 changing to 1.5
     4 autoz failed with cvr_scaling = 1.5 changing to 1.6
     5 autoz failed with cvr_scaling = 1.6 changing to 1.7

 AUTOZ failed to generate good internal coordinates.
 Cartesian coordinates will be used in optimizations.



                             Geometry "geometry" -> ""
                             -------------------------

 Output coordinates in angstroms (scale by  1.889725989 to convert to a.u.)

  No.       Tag          Charge          X              Y              Z
 ---- ---------------- ---------- -------------- -------------- --------------
    1 H                    1.0000     0.00000000     0.00000000    -3.00000000
    2 H                    1.0000     0.00000000     0.00000000     3.00000000

      Atomic Mass 
      ----------- 

      H                  1.007825


 Effective nuclear repulsion energy (a.u.)       0.0881962082

            Nuclear Dipole moment (a.u.) 
            ----------------------------
        X                 Y               Z
 ---------------- ---------------- ----------------
     0.0000000000     0.0000000000     0.0000000000

      Symmetry information
      --------------------

 Group name             D4h       
 Group number             28
 Group order              16
 No. of unique centers     1

      Symmetry unique atoms

     1


            XYZ format geometry
            -------------------
     2
 geometry
 H                     0.00000000     0.00000000    -3.00000000
 H                     0.00000000     0.00000000     3.00000000

          ****************************************************
          *                                                  *
          *               NWPW PSPW Calculation              *
          *                                                  *
          * [ (Grassmann/Stiefel manifold implementation)  ] *
          *                                                  *
          *      [ NorthWest Chemistry implementation ]      *
          *                                                  *
          *            version #5.10   06/12/02              *
          *                                                  *
          *    This code was developed by Eric J. Bylaska,   *
          *    and was based upon algorithms and code        *
          *    developed by the group of Prof. John H. Weare *
          *                                                  *
          ****************************************************
     >>>  JOB STARTED       AT Sun Apr  6 19:00:46 2025  <<<
          ================ input data ========================

 input psi filename:./pspw_hf_H2.movecs

 number of processors used:        24
 processor grid           :  24 x   1
 parallel mapping         :2d-hilbert
 parallel mapping         :  balanced
 number of threads        :         1
 parallel io              :       off

 options:
      boundary conditions  = aperiodic   (version4)
      electron spin        = restricted
      exchange-correlation = Hartree-Fock
      - HFX relaxed
      - HFX restricted orbitals :    1
      - HFX free-space coulomb solver


 elements involved in the cluster:
      1: H   valence charge:  1.0000  lmax=  1
             comment    : Parameterized (Chem.Phys.Lett., vol 322, page 447) Hamman psp
             pseudpotential type            :   0
             highest angular component      :   1
             local potential used           :   1
             number of non-local projections:   1
             aperiodic cutoff radius        :  1.000
             cutoff =   0.800   0.800


 total charge:   0.000

 atomic composition:
     H   :    2

 number of electrons: spin up=     1 (   1 per task)  down=     1 (   1 per task) (Fourier space)
 number of orbitals : spin up=     1 (   1 per task)  down=     1 (   1 per task) (Fourier space)

 supercell:
      cell_name:  cell_default                                      
      lattice:    a1=<  15.000   0.000   0.000 >
                  a2=<   0.000  15.000   0.000 >
                  a3=<   0.000   0.000  15.000 >
      reciprocal: b1=<   0.419   0.000   0.000 >
                  b2=<   0.000   0.419   0.000 >
                  b3=<   0.000   0.000   0.419 >
      lattice:    a=      15.000 b=     15.000 c=      15.000
                  alpha=  90.000 beta=  90.000 gamma=  90.000
                  omega=      3375.0

      density cutoff=100.000  fft= 70x 70x 70(    80618 waves     3359 per task)
      wavefnc cutoff= 50.000  fft= 70x 70x 70(    28526 waves     1188 per task)

 technical parameters:
      time step=      5.80     fictitious mass=  400000.0
      tolerance=0.100E-08 (energy)   0.100E-08 (density)
      maximum iterations =      1000 (   10 inner    100 outer )





== Energy Calculation ==


          ============ Grassmann lmbfgs iteration ============
     >>>  ITERATION STARTED AT Sun Apr  6 19:00:52 2025  <<<
    iter.           Energy         DeltaE       DeltaRho 
    ------------------------------------------------------
      10   -0.5626867959E+00   -0.54216E-01    0.59638E-01
     -  10 steepest descent iterations performed
      20   -0.8221897888E+00   -0.73335E-02    0.73580E-02
      30   -0.8402405506E+00   -0.26582E-03    0.32981E-03
      40   -0.8411298552E+00   -0.19052E-04    0.19592E-05
      50   -0.8412044530E+00   -0.19657E-05    0.72651E-07
      60   -0.8412101933E+00   -0.14668E-06    0.33677E-07
      70   -0.8412105936E+00   -0.87836E-08    0.49343E-08
      80   -0.8412106176E+00   -0.91653E-09    0.30548E-10
  *** tolerance ok. iteration terminated
     >>>  ITERATION ENDED   AT Sun Apr  6 19:01:00 2025  <<<


==  Summary Of Results  ==

 number of electrons: spin up=    1.00000  down=    1.00000 (real space)

 total     energy    :  -0.8412106176E+00 (   -0.42061E+00/ion)
 total orbital energy:  -0.6214875555E+00 (   -0.62149E+00/electron)
 hartree   energy    :   0.6158385406E+00 (    0.61584E+00/electron)
 exc-corr  energy    :   0.0000000000E+00 (    0.00000E+00/electron)
 HF exchange energy  :  -0.3079192703E+00 (   -0.30792E+00/electron)
 ion-ion   energy    :   0.8819620817E-01 (    0.44098E-01/ion)

 kinetic (planewave) :   0.6010181767E+00 (    0.60102E+00/electron)
 V_local (planewave) :  -0.1687737284E+01 (   -0.16877E+01/electron)
 V_nl    (planewave) :  -0.1506069888E+00 (   -0.15061E+00/electron)
 V_Coul  (planewave) :   0.1231677081E+01 (    0.12317E+01/electron)
 V_xc.   (planewave) :   0.0000000000E+00 (    0.00000E+00/electron)
 K.S. HFX energy     :  -0.6158385406E+00 (   -0.61584E+00/electron)
 Virial Coefficient  :  -0.1009399075E+01

 orbital energies:
    -0.3107438E+00 (  -8.456eV)


== Virtual Orbital Calculation ==


 input epsi filename:./pspw_hf_H2.emovecs

 COVOs Mimimization
 ------------------
CI gradient algorithm =         3
maxit_sweeps          =         3
maxit_orb             =       120
maxit_linesearch      =        15
maxerror              = 0.100E-08

     orb,it,eci,eold,eci-eold=                    1                    1 -0.89680786367787979      -0.84139928511226858       -5.5408578565611211E-002 F
     orb,it,eci,eold,eci-eold=                    1                    2 -0.92844688261698649      -0.89680786367787979       -3.1639018939106700E-002 F
     orb,it,eci,eold,eci-eold=                    1                    3 -0.92962289891817385      -0.92844688261698649       -1.1760163011873548E-003 F
     orb,it,eci,eold,eci-eold=                    1                    4 -0.93019444189883038      -0.92962289891817385       -5.7154298065653641E-004 F
     orb,it,eci,eold,eci-eold=                    1                    5 -0.94144216757400179      -0.93019444189883038       -1.1247725675171405E-002 F
     orb,it,eci,eold,eci-eold=                    1                    6 -0.94532605175092055      -0.94144216757400179       -3.8838841769187615E-003 F
     orb,it,eci,eold,eci-eold=                    1                    7 -0.94634119969308439      -0.94532605175092055       -1.0151479421638410E-003 F
     orb,it,eci,eold,eci-eold=                    1                    8 -0.94775099226283399      -0.94634119969308439       -1.4097925697496017E-003 F
     orb,it,eci,eold,eci-eold=                    1                    9 -0.95324918565463657      -0.94775099226283399       -5.4981933918025749E-003 F
     orb,it,eci,eold,eci-eold=                    1                   10 -0.95430553300448806      -0.95324918565463657       -1.0563473498514941E-003 F
     orb,it,eci,eold,eci-eold=                    1                   11 -0.95435775547646529      -0.95430553300448806       -5.2222471977225737E-005 F
     orb,it,eci,eold,eci-eold=                    1                   12 -0.95766970434326448      -0.95435775547646529       -3.3119488667991970E-003 F
     orb,it,eci,eold,eci-eold=                    1                   13 -0.95918338707354645      -0.95766970434326448       -1.5136827302819622E-003 F
     orb,it,eci,eold,eci-eold=                    1                   14 -0.95977355197432845      -0.95918338707354645       -5.9016490078200867E-004 F
     orb,it,eci,eold,eci-eold=                    1                   15 -0.96275929843219987      -0.95977355197432845       -2.9857464578714188E-003 F
     orb,it,eci,eold,eci-eold=                    1                   16 -0.96395738359824690      -0.96275929843219987       -1.1980851660470249E-003 F
     orb,it,eci,eold,eci-eold=                    1                   17 -0.96442244097764940      -0.96395738359824690       -4.6505737940250036E-004 F
     orb,it,eci,eold,eci-eold=                    1                   18 -0.96680017952485220      -0.96442244097764940       -2.3777385472028012E-003 F
     orb,it,eci,eold,eci-eold=                    1                   19 -0.96770484778453658      -0.96680017952485220       -9.0466825968438247E-004 F
     orb,it,eci,eold,eci-eold=                    1                   20 -0.96810190816273756      -0.96770484778453658       -3.9706037820097517E-004 F
     orb,it,eci,eold,eci-eold=                    1                   21 -0.97029150856105184      -0.96810190816273756       -2.1896003983142842E-003 F
     orb,it,eci,eold,eci-eold=                    1                   22 -0.97112845013197213      -0.97029150856105184       -8.3694157092029098E-004 F
     orb,it,eci,eold,eci-eold=                    1                   23 -0.97127846370958282      -0.97112845013197213       -1.5001357761068590E-004 F
     orb,it,eci,eold,eci-eold=                    1                   24 -0.97263192350037853      -0.97127846370958282       -1.3534597907957080E-003 F
     orb,it,eci,eold,eci-eold=                    1                   25 -0.97318927225348562      -0.97263192350037853       -5.5734875310708976E-004 F
     orb,it,eci,eold,eci-eold=                    1                   26 -0.97341970935160393      -0.97318927225348562       -2.3043709811831903E-004 F
     orb,it,eci,eold,eci-eold=                    1                   27 -0.97461277826091375      -0.97341970935160393       -1.1930689093098135E-003 F
     orb,it,eci,eold,eci-eold=                    1                   28 -0.97515039356985467      -0.97461277826091375       -5.3761530894091969E-004 F
     orb,it,eci,eold,eci-eold=                    1                   29 -0.97538456162638221      -0.97515039356985467       -2.3416805652753947E-004 F
     orb,it,eci,eold,eci-eold=                    1                   30 -0.97639927049069053      -0.97538456162638221       -1.0147088643083224E-003 F
     orb,it,eci,eold,eci-eold=                    1                   31 -0.97667189751412464      -0.97639927049069053       -2.7262702343411327E-004 F
     orb,it,eci,eold,eci-eold=                    1                   32 -0.97671185591032283      -0.97667189751412464       -3.9958396198191970E-005 F
     orb,it,eci,eold,eci-eold=                    1                   33 -0.97736924103570932      -0.97671185591032283       -6.5738512538648930E-004 F
     orb,it,eci,eold,eci-eold=                    1                   34 -0.97770377361213323      -0.97736924103570932       -3.3453257642390710E-004 F
     orb,it,eci,eold,eci-eold=                    1                   35 -0.97783004687608488      -0.97770377361213323       -1.2627326395164840E-004 F
     orb,it,eci,eold,eci-eold=                    1                   36 -0.97836777428877086      -0.97783004687608488       -5.3772741268598434E-004 F
     orb,it,eci,eold,eci-eold=                    1                   37 -0.97851836881304921      -0.97836777428877086       -1.5059452427834685E-004 F
     orb,it,eci,eold,eci-eold=                    1                   38 -0.97855992555878246      -0.97851836881304921       -4.1556745733251077E-005 F
     orb,it,eci,eold,eci-eold=                    1                   39 -0.97893872464963549      -0.97855992555878246       -3.7879909085303254E-004 F
     orb,it,eci,eold,eci-eold=                    1                   40 -0.97909720872130002      -0.97893872464963549       -1.5848407166452194E-004 F
     orb,it,eci,eold,eci-eold=                    1                   41 -0.97915178479038945      -0.97909720872130002       -5.4576069089429247E-005 F
     orb,it,eci,eold,eci-eold=                    1                   42 -0.97945436274767117      -0.97915178479038945       -3.0257795728172443E-004 F
     orb,it,eci,eold,eci-eold=                    1                   43 -0.97955406248745558      -0.97945436274767117       -9.9699739784409047E-005 F
     orb,it,eci,eold,eci-eold=                    1                   44 -0.97957584352373339      -0.97955406248745558       -2.1781036277812582E-005 F
     orb,it,eci,eold,eci-eold=                    1                   45 -0.97978612198221371      -0.97957584352373339       -2.1027845848031745E-004 F
     orb,it,eci,eold,eci-eold=                    1                   46 -0.97989447970136112      -0.97978612198221371       -1.0835771914741166E-004 F
     orb,it,eci,eold,eci-eold=                    1                   47 -0.97993902214924533      -0.97989447970136112       -4.4542447884210468E-005 F
     orb,it,eci,eold,eci-eold=                    1                   48 -0.98011501335659634      -0.97993902214924533       -1.7599120735101170E-004 F
     orb,it,eci,eold,eci-eold=                    1                   49 -0.98015988493766759      -0.98011501335659634       -4.4871581071248556E-005 F
     orb,it,eci,eold,eci-eold=                    1                   50 -0.98016779559463774      -0.98015988493766759       -7.9106569701448137E-006 F
     orb,it,eci,eold,eci-eold=                    1                   51 -0.98027735244001468      -0.98016779559463774       -1.0955684537694577E-004 F
     orb,it,eci,eold,eci-eold=                    1                   52 -0.98032074799556712      -0.98027735244001468       -4.3395555552439014E-005 F
     orb,it,eci,eold,eci-eold=                    1                   53 -0.98033405656799066      -0.98032074799556712       -1.3308572423542664E-005 F
     orb,it,eci,eold,eci-eold=                    1                   54 -0.98041968138456537      -0.98033405656799066       -8.5624816574703111E-005 F
     orb,it,eci,eold,eci-eold=                    1                   55 -0.98046036626103161      -0.98041968138456537       -4.0684876466245967E-005 F
     orb,it,eci,eold,eci-eold=                    1                   56 -0.98047403219866802      -0.98046036626103161       -1.3665937636408998E-005 F
     orb,it,eci,eold,eci-eold=                    1                   57 -0.98053065883277424      -0.98047403219866802       -5.6626634106216045E-005 F
     orb,it,eci,eold,eci-eold=                    1                   58 -0.98055260699420876      -0.98053065883277424       -2.1948161434526270E-005 F
     orb,it,eci,eold,eci-eold=                    1                   59 -0.98056219905954034      -0.98055260699420876       -9.5920653315761939E-006 F
     orb,it,eci,eold,eci-eold=                    1                   60 -0.98060025368773740      -0.98056219905954034       -3.8054628197059515E-005 F
     orb,it,eci,eold,eci-eold=                    1                   61 -0.98062047877888947      -0.98060025368773740       -2.0225091152070718E-005 F
     orb,it,eci,eold,eci-eold=                    1                   62 -0.98063162646313995      -0.98062047877888947       -1.1147684250478740E-005 F
     orb,it,eci,eold,eci-eold=                    1                   63 -0.98065288484989743      -0.98063162646313995       -2.1258386757483372E-005 F
     orb,it,eci,eold,eci-eold=                    1                   64 -0.98065932390376953      -0.98065288484989743       -6.4390538720981993E-006 F
     orb,it,eci,eold,eci-eold=                    1                   65 -0.98067055069041076      -0.98065932390376953       -1.1226786641227449E-005 F
     orb,it,eci,eold,eci-eold=                    1                   66 -0.98069356452306167      -0.98067055069041076       -2.3013832650908839E-005 F
     orb,it,eci,eold,eci-eold=                    1                   67 -0.98070401352235925      -0.98069356452306167       -1.0448999297585360E-005 F
     orb,it,eci,eold,eci-eold=                    1                   68 -0.98071913355828411      -0.98070401352235925       -1.5120035924853781E-005 F
     orb,it,eci,eold,eci-eold=                    1                   69 -0.98072598458106564      -0.98071913355828411       -6.8510227815288260E-006 F
     orb,it,eci,eold,eci-eold=                    1                   70 -0.98073078181524198      -0.98072598458106564       -4.7972341763458104E-006 F
     orb,it,eci,eold,eci-eold=                    1                   71 -0.98073729285231814      -0.98073078181524198       -6.5110370761622960E-006 F
     orb,it,eci,eold,eci-eold=                    1                   72 -0.98074046942042259      -0.98073729285231814       -3.1765681044459981E-006 F
     orb,it,eci,eold,eci-eold=                    1                   73 -0.98074766055061025      -0.98074046942042259       -7.1911301876559364E-006 F
     orb,it,eci,eold,eci-eold=                    1                   74 -0.98075352198835164      -0.98074766055061025       -5.8614377413945817E-006 F
     orb,it,eci,eold,eci-eold=                    1                   75 -0.98075807349880095      -0.98075352198835164       -4.5515104493132341E-006 F
     orb,it,eci,eold,eci-eold=                    1                   76 -0.98076444597695489      -0.98075807349880095       -6.3724781539375996E-006 F
     orb,it,eci,eold,eci-eold=                    1                   77 -0.98076653053999407      -0.98076444597695489       -2.0845630391841397E-006 F
     orb,it,eci,eold,eci-eold=                    1                   78 -0.98076834425154413      -0.98076653053999407       -1.8137115500582723E-006 F
     orb,it,eci,eold,eci-eold=                    1                   79 -0.98076987422646500      -0.98076834425154413       -1.5299749208663727E-006 F
     orb,it,eci,eold,eci-eold=                    1                   80 -0.98077390786129837      -0.98076987422646500       -4.0336348333669392E-006 F
     orb,it,eci,eold,eci-eold=                    1                   81 -0.98077497121634138      -0.98077390786129837       -1.0633550430183547E-006 F
     orb,it,eci,eold,eci-eold=                    1                   82 -0.98077500974504550      -0.98077497121634138       -3.8528704116025381E-008 F
     orb,it,eci,eold,eci-eold=                    1                   83 -0.98077649711071935      -0.98077500974504550       -1.4873656738467744E-006 F
     orb,it,eci,eold,eci-eold=                    1                   84 -0.98077712340818102      -0.98077649711071935       -6.2629746166997791E-007 F
     orb,it,eci,eold,eci-eold=                    1                   85 -0.98077757966805756      -0.98077712340818102       -4.5625987654673850E-007 F
     orb,it,eci,eold,eci-eold=                    1                   86 -0.98077942458454259      -0.98077757966805756       -1.8449164850276034E-006 F
     orb,it,eci,eold,eci-eold=                    1                   87 -0.98078017355704394      -0.98077942458454259       -7.4897250135208537E-007 F
     orb,it,eci,eold,eci-eold=                    1                   88 -0.98078034027239469      -0.98078017355704394       -1.6671535074674892E-007 F
     orb,it,eci,eold,eci-eold=                    1                   89 -0.98078122814437707      -0.98078034027239469       -8.8787198238016174E-007 F
     orb,it,eci,eold,eci-eold=                    1                   90 -0.98078148621817007      -0.98078122814437707       -2.5807379300246680E-007 F
     orb,it,eci,eold,eci-eold=                    1                   91 -0.98078168580017766      -0.98078148621817007       -1.9958200758729561E-007 F
     orb,it,eci,eold,eci-eold=                    1                   92 -0.98078269266472373      -0.98078168580017766       -1.0068645460714620E-006 F
     orb,it,eci,eold,eci-eold=                    1                   93 -0.98078310599995078      -0.98078269266472373       -4.1333522704523062E-007 F
     orb,it,eci,eold,eci-eold=                    1                   94 -0.98078319269798997      -0.98078310599995078       -8.6698039192256715E-008 F
     orb,it,eci,eold,eci-eold=                    1                   95 -0.98078377738448164      -0.98078319269798997       -5.8468649166698583E-007 F
     orb,it,eci,eold,eci-eold=                    1                   96 -0.98078401094728385      -0.98078377738448164       -2.3356280220987458E-007 F
     orb,it,eci,eold,eci-eold=                    1                   97 -0.98078411219067418      -0.98078401094728385       -1.0124339033801277E-007 F
     orb,it,eci,eold,eci-eold=                    1                   98 -0.98078461257586835      -0.98078411219067418       -5.0038519416872873E-007 F
     orb,it,eci,eold,eci-eold=                    1                   99 -0.98078477573226108      -0.98078461257586835       -1.6315639272956872E-007 F
     orb,it,eci,eold,eci-eold=                    1                  100 -0.98078481385796623      -0.98078477573226108       -3.8125705148495115E-008 F
     orb,it,eci,eold,eci-eold=                    1                  101 -0.98078515703556723      -0.98078481385796623       -3.4317760100321948E-007 F
     orb,it,eci,eold,eci-eold=                    1                  102 -0.98078533116194200      -0.98078515703556723       -1.7412637476343917E-007 F
     orb,it,eci,eold,eci-eold=                    1                  103 -0.98078540162988026      -0.98078533116194200       -7.0467938262375185E-008 F
     orb,it,eci,eold,eci-eold=                    1                  104 -0.98078569652374681      -0.98078540162988026       -2.9489386654812932E-007 F
     orb,it,eci,eold,eci-eold=                    1                  105 -0.98078578838678532      -0.98078569652374681       -9.1863038509387707E-008 F
     orb,it,eci,eold,eci-eold=                    1                  106 -0.98078580925812331      -0.98078578838678532       -2.0871337991223982E-008 F
     orb,it,eci,eold,eci-eold=                    1                  107 -0.98078601124217890      -0.98078580925812331       -2.0198405559224142E-007 F
     orb,it,eci,eold,eci-eold=                    1                  108 -0.98078611020768292      -0.98078601124217890       -9.8965504014003614E-008 F
     orb,it,eci,eold,eci-eold=                    1                  109 -0.98078614207311632      -0.98078611020768292       -3.1865433403055476E-008 F
     orb,it,eci,eold,eci-eold=                    1                  110 -0.98078628918070310      -0.98078614207311632       -1.4710758677871638E-007 F
     orb,it,eci,eold,eci-eold=                    1                  111 -0.98078633112537283      -0.98078628918070310       -4.1944669737503659E-008 F
     orb,it,eci,eold,eci-eold=                    1                  112 -0.98078634234396878      -0.98078633112537283       -1.1218595941109299E-008 F
     orb,it,eci,eold,eci-eold=                    1                  113 -0.98078645263704578      -0.98078634234396878       -1.1029307700471946E-007 F
     orb,it,eci,eold,eci-eold=                    1                  114 -0.98078652120001775      -0.98078645263704578       -6.8562971966557029E-008 F
     orb,it,eci,eold,eci-eold=                    1                  115 -0.98078654874845395      -0.98078652120001775       -2.7548436198898685E-008 F
     orb,it,eci,eold,eci-eold=                    1                  116 -0.98078663052053827      -0.98078654874845395       -8.1772084326026118E-008 F
     orb,it,eci,eold,eci-eold=                    1                  117 -0.98078664806535742      -0.98078663052053827       -1.7544819153059166E-008 F
     orb,it,eci,eold,eci-eold=                    1                  118 -0.98078665494051187      -0.98078664806535742       -6.8751544457512637E-009 F
     orb,it,eci,eold,eci-eold=                    1                  119 -0.98078671295293629      -0.98078665494051187       -5.8012424419828790E-008 F
     orb,it,eci,eold,eci-eold=                    1                  120 -0.98078674958545031      -0.98078671295293629       -3.6632514022194584E-008 F
     orb,it,eci,eold,eci-eold=                    1                  121 -0.98078676803308018      -0.98078674958545031       -1.8447629868134641E-008 F
     orbital   1 current e= -0.928490E-01 error=0.584E+00 (eci= -0.980786768E+00 error=0.184E-07) iterations 121(   0 preconditioned, Ep,Sp= 20.0  200.0)
     orb,it,eci,eold,eci-eold=                    1                    1 -0.98078688246746437      -0.98078676803308018       -1.1443438419078689E-007 F
     orb,it,eci,eold,eci-eold=                    1                    2 -0.98078694078474826      -0.98078688246746437       -5.8317283890829685E-008 F
     orb,it,eci,eold,eci-eold=                    1                    3 -0.98078695014376838      -0.98078694078474826       -9.3590201144522212E-009 F
     orb,it,eci,eold,eci-eold=                    1                    4 -0.98078695257711690      -0.98078695014376838       -2.4333485226790685E-009 F
     orb,it,eci,eold,eci-eold=                    1                    5 -0.98078698645690832      -0.98078695257711690       -3.3879791416779881E-008 F
     orb,it,eci,eold,eci-eold=                    1                    6 -0.98078700324883616      -0.98078698645690832       -1.6791927848203159E-008 F
     orb,it,eci,eold,eci-eold=                    1                    7 -0.98078700940758190      -0.98078700324883616       -6.1587457356182540E-009 F
     orb,it,eci,eold,eci-eold=                    1                    8 -0.98078701148809500      -0.98078700940758190       -2.0805130951373485E-009 F
     orb,it,eci,eold,eci-eold=                    1                    9 -0.98078702075813040      -0.98078701148809500       -9.2700354059616075E-009 F
     orb,it,eci,eold,eci-eold=                    1                   10 -0.98078702475909618      -0.98078702075813040       -4.0009657809036980E-009 F
     orb,it,eci,eold,eci-eold=                    1                   11 -0.98078702588058120      -0.98078702475909618       -1.1214850159646517E-009 F
     orb,it,eci,eold,eci-eold=                    1                   12 -0.98078702641966009      -0.98078702588058120       -5.3907889263626885E-010 F
     orbital   1 current e= -0.928485E-01 error=0.503E-06 (eci= -0.980787026E+00 error=0.539E-09) iterations  12(   0 preconditioned, Ep,Sp= 20.0  200.0)
     orb,it,eci,eold,eci-eold=                    1                    1 -0.98078702923016525      -0.98078702641966009       -2.8105051619320420E-009 F
     orb,it,eci,eold,eci-eold=                    1                    2 -0.98078702985826793      -0.98078702923016525       -6.2810268097734934E-010 F
     orbital   1 current e= -0.928484E-01 error=0.715E-07 (eci= -0.980787030E+00 error=0.628E-09) iterations   2(   0 preconditioned, Ep,Sp= 20.0  200.0)
     orb,it,eci,eold,eci-eold=                    2                    1 -0.84227893110256602      -0.84121526625307896       -1.0636648494870560E-003 F
     orb,it,eci,eold,eci-eold=                    2                    2 -0.84264487937602661      -0.84227893110256602       -3.6594827346059233E-004 F
     orb,it,eci,eold,eci-eold=                    2                    3 -0.84282535279360715      -0.84264487937602661       -1.8047341758054003E-004 F
     orb,it,eci,eold,eci-eold=                    2                    4 -0.84283292350666683      -0.84282535279360715       -7.5707130596791572E-006 F
     orb,it,eci,eold,eci-eold=                    2                    5 -0.84283449574117120      -0.84283292350666683       -1.5722345043656105E-006 F
     orb,it,eci,eold,eci-eold=                    2                    6 -0.84292946935544999      -0.84283449574117120       -9.4973614278792695E-005 F
     orb,it,eci,eold,eci-eold=                    2                    7 -0.84310043047913141      -0.84292946935544999       -1.7096112368142347E-004 F
     orb,it,eci,eold,eci-eold=                    2                    8 -0.84316731158425018      -0.84310043047913141       -6.6881105118765660E-005 F
     orb,it,eci,eold,eci-eold=                    2                    9 -0.84319877201518578      -0.84316731158425018       -3.1460430935603689E-005 F
     orb,it,eci,eold,eci-eold=                    2                   10 -0.84324527798016891      -0.84319877201518578       -4.6505964983123427E-005 F
     orb,it,eci,eold,eci-eold=                    2                   11 -0.84327748442286232      -0.84324527798016891       -3.2206442693416548E-005 F
     orb,it,eci,eold,eci-eold=                    2                   12 -0.84330511716262957      -0.84327748442286232       -2.7632739767247116E-005 F
     orb,it,eci,eold,eci-eold=                    2                   13 -0.84331449665402602      -0.84330511716262957       -9.3794913964551085E-006 F
     orb,it,eci,eold,eci-eold=                    2                   14 -0.84332394313712200      -0.84331449665402602       -9.4464830959761770E-006 F
     orb,it,eci,eold,eci-eold=                    2                   15 -0.84333900033141218      -0.84332394313712200       -1.5057194290180043E-005 F
     orb,it,eci,eold,eci-eold=                    2                   16 -0.84334740383321227      -0.84333900033141218       -8.4035018000916395E-006 F
     orb,it,eci,eold,eci-eold=                    2                   17 -0.84335143526343193      -0.84334740383321227       -4.0314302196531315E-006 F
     orb,it,eci,eold,eci-eold=                    2                   18 -0.84335374934474161      -0.84335143526343193       -2.3140813096844681E-006 F
     orb,it,eci,eold,eci-eold=                    2                   19 -0.84336422839783809      -0.84335374934474161       -1.0479053096479340E-005 F
     orb,it,eci,eold,eci-eold=                    2                   20 -0.84336869182215124      -0.84336422839783809       -4.4634243131502771E-006 F
     orb,it,eci,eold,eci-eold=                    2                   21 -0.84337194660277581      -0.84336869182215124       -3.2547806245730726E-006 F
     orb,it,eci,eold,eci-eold=                    2                   22 -0.84337277693807622      -0.84337194660277581       -8.3033530040577119E-007 F
     orb,it,eci,eold,eci-eold=                    2                   23 -0.84337422220773006      -0.84337277693807622       -1.4452696538436172E-006 F
     orb,it,eci,eold,eci-eold=                    2                   24 -0.84337562367337005      -0.84337422220773006       -1.4014656399830017E-006 F
     orb,it,eci,eold,eci-eold=                    2                   25 -0.84337660269388670      -0.84337562367337005       -9.7902051665599288E-007 F
     orb,it,eci,eold,eci-eold=                    2                   26 -0.84337798249296891      -0.84337660269388670       -1.3797990822128625E-006 F
     orb,it,eci,eold,eci-eold=                    2                   27 -0.84337873230712468      -0.84337798249296891       -7.4981415576491628E-007 F
     orb,it,eci,eold,eci-eold=                    2                   28 -0.84337993611292583      -0.84337873230712468       -1.2038058011532016E-006 F
     orb,it,eci,eold,eci-eold=                    2                   29 -0.84338066497966779      -0.84337993611292583       -7.2886674196137591E-007 F
     orb,it,eci,eold,eci-eold=                    2                   30 -0.84338156768230388      -0.84338066497966779       -9.0270263608527301E-007 F
     orb,it,eci,eold,eci-eold=                    2                   31 -0.84338208011232862      -0.84338156768230388       -5.1243002474610222E-007 F
     orb,it,eci,eold,eci-eold=                    2                   32 -0.84338263140851510      -0.84338208011232862       -5.5129618647953293E-007 F
     orb,it,eci,eold,eci-eold=                    2                   33 -0.84338426083546691      -0.84338263140851510       -1.6294269518102311E-006 F
     orb,it,eci,eold,eci-eold=                    2                   34 -0.84338749461345208      -0.84338426083546691       -3.2337779851676629E-006 F
     orb,it,eci,eold,eci-eold=                    2                   35 -0.84339358415195553      -0.84338749461345208       -6.0895385034509530E-006 F
     orb,it,eci,eold,eci-eold=                    2                   36 -0.84340356415163331      -0.84339358415195553       -9.9799996777782951E-006 F
     orb,it,eci,eold,eci-eold=                    2                   37 -0.84344975121403432      -0.84340356415163331       -4.6187062401004120E-005 F
     orb,it,eci,eold,eci-eold=                    2                   38 -0.84363970555440981      -0.84344975121403432       -1.8995434037549774E-004 F
     orb,it,eci,eold,eci-eold=                    2                   39 -0.84389289247607069      -0.84363970555440981       -2.5318692166087509E-004 F
     orb,it,eci,eold,eci-eold=                    2                   40 -0.84403110260155634      -0.84389289247607069       -1.3821012548564937E-004 F
     orb,it,eci,eold,eci-eold=                    2                   41 -0.84413277531622266      -0.84403110260155634       -1.0167271466632322E-004 F
     orb,it,eci,eold,eci-eold=                    2                   42 -0.84413561271748583      -0.84413277531622266       -2.8374012631671164E-006 F
     orb,it,eci,eold,eci-eold=                    2                   43 -0.84425411494228420      -0.84413561271748583       -1.1850222479836692E-004 F
     orb,it,eci,eold,eci-eold=                    2                   44 -0.84426615264121896      -0.84425411494228420       -1.2037698934763696E-005 F
     orb,it,eci,eold,eci-eold=                    2                   45 -0.84429120026392124      -0.84426615264121896       -2.5047622702278893E-005 F
     orb,it,eci,eold,eci-eold=                    2                   46 -0.84430618826937232      -0.84429120026392124       -1.4988005451077591E-005 F
     orb,it,eci,eold,eci-eold=                    2                   47 -0.84431557712777949      -0.84430618826937232       -9.3888584071777359E-006 F
     orb,it,eci,eold,eci-eold=                    2                   48 -0.84431735847065315      -0.84431557712777949       -1.7813428736523917E-006 F
     orb,it,eci,eold,eci-eold=                    2                   49 -0.84431978896805870      -0.84431735847065315       -2.4304974055588957E-006 F
     orb,it,eci,eold,eci-eold=                    2                   50 -0.84432257735153549      -0.84431978896805870       -2.7883834767816751E-006 F
     orb,it,eci,eold,eci-eold=                    2                   51 -0.84432371192342026      -0.84432257735153549       -1.1345718847755037E-006 F
     orb,it,eci,eold,eci-eold=                    2                   52 -0.84432409108046436      -0.84432371192342026       -3.7915704409474671E-007 F
     orb,it,eci,eold,eci-eold=                    2                   53 -0.84432548308411215      -0.84432409108046436       -1.3920036477932385E-006 F
     orb,it,eci,eold,eci-eold=                    2                   54 -0.84432636056525801      -0.84432548308411215       -8.7748114585561865E-007 F
     orb,it,eci,eold,eci-eold=                    2                   55 -0.84432684385148848      -0.84432636056525801       -4.8328623047932950E-007 F
     orb,it,eci,eold,eci-eold=                    2                   56 -0.84432821660307300      -0.84432684385148848       -1.3727515845163296E-006 F
     orb,it,eci,eold,eci-eold=                    2                   57 -0.84432898029156944      -0.84432821660307300       -7.6368849644126158E-007 F
     orb,it,eci,eold,eci-eold=                    2                   58 -0.84432900191206572      -0.84432898029156944       -2.1620496282181989E-008 F
     orb,it,eci,eold,eci-eold=                    2                   59 -0.84432900817904810      -0.84432900191206572       -6.2669823774896827E-009 F
     orb,it,eci,eold,eci-eold=                    2                   60 -0.84432999602729608      -0.84432900817904810       -9.8784824797970572E-007 F
     orb,it,eci,eold,eci-eold=                    2                   61 -0.84433045832567699      -0.84432999602729608       -4.6229838090994235E-007 F
     orb,it,eci,eold,eci-eold=                    2                   62 -0.84433066673685586      -0.84433045832567699       -2.0841117887027139E-007 F
     orb,it,eci,eold,eci-eold=                    2                   63 -0.84433080242690584      -0.84433066673685586       -1.3569004997382450E-007 F
     orb,it,eci,eold,eci-eold=                    2                   64 -0.84433135558601347      -0.84433080242690584       -5.5315910763020781E-007 F
     orb,it,eci,eold,eci-eold=                    2                   65 -0.84433151169785470      -0.84433135558601347       -1.5611184123187627E-007 F
     orb,it,eci,eold,eci-eold=                    2                   66 -0.84433158070788372      -0.84433151169785470       -6.9010029024596520E-008 F
     orb,it,eci,eold,eci-eold=                    2                   67 -0.84433189672640852      -0.84433158070788372       -3.1601852479301584E-007 F
     orb,it,eci,eold,eci-eold=                    2                   68 -0.84433205199111572      -0.84433189672640852       -1.5526470720228502E-007 F
     orb,it,eci,eold,eci-eold=                    2                   69 -0.84433216637524700      -0.84433205199111572       -1.1438413127784486E-007 F
     orb,it,eci,eold,eci-eold=                    2                   70 -0.84433238363397101      -0.84433216637524700       -2.1725872401123780E-007 F
     orb,it,eci,eold,eci-eold=                    2                   71 -0.84433240762225081      -0.84433238363397101       -2.3988279806985702E-008 F
     orb,it,eci,eold,eci-eold=                    2                   72 -0.84433247977106796      -0.84433240762225081       -7.2148817142902999E-008 F
     orb,it,eci,eold,eci-eold=                    2                   73 -0.84433270555215323      -0.84433247977106796       -2.2578108527238072E-007 F
     orb,it,eci,eold,eci-eold=                    2                   74 -0.84433278623707830      -0.84433270555215323       -8.0684925074514524E-008 F
     orb,it,eci,eold,eci-eold=                    2                   75 -0.84433283422095451      -0.84433278623707830       -4.7983876205748288E-008 F
     orb,it,eci,eold,eci-eold=                    2                   76 -0.84433294374904078      -0.84433283422095451       -1.0952808626729649E-007 F
     orb,it,eci,eold,eci-eold=                    2                   77 -0.84433294655489743      -0.84433294374904078       -2.8058566581279365E-009 F
     orb,it,eci,eold,eci-eold=                    2                   78 -0.84433298351780761      -0.84433294655489743       -3.6962910177074093E-008 F
     orb,it,eci,eold,eci-eold=                    2                   79 -0.84433311197063721      -0.84433298351780761       -1.2845282959528248E-007 F
     orb,it,eci,eold,eci-eold=                    2                   80 -0.84433311480884243      -0.84433311197063721       -2.8382052263964397E-009 F
     orb,it,eci,eold,eci-eold=                    2                   81 -0.84433312416191686      -0.84433311480884243       -9.3530744260661436E-009 F
     orb,it,eci,eold,eci-eold=                    2                   82 -0.84433323450458031      -0.84433312416191686       -1.1034266345077981E-007 F
     orb,it,eci,eold,eci-eold=                    2                   83 -0.84433328649284223      -0.84433323450458031       -5.1988261917657042E-008 F
     orb,it,eci,eold,eci-eold=                    2                   84 -0.84433331967646186      -0.84433328649284223       -3.3183619629895134E-008 F
     orb,it,eci,eold,eci-eold=                    2                   85 -0.84433333748571382      -0.84433331967646186       -1.7809251962042083E-008 F
     orb,it,eci,eold,eci-eold=                    2                   86 -0.84433338558448778      -0.84433333748571382       -4.8098773963722863E-008 F
     orb,it,eci,eold,eci-eold=                    2                   87 -0.84433339432969867      -0.84433338558448778       -8.7452108887831059E-009 F
     orb,it,eci,eold,eci-eold=                    2                   88 -0.84433339764184234      -0.84433339432969867       -3.3121436704419693E-009 F
     orb,it,eci,eold,eci-eold=                    2                   89 -0.84433342724392513      -0.84433339764184234       -2.9602082785018524E-008 F
     orb,it,eci,eold,eci-eold=                    2                   90 -0.84433343846512188      -0.84433342724392513       -1.1221196749566786E-008 F
     orb,it,eci,eold,eci-eold=                    2                   91 -0.84433344397071652      -0.84433343846512188       -5.5055946468485217E-009 F
     orb,it,eci,eold,eci-eold=                    2                   92 -0.84433347209846354      -0.84433344397071652       -2.8127747020434413E-008 F
     orb,it,eci,eold,eci-eold=                    2                   93 -0.84433348316575296      -0.84433347209846354       -1.1067289418242865E-008 F
     orb,it,eci,eold,eci-eold=                    2                   94 -0.84433348730854429      -0.84433348316575296       -4.1427913322067411E-009 F
     orb,it,eci,eold,eci-eold=                    2                   95 -0.84433350916865180      -0.84433348730854429       -2.1860107501936454E-008 F
     orb,it,eci,eold,eci-eold=                    2                   96 -0.84433352375873327      -0.84433350916865180       -1.4590081476306693E-008 F
     orb,it,eci,eold,eci-eold=                    2                   97 -0.84433352950549068      -0.84433352375873327       -5.7467574032799007E-009 F
     orb,it,eci,eold,eci-eold=                    2                   98 -0.84433353060624261      -0.84433352950549068       -1.1007519340466843E-009 F
     orb,it,eci,eold,eci-eold=                    2                   99 -0.84433354250139925      -0.84433353060624261       -1.1895156637464765E-008 F
     orb,it,eci,eold,eci-eold=                    2                  100 -0.84433354965912233      -0.84433354250139925       -7.1577230809083403E-009 F
     orb,it,eci,eold,eci-eold=                    2                  101 -0.84433355094207208      -0.84433354965912233       -1.2829497464394990E-009 F
     orb,it,eci,eold,eci-eold=                    2                  102 -0.84433355715605174      -0.84433355094207208       -6.2139796641602629E-009 F
     orb,it,eci,eold,eci-eold=                    2                  103 -0.84433355920811004      -0.84433355715605174       -2.0520583010608107E-009 F
     orb,it,eci,eold,eci-eold=                    2                  104 -0.84433356052255792      -0.84433355920811004       -1.3144478838711393E-009 F
     orb,it,eci,eold,eci-eold=                    2                  105 -0.84433356649514124      -0.84433356052255792       -5.9725833168045028E-009 F
     orb,it,eci,eold,eci-eold=                    2                  106 -0.84433356876784871      -0.84433356649514124       -2.2727074666661906E-009 F
     orb,it,eci,eold,eci-eold=                    2                  107 -0.84433356968789830      -0.84433356876784871       -9.2004959206803960E-010 F
     orbital   2 current e=  0.457747E+00 error=0.419E+00 (eci= -0.844333570E+00 error=0.920E-09) iterations 107(   0 preconditioned, Ep,Sp= 20.0  200.0)
     orb,it,eci,eold,eci-eold=                    2                    1 -0.84433358338584796      -0.84433356968789830       -1.3697949663438180E-008 F
     orb,it,eci,eold,eci-eold=                    2                    2 -0.84433358338584796      -0.84433358338584796        0.0000000000000000      F
     orbital   2 current e=  0.457744E+00 error=0.361E-05 (eci= -0.844333583E+00 error=0.000E+00) iterations   2(   0 preconditioned, Ep,Sp= 20.0  200.0)
     orb,it,eci,eold,eci-eold=                    2                    1 -0.84433358462560237      -0.84433358324438035       -1.3812220256426144E-009 F
     orb,it,eci,eold,eci-eold=                    2                    2 -0.84433358497846966      -0.84433358462560237       -3.5286729094252678E-010 F
     orbital   2 current e=  0.457738E+00 error=0.583E-05 (eci= -0.844333585E+00 error=0.353E-09) iterations   2(   0 preconditioned, Ep,Sp= 20.0  200.0)
     orb,it,eci,eold,eci-eold=                    3                    1 -0.84281528903274028      -0.84121560255995698       -1.5996864727833016E-003 F
     orb,it,eci,eold,eci-eold=                    3                    2 -0.84301701828806841      -0.84281528903274028       -2.0172925532813135E-004 F
     orb,it,eci,eold,eci-eold=                    3                    3 -0.84316796632366109      -0.84301701828806841       -1.5094803559267955E-004 F
     orb,it,eci,eold,eci-eold=                    3                    4 -0.84321649297147050      -0.84316796632366109       -4.8526647809410406E-005 F
     orb,it,eci,eold,eci-eold=                    3                    5 -0.84323099554300929      -0.84321649297147050       -1.4502571538788089E-005 F
     orb,it,eci,eold,eci-eold=                    3                    6 -0.84326263431248760      -0.84323099554300929       -3.1638769478314899E-005 F
     orb,it,eci,eold,eci-eold=                    3                    7 -0.84327553018675616      -0.84326263431248760       -1.2895874268559204E-005 F
     orb,it,eci,eold,eci-eold=                    3                    8 -0.84328466339172869      -0.84327553018675616       -9.1332049725334485E-006 F
     orb,it,eci,eold,eci-eold=                    3                    9 -0.84331053073423923      -0.84328466339172869       -2.5867342510532687E-005 F
     orb,it,eci,eold,eci-eold=                    3                   10 -0.84331518290584051      -0.84331053073423923       -4.6521716012826175E-006 F
     orb,it,eci,eold,eci-eold=                    3                   11 -0.84332630146547638      -0.84331518290584051       -1.1118559635869829E-005 F
     orb,it,eci,eold,eci-eold=                    3                   12 -0.84334198331337429      -0.84332630146547638       -1.5681847897908163E-005 F
     orb,it,eci,eold,eci-eold=                    3                   13 -0.84335160970463108      -0.84334198331337429       -9.6263912567895460E-006 F
     orb,it,eci,eold,eci-eold=                    3                   14 -0.84335937633455305      -0.84335160970463108       -7.7666299219680823E-006 F
     orb,it,eci,eold,eci-eold=                    3                   15 -0.84336302302861343      -0.84335937633455305       -3.6466940603885334E-006 F
     orb,it,eci,eold,eci-eold=                    3                   16 -0.84337015637809376      -0.84336302302861343       -7.1333494803260677E-006 F
     orb,it,eci,eold,eci-eold=                    3                   17 -0.84337353701785789      -0.84337015637809376       -3.3806397641278352E-006 F
     orb,it,eci,eold,eci-eold=                    3                   18 -0.84337604961369772      -0.84337353701785789       -2.5125958398319881E-006 F
     orb,it,eci,eold,eci-eold=                    3                   19 -0.84337750264807188      -0.84337604961369772       -1.4530343741547824E-006 F
     orb,it,eci,eold,eci-eold=                    3                   20 -0.84337914815092696      -0.84337750264807188       -1.6455028550854678E-006 F
     orb,it,eci,eold,eci-eold=                    3                   21 -0.84338005994750720      -0.84337914815092696       -9.1179658023854415E-007 F
     orb,it,eci,eold,eci-eold=                    3                   22 -0.84338104847921180      -0.84338005994750720       -9.8853170460433404E-007 F
     orb,it,eci,eold,eci-eold=                    3                   23 -0.84338151452827570      -0.84338104847921180       -4.6604906389635659E-007 F
     orb,it,eci,eold,eci-eold=                    3                   24 -0.84338213269571338      -0.84338151452827570       -6.1816743768261517E-007 F
     orb,it,eci,eold,eci-eold=                    3                   25 -0.84338249137931265      -0.84338213269571338       -3.5868359926638504E-007 F
     orb,it,eci,eold,eci-eold=                    3                   26 -0.84338276410438529      -0.84338249137931265       -2.7272507263642609E-007 F
     orb,it,eci,eold,eci-eold=                    3                   27 -0.84338290852033748      -0.84338276410438529       -1.4441595219683023E-007 F
     orb,it,eci,eold,eci-eold=                    3                   28 -0.84338320400770661      -0.84338290852033748       -2.9548736912854423E-007 F
     orb,it,eci,eold,eci-eold=                    3                   29 -0.84338335649303575      -0.84338320400770661       -1.5248532914124979E-007 F
     orb,it,eci,eold,eci-eold=                    3                   30 -0.84338349289741621      -0.84338335649303575       -1.3640438045747771E-007 F
     orb,it,eci,eold,eci-eold=                    3                   31 -0.84338356019561955      -0.84338349289741621       -6.7298203343391094E-008 F
     orb,it,eci,eold,eci-eold=                    3                   32 -0.84338363995021459      -0.84338356019561955       -7.9754595039283060E-008 F
     orb,it,eci,eold,eci-eold=                    3                   33 -0.84338368310982692      -0.84338363995021459       -4.3159612328480534E-008 F
     orb,it,eci,eold,eci-eold=                    3                   34 -0.84338372416871610      -0.84338368310982692       -4.1058889177492119E-008 F
     orb,it,eci,eold,eci-eold=                    3                   35 -0.84338374248840697      -0.84338372416871610       -1.8319690875401307E-008 F
     orb,it,eci,eold,eci-eold=                    3                   36 -0.84338376858061803      -0.84338374248840697       -2.6092211058426074E-008 F
     orb,it,eci,eold,eci-eold=                    3                   37 -0.84338376858061803      -0.84338376858061803        0.0000000000000000      F
     orbital   3 current e=  0.603953E+00 error=0.331E+00 (eci= -0.843383769E+00 error=0.000E+00) iterations  37(   0 preconditioned, Ep,Sp= 20.0  200.0)
     orb,it,eci,eold,eci-eold=                    3                    1 -0.84338379690262832      -0.84338376776286728       -2.9139761048568857E-008 F
     orb,it,eci,eold,eci-eold=                    3                    2 -0.84338381127635142      -0.84338379690262832       -1.4373723100646885E-008 F
     orb,it,eci,eold,eci-eold=                    3                    3 -0.84338382570921955      -0.84338381127635142       -1.4432868122860043E-008 F
     orb,it,eci,eold,eci-eold=                    3                    4 -0.84338383414896834      -0.84338382570921955       -8.4397487887244438E-009 F
     orb,it,eci,eold,eci-eold=                    3                    5 -0.84338384074103656      -0.84338383414896834       -6.5920682246201068E-009 F
     orb,it,eci,eold,eci-eold=                    3                    6 -0.84338384416580658      -0.84338384074103656       -3.4247700231304634E-009 F
     orb,it,eci,eold,eci-eold=                    3                    7 -0.84338385013106409      -0.84338384416580658       -5.9652575101765137E-009 F
     orb,it,eci,eold,eci-eold=                    3                    8 -0.84338385312115305      -0.84338385013106409       -2.9900889542133768E-009 F
     orb,it,eci,eold,eci-eold=                    3                    9 -0.84338385464497456      -0.84338385312115305       -1.5238215134161237E-009 F
     orb,it,eci,eold,eci-eold=                    3                   10 -0.84338385464497456      -0.84338385464497456        0.0000000000000000      F
     orbital   3 current e=  0.603752E+00 error=0.201E-03 (eci= -0.843383855E+00 error=0.000E+00) iterations  10(   0 preconditioned, Ep,Sp= 20.0  200.0)
     orb,it,eci,eold,eci-eold=                    3                    1 -0.84338385869388388      -0.84338385450397302       -4.1899108627063697E-009 F
     orb,it,eci,eold,eci-eold=                    3                    2 -0.84338386043178981      -0.84338385869388388       -1.7379059302768951E-009 F
     orb,it,eci,eold,eci-eold=                    3                    3 -0.84338386092244311      -0.84338386043178981       -4.9065329577047123E-010 F
     orbital   3 current e=  0.603767E+00 error=0.144E-04 (eci= -0.843383861E+00 error=0.491E-09) iterations   3(   0 preconditioned, Ep,Sp= 20.0  200.0)
     orb,it,eci,eold,eci-eold=                    4                    1 -0.84222520433723147      -0.84121559984634298       -1.0096044908884938E-003 F
     orb,it,eci,eold,eci-eold=                    4                    2 -0.84239503895680634      -0.84222520433723147       -1.6983461957487123E-004 F
     orb,it,eci,eold,eci-eold=                    4                    3 -0.84258544776956001      -0.84239503895680634       -1.9040881275367294E-004 F
     orb,it,eci,eold,eci-eold=                    4                    4 -0.84276368485374831      -0.84258544776956001       -1.7823708418829298E-004 F
     orb,it,eci,eold,eci-eold=                    4                    5 -0.84289923797124411      -0.84276368485374831       -1.3555311749580135E-004 F
     orb,it,eci,eold,eci-eold=                    4                    6 -0.84296067229233396      -0.84289923797124411       -6.1434321089848254E-005 F
     orb,it,eci,eold,eci-eold=                    4                    7 -0.84302332299441041      -0.84296067229233396       -6.2650702076449960E-005 F
     orb,it,eci,eold,eci-eold=                    4                    8 -0.84308275132938704      -0.84302332299441041       -5.9428334976630026E-005 F
     orb,it,eci,eold,eci-eold=                    4                    9 -0.84311027907723224      -0.84308275132938704       -2.7527747845201844E-005 F
     orb,it,eci,eold,eci-eold=                    4                   10 -0.84313237291804322      -0.84311027907723224       -2.2093840810977206E-005 F
     orb,it,eci,eold,eci-eold=                    4                   11 -0.84314819758467208      -0.84313237291804322       -1.5824666628860840E-005 F
     orb,it,eci,eold,eci-eold=                    4                   12 -0.84315864922811334      -0.84314819758467208       -1.0451643441267144E-005 F
     orb,it,eci,eold,eci-eold=                    4                   13 -0.84317999164576407      -0.84315864922811334       -2.1342417650727086E-005 F
     orb,it,eci,eold,eci-eold=                    4                   14 -0.84319312551563841      -0.84317999164576407       -1.3133869874337734E-005 F
     orb,it,eci,eold,eci-eold=                    4                   15 -0.84319990641096521      -0.84319312551563841       -6.7808953267967098E-006 F
     orb,it,eci,eold,eci-eold=                    4                   16 -0.84320289579957342      -0.84319990641096521       -2.9893886082099641E-006 F
     orb,it,eci,eold,eci-eold=                    4                   17 -0.84321184772155344      -0.84320289579957342       -8.9519219800271443E-006 F
     orb,it,eci,eold,eci-eold=                    4                   18 -0.84321672732935826      -0.84321184772155344       -4.8796078048196634E-006 F
     orb,it,eci,eold,eci-eold=                    4                   19 -0.84322021661168001      -0.84321672732935826       -3.4892823217447244E-006 F
     orb,it,eci,eold,eci-eold=                    4                   20 -0.84322178792436597      -0.84322021661168001       -1.5713126859662196E-006 F
     orb,it,eci,eold,eci-eold=                    4                   21 -0.84322375128916616      -0.84322178792436597       -1.9633648001837756E-006 F
     orb,it,eci,eold,eci-eold=                    4                   22 -0.84322497169156785      -0.84322375128916616       -1.2204024016915227E-006 F
     orb,it,eci,eold,eci-eold=                    4                   23 -0.84322602866119367      -0.84322497169156785       -1.0569696258233563E-006 F
     orb,it,eci,eold,eci-eold=                    4                   24 -0.84322652410279408      -0.84322602866119367       -4.9544160041214980E-007 F
     orb,it,eci,eold,eci-eold=                    4                   25 -0.84322749068981173      -0.84322652410279408       -9.6658701764784638E-007 F
     orb,it,eci,eold,eci-eold=                    4                   26 -0.84322805016371849      -0.84322749068981173       -5.5947390675825659E-007 F
     orb,it,eci,eold,eci-eold=                    4                   27 -0.84322843098324640      -0.84322805016371849       -3.8081952791202411E-007 F
     orb,it,eci,eold,eci-eold=                    4                   28 -0.84322857250873740      -0.84322843098324640       -1.4152549099311074E-007 F
     orb,it,eci,eold,eci-eold=                    4                   29 -0.84322883706102925      -0.84322857250873740       -2.6455229185096130E-007 F
     orb,it,eci,eold,eci-eold=                    4                   30 -0.84322884047886726      -0.84322883706102925       -3.4178380126093089E-009 F
     orb,it,eci,eold,eci-eold=                    4                   31 -0.84322891633144381      -0.84322884047886726       -7.5852576553181450E-008 F
     orb,it,eci,eold,eci-eold=                    4                   32 -0.84322907221254051      -0.84322891633144381       -1.5588109669728567E-007 F
     orb,it,eci,eold,eci-eold=                    4                   33 -0.84322909343068941      -0.84322907221254051       -2.1218148904544876E-008 F
     orb,it,eci,eold,eci-eold=                    4                   34 -0.84322914115878189      -0.84322909343068941       -4.7728092478216411E-008 F
     orb,it,eci,eold,eci-eold=                    4                   35 -0.84322923640280578      -0.84322914115878189       -9.5244023889939911E-008 F
     orb,it,eci,eold,eci-eold=                    4                   36 -0.84322923640280578      -0.84322923640280578        0.0000000000000000      F
     orbital   4 current e=  0.489045E+00 error=0.636E-01 (eci= -0.843229236E+00 error=0.000E+00) iterations  36(   0 preconditioned, Ep,Sp= 20.0  200.0)
     orb,it,eci,eold,eci-eold=                    4                    1 -0.84322944236664221      -0.84322923592862087       -2.0643802134401312E-007 F
     orb,it,eci,eold,eci-eold=                    4                    2 -0.84322948729266889      -0.84322944236664221       -4.4926026676606057E-008 F
     orb,it,eci,eold,eci-eold=                    4                    3 -0.84322949541669656      -0.84322948729266889       -8.1240276728067329E-009 F
     orb,it,eci,eold,eci-eold=                    4                    4 -0.84322949902151356      -0.84322949541669656       -3.6048170004576718E-009 F
     orb,it,eci,eold,eci-eold=                    4                    5 -0.84322950777839956      -0.84322949902151356       -8.7568859941100641E-009 F
     orb,it,eci,eold,eci-eold=                    4                    6 -0.84322951036698712      -0.84322950777839956       -2.5885875665210278E-009 F
     orb,it,eci,eold,eci-eold=                    4                    7 -0.84322951205870034      -0.84322951036698712       -1.6917132139582236E-009 F
     orb,it,eci,eold,eci-eold=                    4                    8 -0.84322951707965643      -0.84322951205870034       -5.0209560953362598E-009 F
     orb,it,eci,eold,eci-eold=                    4                    9 -0.84322951982635908      -0.84322951707965643       -2.7467026431082786E-009 F
     orb,it,eci,eold,eci-eold=                    4                   10 -0.84322952113031857      -0.84322951982635908       -1.3039594959352030E-009 F
     orb,it,eci,eold,eci-eold=                    4                   11 -0.84322952921599637      -0.84322952113031857       -8.0856777939786184E-009 F
     orb,it,eci,eold,eci-eold=                    4                   12 -0.84322952921599637      -0.84322952921599637        0.0000000000000000      F
     orbital   4 current e=  0.490077E+00 error=0.103E-02 (eci= -0.843229529E+00 error=0.000E+00) iterations  12(   0 preconditioned, Ep,Sp= 20.0  200.0)
     orb,it,eci,eold,eci-eold=                    4                    1 -0.84322953817035462      -0.84322952823811581       -9.9322388091849234E-009 F
     orb,it,eci,eold,eci-eold=                    4                    2 -0.84322953957299907      -0.84322953817035462       -1.4026444450365716E-009 F
     orb,it,eci,eold,eci-eold=                    4                    3 -0.84322954027136610      -0.84322953957299907       -6.9836703087133856E-010 F
     orbital   4 current e=  0.490060E+00 error=0.178E-04 (eci= -0.843229540E+00 error=0.698E-09) iterations   3(   0 preconditioned, Ep,Sp= 20.0  200.0)
     orb,it,eci,eold,eci-eold=                    5                    1 -0.84222520794752231      -0.84121559988063210       -1.0096080668902108E-003 F
     orb,it,eci,eold,eci-eold=                    5                    2 -0.84239539573436928      -0.84222520794752231       -1.7018778684696478E-004 F
     orb,it,eci,eold,eci-eold=                    5                    3 -0.84258570617746342      -0.84239539573436928       -1.9031044309414380E-004 F
     orb,it,eci,eold,eci-eold=                    5                    4 -0.84276415088347956      -0.84258570617746342       -1.7844470601613427E-004 F
     orb,it,eci,eold,eci-eold=                    5                    5 -0.84289961843895123      -0.84276415088347956       -1.3546755547166889E-004 F
     orb,it,eci,eold,eci-eold=                    5                    6 -0.84296080329345946      -0.84289961843895123       -6.1184854508233855E-005 F
     orb,it,eci,eold,eci-eold=                    5                    7 -0.84302379140841111      -0.84296080329345946       -6.2988114951645358E-005 F
     orb,it,eci,eold,eci-eold=                    5                    8 -0.84308308494577899      -0.84302379140841111       -5.9293537367888227E-005 F
     orb,it,eci,eold,eci-eold=                    5                    9 -0.84311082456564868      -0.84308308494577899       -2.7739619869682208E-005 F
     orb,it,eci,eold,eci-eold=                    5                   10 -0.84313312493011383      -0.84311082456564868       -2.2300364465155376E-005 F
     orb,it,eci,eold,eci-eold=                    5                   11 -0.84314853432474424      -0.84313312493011383       -1.5409394630405693E-005 F
     orb,it,eci,eold,eci-eold=                    5                   12 -0.84315863298813898      -0.84314853432474424       -1.0098663394741969E-005 F
     orb,it,eci,eold,eci-eold=                    5                   13 -0.84318007646834126      -0.84315863298813898       -2.1443480202276710E-005 F
     orb,it,eci,eold,eci-eold=                    5                   14 -0.84319329682695443      -0.84318007646834126       -1.3220358613175165E-005 F
     orb,it,eci,eold,eci-eold=                    5                   15 -0.84320004179137098      -0.84319329682695443       -6.7449644165495926E-006 F
     orb,it,eci,eold,eci-eold=                    5                   16 -0.84320296442893539      -0.84320004179137098       -2.9226375644064717E-006 F
     orb,it,eci,eold,eci-eold=                    5                   17 -0.84321185187074210      -0.84320296442893539       -8.8874418067153016E-006 F
     orb,it,eci,eold,eci-eold=                    5                   18 -0.84321671908437157      -0.84321185187074210       -4.8672136294669599E-006 F
     orb,it,eci,eold,eci-eold=                    5                   19 -0.84322019490293398      -0.84321671908437157       -3.4758185624150784E-006 F
     orb,it,eci,eold,eci-eold=                    5                   20 -0.84322174913646453      -0.84322019490293398       -1.5542335305429589E-006 F
     orb,it,eci,eold,eci-eold=                    5                   21 -0.84322370676727787      -0.84322174913646453       -1.9576308133428810E-006 F
     orb,it,eci,eold,eci-eold=                    5                   22 -0.84322493883271932      -0.84322370676727787       -1.2320654414477161E-006 F
     orb,it,eci,eold,eci-eold=                    5                   23 -0.84322601152378396      -0.84322493883271932       -1.0726910646408072E-006 F
     orb,it,eci,eold,eci-eold=                    5                   24 -0.84322650752114803      -0.84322601152378396       -4.9599736406946704E-007 F
     orb,it,eci,eold,eci-eold=                    5                   25 -0.84322747843052603      -0.84322650752114803       -9.7090937800636823E-007 F
     orb,it,eci,eold,eci-eold=                    5                   26 -0.84322804210722113      -0.84322747843052603       -5.6367669509782559E-007 F
     orb,it,eci,eold,eci-eold=                    5                   27 -0.84322842565643297      -0.84322804210722113       -3.8354921183536561E-007 F
     orb,it,eci,eold,eci-eold=                    5                   28 -0.84322856810802926      -0.84322842565643297       -1.4245159629666659E-007 F
     orb,it,eci,eold,eci-eold=                    5                   29 -0.84322883420457784      -0.84322856810802926       -2.6609654857345788E-007 F
     orb,it,eci,eold,eci-eold=                    5                   30 -0.84322883705939955      -0.84322883420457784       -2.8548217123613995E-009 F
     orb,it,eci,eold,eci-eold=                    5                   31 -0.84322891253801779      -0.84322883705939955       -7.5478618244417817E-008 F
     orb,it,eci,eold,eci-eold=                    5                   32 -0.84322906848453172      -0.84322891253801779       -1.5594651392447645E-007 F
     orb,it,eci,eold,eci-eold=                    5                   33 -0.84322909125417822      -0.84322906848453172       -2.2769646501608065E-008 F
     orb,it,eci,eold,eci-eold=                    5                   34 -0.84322914029955187      -0.84322909125417822       -4.9045373651246393E-008 F
     orb,it,eci,eold,eci-eold=                    5                   35 -0.84322923479040945      -0.84322914029955187       -9.4490857582840704E-008 F
     orb,it,eci,eold,eci-eold=                    5                   36 -0.84322929718801121      -0.84322923479040945       -6.2397601752195442E-008 F
     orb,it,eci,eold,eci-eold=                    5                   37 -0.84322935955575828      -0.84322929718801121       -6.2367747077907154E-008 F
     orb,it,eci,eold,eci-eold=                    5                   38 -0.84322938635300471      -0.84322935955575828       -2.6797246421850218E-008 F
     orb,it,eci,eold,eci-eold=                    5                   39 -0.84322942504299581      -0.84322938635300471       -3.8689991099793986E-008 F
     orb,it,eci,eold,eci-eold=                    5                   40 -0.84322944686062140      -0.84322942504299581       -2.1817625595055290E-008 F
     orb,it,eci,eold,eci-eold=                    5                   41 -0.84322947057443520      -0.84322944686062140       -2.3713813801506944E-008 F
     orb,it,eci,eold,eci-eold=                    5                   42 -0.84322948228487227      -0.84322947057443520       -1.1710437064493817E-008 F
     orb,it,eci,eold,eci-eold=                    5                   43 -0.84322949632511768      -0.84322948228487227       -1.4040245410740226E-008 F
     orb,it,eci,eold,eci-eold=                    5                   44 -0.84322950424500176      -0.84322949632511768       -7.9198840818861527E-009 F
     orb,it,eci,eold,eci-eold=                    5                   45 -0.84322951445621874      -0.84322950424500176       -1.0211216983080362E-008 F
     orb,it,eci,eold,eci-eold=                    5                   46 -0.84322951971996518      -0.84322951445621874       -5.2637464387217392E-009 F
     orb,it,eci,eold,eci-eold=                    5                   47 -0.84322952523638295      -0.84322951971996518       -5.5164177670263825E-009 F
     orb,it,eci,eold,eci-eold=                    5                   48 -0.84322952821876429      -0.84322952523638295       -2.9823813418872192E-009 F
     orb,it,eci,eold,eci-eold=                    5                   49 -0.84322953306139870      -0.84322952821876429       -4.8426344045893188E-009 F
     orb,it,eci,eold,eci-eold=                    5                   50 -0.84322953552751212      -0.84322953306139870       -2.4661134245818062E-009 F
     orb,it,eci,eold,eci-eold=                    5                   51 -0.84322953786100507      -0.84322953552751212       -2.3334929544205352E-009 F
     orb,it,eci,eold,eci-eold=                    5                   52 -0.84322953786100507      -0.84322953786100507        0.0000000000000000      F
     orbital   5 current e=  0.489764E+00 error=0.629E-01 (eci= -0.843229538E+00 error=0.000E+00) iterations  52(   0 preconditioned, Ep,Sp= 20.0  200.0)
     orb,it,eci,eold,eci-eold=                    5                    1 -0.84322954274067985      -0.84322953719103821       -5.5496416351275002E-009 F
     orb,it,eci,eold,eci-eold=                    5                    2 -0.84322954427530938      -0.84322954274067985       -1.5346295345608496E-009 F
     orb,it,eci,eold,eci-eold=                    5                    3 -0.84322954427530938      -0.84322954427530938        0.0000000000000000      F
     orbital   5 current e=  0.489808E+00 error=0.439E-04 (eci= -0.843229544E+00 error=0.000E+00) iterations   3(   0 preconditioned, Ep,Sp= 20.0  200.0)
     orb,it,eci,eold,eci-eold=                    5                    1 -0.84322954489880275      -0.84322954425781460       -6.4098815144575383E-010 F
     orbital   5 current e=  0.489815E+00 error=0.771E-05 (eci= -0.843229545E+00 error=0.641E-09) iterations   1(   0 preconditioned, Ep,Sp= 20.0  200.0)
     orb,it,eci,eold,eci-eold=                    6                    1 -0.84199884820478865      -0.84124275445813823       -7.5609374665042139E-004 F
     orb,it,eci,eold,eci-eold=                    6                    2 -0.84215723340601556      -0.84199884820478865       -1.5838520122690714E-004 F
     orb,it,eci,eold,eci-eold=                    6                    3 -0.84225290317344303      -0.84215723340601556       -9.5669767427475350E-005 F
     orb,it,eci,eold,eci-eold=                    6                    4 -0.84278804201855806      -0.84225290317344303       -5.3513884511502408E-004 F
     orb,it,eci,eold,eci-eold=                    6                    5 -0.84283746759677169      -0.84278804201855806       -4.9425578213635468E-005 F
     orb,it,eci,eold,eci-eold=                    6                    6 -0.84284164608840328      -0.84283746759677169       -4.1784916315901199E-006 F
     orb,it,eci,eold,eci-eold=                    6                    7 -0.84284224756155346      -0.84284164608840328       -6.0147315017466951E-007 F
     orb,it,eci,eold,eci-eold=                    6                    8 -0.84290588383713083      -0.84284224756155346       -6.3636275577372281E-005 F
     orb,it,eci,eold,eci-eold=                    6                    9 -0.84301276207442410      -0.84290588383713083       -1.0687823729327306E-004 F
     orb,it,eci,eold,eci-eold=                    6                   10 -0.84308272914657656      -0.84301276207442410       -6.9967072152454790E-005 F
     orb,it,eci,eold,eci-eold=                    6                   11 -0.84308842668417860      -0.84308272914657656       -5.6975376020451662E-006 F
     orb,it,eci,eold,eci-eold=                    6                   12 -0.84309534740549830      -0.84308842668417860       -6.9207213196920137E-006 F
     orb,it,eci,eold,eci-eold=                    6                   13 -0.84311697046258849      -0.84309534740549830       -2.1623057090192077E-005 F
     orb,it,eci,eold,eci-eold=                    6                   14 -0.84312521717031474      -0.84311697046258849       -8.2467077262560196E-006 F
     orb,it,eci,eold,eci-eold=                    6                   15 -0.84312714972488723      -0.84312521717031474       -1.9325545724813153E-006 F
     orb,it,eci,eold,eci-eold=                    6                   16 -0.84313797045688466      -0.84312714972488723       -1.0820731997429611E-005 F
     orb,it,eci,eold,eci-eold=                    6                   17 -0.84314224338396304      -0.84313797045688466       -4.2729270783858908E-006 F
     orb,it,eci,eold,eci-eold=                    6                   18 -0.84314339377995795      -0.84314224338396304       -1.1503959949088483E-006 F
     orb,it,eci,eold,eci-eold=                    6                   19 -0.84314383213648048      -0.84314339377995795       -4.3835652252521840E-007 F
     orb,it,eci,eold,eci-eold=                    6                   20 -0.84314387603242080      -0.84314383213648048       -4.3895940327054461E-008 F
     orb,it,eci,eold,eci-eold=                    6                   21 -0.84314399178553912      -0.84314387603242080       -1.1575311831268920E-007 F
     orb,it,eci,eold,eci-eold=                    6                   22 -0.84314434862525900      -0.84314399178553912       -3.5683971988387242E-007 F
     orb,it,eci,eold,eci-eold=                    6                   23 -0.84314445577378516      -0.84314434862525900       -1.0714852616278137E-007 F
     orb,it,eci,eold,eci-eold=                    6                   24 -0.84314448134562381      -0.84314445577378516       -2.5571838646598621E-008 F
     orb,it,eci,eold,eci-eold=                    6                   25 -0.84314464271054135      -0.84314448134562381       -1.6136491753915294E-007 F
     orb,it,eci,eold,eci-eold=                    6                   26 -0.84314467110759439      -0.84314464271054135       -2.8397053042361620E-008 F
     orb,it,eci,eold,eci-eold=                    6                   27 -0.84314468749340288      -0.84314467110759439       -1.6385808487839881E-008 F
     orb,it,eci,eold,eci-eold=                    6                   28 -0.84314481949574183      -0.84314468749340288       -1.3200233894838931E-007 F
     orb,it,eci,eold,eci-eold=                    6                   29 -0.84314488778959129      -0.84314481949574183       -6.8293849464495793E-008 F
     orb,it,eci,eold,eci-eold=                    6                   30 -0.84314491131455460      -0.84314488778959129       -2.3524963310705971E-008 F
[...]
   10    7   10   10       -0.0074998440
   10    7   11   10       -0.0039850406
   10    7   12   10       -0.0001767565
   10    7   13   10        0.0001527720
   10    7   11   11       -0.0023903761
   10    7   12   11       -0.0000973513
   10    7   13   11        0.0001547627
   10    7   12   12       -0.0023076406
   10    7   13   12        0.0000912797
   10    7   13   13       -0.0022262277
   11    7   11    7        0.0741765936
   11    7   12    7       -0.0006146906
   11    7   13    7        0.0001006123
   11    7    8    8        0.0003266583
   11    7    9    8        0.0000028976
   11    7   10    8       -0.0000125730
   11    7   11    8        0.0005669941
   11    7   12    8       -0.0193573672
   11    7   13    8        0.0547550062
   11    7    9    9        0.0003267576
   11    7   10    9        0.0000075780
   11    7   11    9       -0.0002580939
   11    7   12    9       -0.0547773310
   11    7   13    9       -0.0194938078
   11    7   10   10        0.0043304129
   11    7   11   10        0.0265960962
   11    7   12   10        0.0007058920
   11    7   13   10       -0.0008229167
   11    7   11   11       -0.0052938969
   11    7   12   11       -0.0005911359
   11    7   13   11        0.0008506861
   11    7   12   12       -0.0020435720
   11    7   13   12       -0.0001820440
   11    7   13   13       -0.0029102608
   12    7   12    7        0.0117935630
   12    7   13    7       -0.0000567883
   12    7    8    8       -0.0004532875
   12    7    9    8       -0.0000022967
   12    7   10    8        0.0004536960
   12    7   11    8       -0.0017971685
   12    7   12    8        0.0002287270
   12    7   13    8       -0.0005114577
   12    7    9    9       -0.0004585000
   12    7   10    9        0.0011957344
   12    7   11    9       -0.0050918152
   12    7   12    9        0.0006163704
   12    7   13    9        0.0004890966
   12    7   10   10       -0.0006292436
   12    7   11   10       -0.0011085712
   12    7   12   10        0.0082451699
   12    7   13   10        0.0000421946
   12    7   11   11       -0.0006241192
   12    7   12   11        0.0000933320
   12    7   13   11       -0.0000421153
   12    7   12   12       -0.0007138941
   12    7   13   12        0.0000677845
   12    7   13   13       -0.0005884451
   13    7   13    7        0.0115795908
   13    7    8    8        0.0002755826
   13    7    9    8       -0.0000002112
   13    7   10    8       -0.0010683539
   13    7   11    8        0.0051625421
   13    7   12    8        0.0001263703
   13    7   13    8       -0.0000196131
   13    7    9    9        0.0002737890
   13    7   10    9        0.0003640144
   13    7   11    9       -0.0018178831
   13    7   12    9       -0.0002251156
   13    7   13    9        0.0000139588
   13    7   10   10        0.0003936787
   13    7   11   10        0.0012167744
   13    7   12   10        0.0001311769
   13    7   13   10        0.0080602232
   13    7   11   11        0.0004388779
   13    7   12   11       -0.0000359881
   13    7   13   11       -0.0000247131
   13    7   12   12        0.0004371665
   13    7   13   12       -0.0000493244
   13    7   13   13        0.0005609591
    8    8    8    8        0.3184396605
    8    8    9    8        0.0000007499
    8    8   10    8        0.0000010077
    8    8   11    8        0.0000411724
    8    8   12    8       -0.0009350097
    8    8   13    8        0.0020466188
    8    8    9    9        0.2872239038
    8    8   10    9       -0.0000003617
    8    8   11    9       -0.0000201745
    8    8   12    9       -0.0020181674
    8    8   13    9       -0.0005838154
    8    8   10   10        0.3041834291
    8    8   11   10        0.0015065760
    8    8   12   10        0.0001202637
    8    8   13   10        0.0000150962
    8    8   11   11        0.2855499163
    8    8   12   11       -0.0002488189
    8    8   13   11        0.0003137434
    8    8   12   12        0.2908041660
    8    8   13   12       -0.0078140443
    8    8   13   13        0.3099436451
    9    8    9    8        0.0162673540
    9    8   10    8       -0.0000000518
    9    8   11    8       -0.0000011084
    9    8   12    8       -0.0001540638
    9    8   13    8       -0.0000426880
    9    8    9    9       -0.0000003906
    9    8   10    9        0.0000000540
    9    8   11    9        0.0000020891
    9    8   12    9       -0.0000625017
    9    8   13    9        0.0001337718
    9    8   10   10        0.0000003983
    9    8   11   10        0.0000014913
    9    8   12   10       -0.0000041824
    9    8   13   10        0.0000017525
    9    8   11   11       -0.0000025699
    9    8   12   11       -0.0000675753
    9    8   13   11       -0.0000788671
    9    8   12   12        0.0078980192
    9    8   13   12       -0.0098888095
    9    8   13   13       -0.0079422927
   10    8   10    8        0.0200012725
   10    8   11    8        0.0009330653
   10    8   12    8       -0.0000464732
   10    8   13    8       -0.0000162040
   10    8    9    9        0.0000008515
   10    8   10    9        0.0000000368
   10    8   11    9        0.0000003362
   10    8   12    9       -0.0000127447
   10    8   13    9        0.0000010287
   10    8   10   10        0.0000018365
   10    8   11   10        0.0000156158
   10    8   12   10       -0.0002566128
   10    8   13   10        0.0006310174
   10    8   11   11        0.0000160793
   10    8   12   11       -0.0004304622
   10    8   13   11        0.0011193272
   10    8   12   12       -0.0001604805
   10    8   13   12        0.0004956163
   10    8   13   13       -0.0006513004
   11    8   11    8        0.0076478203
   11    8   12    8       -0.0003656912
   11    8   13    8        0.0006828107
   11    8    9    9        0.0000366907
   11    8   10    9        0.0000003395
   11    8   11    9       -0.0000042072
   11    8   12    9       -0.0004350822
   11    8   13    9       -0.0001850164
   11    8   10   10        0.0000856674
   11    8   11   10        0.0002001020
   11    8   12   10        0.0004993772
   11    8   13   10       -0.0014751645
   11    8   11   11        0.0000034152
   11    8   12   11        0.0000354293
   11    8   13   11       -0.0001333684
   11    8   12   12        0.0000530457
   11    8   13   12       -0.0000540307
   11    8   13   13        0.0000967598
   12    8   12    8        0.0143284835
   12    8   13    8       -0.0201165737
   12    8    9    9       -0.0008125334
   12    8   10    9       -0.0000063203
   12    8   11    9        0.0000542381
   12    8   12    9        0.0201744291
   12    8   13    9        0.0000220489
   12    8   10   10       -0.0023882446
   12    8   11   10       -0.0082745434
   12    8   12   10       -0.0003791629
   12    8   13   10        0.0010688426
   12    8   11   11        0.0006086049
   12    8   12   11        0.0001812706
   12    8   13   11       -0.0002750470
   12    8   12   12       -0.0003817045
   12    8   13   12        0.0002188601
   12    8   13   13       -0.0000023311
   13    8   13    8        0.0638843290
   13    8    9    9        0.0017692367
   13    8   10    9        0.0000006849
   13    8   11    9       -0.0002273388
   13    8   12    9       -0.0498972170
   13    8   13    9       -0.0202633540
   13    8   10   10        0.0060803243
   13    8   11   10        0.0231332339
   13    8   12   10        0.0010992436
   13    8   13   10       -0.0015793082
   13    8   11   11       -0.0023930220
   13    8   12   11       -0.0004906568
   13    8   13   11        0.0007315446
   13    8   12   12        0.0000229758
   13    8   13   12       -0.0002260229
   13    8   13   13       -0.0005371218
    9    9    9    9        0.3183707707
    9    9   10    9       -0.0000003586
    9    9   11    9       -0.0000225611
    9    9   12    9       -0.0023328364
    9    9   13    9       -0.0006763763
    9    9   10   10        0.3041558350
    9    9   11   10        0.0015068412
    9    9   12   10        0.0001125807
    9    9   13   10        0.0000191008
    9    9   11   11        0.2855199998
    9    9   12   11       -0.0000273445
    9    9   13   11        0.0001685991
    9    9   12   12        0.3099865797
    9    9   13   12        0.0079585344
    9    9   13   13        0.2907909993
   10    9   10    9        0.0200102067
   10    9   11    9        0.0009336688
   10    9   12    9       -0.0000577953
   10    9   13    9       -0.0000148691
   10    9   10   10       -0.0000007371
   10    9   11   10       -0.0000081784
   10    9   12   10       -0.0006961322
   10    9   13   10       -0.0002142298
   10    9   11   11       -0.0000077443
   10    9   12   11       -0.0012034333
   10    9   13   11       -0.0004331916
   10    9   12   12       -0.0004865692
   10    9   13   12        0.0002596557
   10    9   13   13        0.0002486306
   11    9   11    9        0.0076401283
   11    9   12    9        0.0001499142
   11    9   13    9        0.0002824245
   11    9   10   10       -0.0000437754
   11    9   11   10       -0.0000933708
   11    9   12   10        0.0014070527
   11    9   13   10        0.0005101333
   11    9   11   11       -0.0000063988
   11    9   12   11        0.0001364529
   11    9   13   11        0.0000487058
   11    9   12   12        0.0000547275
   11    9   13   12       -0.0000279123
   11    9   13   13       -0.0000411048
   12    9   12    9        0.0640541956
   12    9   13    9        0.0202402656
   12    9   10   10       -0.0063936123
   12    9   11   10       -0.0233660615
   12    9   12   10       -0.0011288869
   12    9   13   10        0.0007906626
   12    9   11   11        0.0020798426
   12    9   12   11        0.0004980828
   12    9   13   11       -0.0007014966
   12    9   12   12       -0.0006913265
   12    9   13   12        0.0001045589
   12    9   13   13        0.0004336501
   13    9   13    9        0.0144085911
   13    9   10   10       -0.0021039831
   13    9   11   10       -0.0083249000
   13    9   12   10        0.0004660340
   13    9   13   10        0.0005887672
   13    9   11   11        0.0009111875
   13    9   12   11        0.0001473527
   13    9   13   11       -0.0002621290
   13    9   12   12        0.0000690358
   13    9   13   12       -0.0000633116
   13    9   13   13        0.0002544464
   10   10   10   10        0.3512437919
   10   10   11   10        0.0031787332
   10   10   12   10        0.0003014936
   10   10   13   10       -0.0000475137
   10   10   11   11        0.3192053760
   10   10   12   11       -0.0000025775
   10   10   13   11       -0.0000584209
   10   10   12   12        0.3219423107
   10   10   13   12        0.0000747043
   10   10   13   13        0.3219291317
   11   10   11   10        0.0373223809
   11   10   12   10        0.0005305465
   11   10   13   10       -0.0006828332
   11   10   11   11       -0.0010727838
   11   10   12   11       -0.0003521145
   11   10   13   11        0.0004718031
   11   10   12   12        0.0013543913
   11   10   13   12       -0.0000978418
   11   10   13   13        0.0007849807
   12   10   12   10        0.0271742855
   12   10   13   10        0.0000074548
   12   10   11   11        0.0001122324
   12   10   12   11       -0.0000854819
   12   10   13   11        0.0000037852
   12   10   12   12        0.0003180382
   12   10   13   12       -0.0000168752
   12   10   13   13        0.0001801378
   13   10   13   10        0.0273661611
   13   10   11   11        0.0002048361
   13   10   12   11       -0.0000003907
   13   10   13   11       -0.0001593152
   13   10   12   12        0.0000196652
   13   10   13   12        0.0000667228
   13   10   13   13        0.0000209560
   11   11   11   11        0.3280465047
   11   11   12   11       -0.0000871285
   11   11   13   11       -0.0000150099
   11   11   12   12        0.3045723966
   11   11   13   12        0.0000703682
   11   11   13   13        0.3045414115
   12   11   12   11        0.0140041110
   12   11   13   11       -0.0000121643
   12   11   12   12       -0.0001843430
   12   11   13   12       -0.0000209443
   12   11   13   13       -0.0001502214
   13   11   13   11        0.0139917283
   13   11   12   12        0.0000907057
   13   11   13   12        0.0000317299
   13   11   13   13        0.0000680708
   12   12   12   12        0.3345431668
   12   12   13   12        0.0001560635
   12   12   13   13        0.3052954136
   13   12   13   12        0.0150000244
   13   12   13   13        0.0001160202
   13   13   13   13        0.3345369049
 end_two_electron_integrals


 output epsi filename:./pspw_hf_H2.emovecs

 Total PSPW energy     :  -0.8412106176E+00


=== Spin Contamination ===

 <Sexact^2> =    0.0000000000000000     
 <S^2>      =    0.0000000000000000     



== Center of Charge ==

spin up     (    0.0000,    0.0000,    0.0647 )
spin down   (    0.0000,    0.0000,    0.0647 )
     total  (    0.0000,    0.0000,    0.0647 )
ionic       (    0.0000,    0.0000,    0.0000 )


== Molecular Dipole wrt Center of Mass ==

mu   =  (   -0.0000,   -0.0000,   -0.1294 ) au
|mu| =     0.1294 au,       0.3289 Debye

 output psi filename:./pspw_hf_H2.movecs

 Writing Crystallographic Information File:./H2.cif
   - cell not shifted (nwpw:cif_shift_cell .false.)


== Timing ==

cputime in seconds
  prologue    :   0.650011E+01
  main loop   :   0.395101E+03
  epilogue    :   0.179895E-01
  total       :   0.401619E+03
  cputime/step:   0.213568E+01       (     185 evalulations,      78 linesearches)


Time spent doing                        total          step       percent
  total time                 :   0.401646E+03  0.217106E+01       100.0 %
  i/o time                   :   0.340918E+00  0.184280E-02         0.1 %
  FFTs                       :   0.279120E+03  0.150876E+01        69.5 %
  dot products               :   0.174629E+02  0.943939E-01         4.3 %
  geodesic                   :   0.839180E-01  0.453611E-03         0.0 %
  ffm_dgemm                  :   0.122155E-01  0.660299E-04         0.0 %
  fmf_dgemm                  :   0.939008E-02  0.507572E-04         0.0 %
  mmm_dgemm                  :   0.318144E-02  0.171970E-04         0.0 %
  m_diagonalize              :   0.160631E-02  0.868274E-05         0.0 %
  local pseudopotentials     :   0.603169E+01  0.326037E-01         1.5 %
  non-local pseudopotentials :   0.162003E+02  0.875693E-01         4.0 %
  structure factors          :   0.641554E+00  0.346786E-02         0.2 %
  phase factors              :   0.900800E-05  0.486919E-07         0.0 %
  masking and packing        :   0.736561E+01  0.398141E-01         1.8 %
  queue fft                  :   0.917784E+01  0.496099E-01         2.3 %
  queue fft (serial)         :   0.306954E+01  0.165921E-01         0.8 %
  queue fft (message passing):   0.607017E+01  0.328117E-01         1.5 %
  HFX potential              :   0.447483E+01  0.241883E-01         1.1 %
  non-local psp FFM          :   0.157293E+02  0.850235E-01         3.9 %
  non-local psp FMF          :   0.100858E+00  0.545177E-03         0.0 %
  non-local psp FFM A        :   0.422554E-01  0.228407E-03         0.0 %
  non-local psp FFM B        :   0.134358E+00  0.726260E-03         0.0 %

== HFX Counters ==
  HFX Evalulations         =   185
  Lin ACE HFX Evalulations =     0


     >>>  JOB COMPLETED     AT Sun Apr  6 19:07:27 2025  <<<

 Task  times  cpu:      375.2s     wall:      401.7s


                                NWChem Input Module
                                -------------------


 Summary of allocated global arrays
-----------------------------------
  No active global arrays


MA_summarize_allocated_blocks: starting scan ...
MA_summarize_allocated_blocks: scan completed: 0 heap blocks, 0 stack blocks
MA usage statistics:

	allocation statistics:
					      heap	     stack
					      ----	     -----
	current number of blocks	         0	         0
	maximum number of blocks	       313	        36
	current total bytes		         0	         0
	maximum total bytes		  16458960	   5334712
	maximum total K-bytes		     16459	      5335
	maximum total M-bytes		        17	         6


                                     CITATION
                                     --------
                Please cite the following reference when publishing
                           results obtained with NWChem:

          E. Apra, E. J. Bylaska, W. A. de Jong, N. Govind, K. Kowalski,
       T. P. Straatsma, M. Valiev, H. J. J. van Dam, Y. Alexeev, J. Anchell,
       V. Anisimov, F. W. Aquino, R. Atta-Fynn, J. Autschbach, N. P. Bauman,
     J. C. Becca, D. E. Bernholdt, K. Bhaskaran-Nair, S. Bogatko, P. Borowski,
         J. Boschen, J. Brabec, A. Bruner, E. Cauet, Y. Chen, G. N. Chuev,
      C. J. Cramer, J. Daily, M. J. O. Deegan, T. H. Dunning Jr., M. Dupuis,
   K. G. Dyall, G. I. Fann, S. A. Fischer, A. Fonari, H. Fruchtl, L. Gagliardi,
      J. Garza, N. Gawande, S. Ghosh, K. Glaesemann, A. W. Gotz, J. Hammond,
       V. Helms, E. D. Hermes, K. Hirao, S. Hirata, M. Jacquelin, L. Jensen,
   B. G. Johnson, H. Jonsson, R. A. Kendall, M. Klemm, R. Kobayashi, V. Konkov,
      S. Krishnamoorthy, M. Krishnan, Z. Lin, R. D. Lins, R. J. Littlefield,
      A. J. Logsdail, K. Lopata, W. Ma, A. V. Marenich, J. Martin del Campo,
   D. Mejia-Rodriguez, J. E. Moore, J. M. Mullin, T. Nakajima, D. R. Nascimento,
    J. A. Nichols, P. J. Nichols, J. Nieplocha, A. Otero-de-la-Roza, B. Palmer,
    A. Panyala, T. Pirojsirikul, B. Peng, R. Peverati, J. Pittner, L. Pollack,
   R. M. Richard, P. Sadayappan, G. C. Schatz, W. A. Shelton, D. W. Silverstein,
   D. M. A. Smith, T. A. Soares, D. Song, M. Swart, H. L. Taylor, G. S. Thomas,
            V. Tipparaju, D. G. Truhlar, K. Tsemekhman, T. Van Voorhis,
      A. Vazquez-Mayagoitia, P. Verma, O. Villa, A. Vishnu, K. D. Vogiatzis,
        D. Wang, J. H. Weare, M. J. Williamson, T. L. Windus, K. Wolinski,
        A. T. Wong, Q. Wu, C. Yang, Q. Yu, M. Zacharias, Z. Zhang, Y. Zhao,
                                and R. J. Harrison
                        "NWChem: Past, present, and future
                         J. Chem. Phys. 152, 184102 (2020)
                               doi:10.1063/5.0004997

                                      AUTHORS
                                      -------
  E. Apra, E. J. Bylaska, N. Govind, K. Kowalski, M. Valiev, D. Mejia-Rodriguez,
       A. Kunitsa, N. P. Bauman, A. Panyala, W. A. de Jong, T. P. Straatsma,
   H. J. J. van Dam, D. Wang, T. L. Windus, J. Hammond, J. Autschbach, A. Woods,
    K. Bhaskaran-Nair, J. Brabec, K. Lopata, S. A. Fischer, S. Krishnamoorthy,
     M. Jacquelin, W. Ma, M. Klemm, O. Villa, Y. Chen, V. Anisimov, F. Aquino,
     S. Hirata, M. T. Hackler, E. Hermes, L. Jensen, J. E. Moore, J. C. Becca,
      V. Konjkov, T. Risthaus, M. Malagoli, A. Marenich, A. Otero-de-la-Roza,
        J. Mullin, P. Nichols, R. Peverati, J. Pittner, Y. Zhao, P.-D. Fan,
        A. Fonari, M. J. Williamson, R. J. Harrison, J. R. Rehr, M. Dupuis,
     D. Silverstein, D. M. A. Smith, J. Nieplocha, V. Tipparaju, M. Krishnan,
     B. E. Van Kuiken, A. Vazquez-Mayagoitia, M. Swart, Q. Wu, T. Van Voorhis,
     A. A. Auer, M. Nooijen, L. D. Crosby, E. Brown, G. Cisneros, G. I. Fann,
   H. Fruchtl, J. Garza, K. Hirao, R. A. Kendall, J. A. Nichols, K. Tsemekhman,
    K. Wolinski, J. Anchell, D. E. Bernholdt, P. Borowski, T. Clark, D. Clerc,
   H. Dachsel, M. J. O. Deegan, K. Dyall, D. Elwood, E. Glendening, M. Gutowski,
   A. C. Hess, J. Jaffe, B. G. Johnson, J. Ju, R. Kobayashi, R. Kutteh, Z. Lin,
   R. Littlefield, X. Long, B. Meng, T. Nakajima, S. Niu, L. Pollack, M. Rosing,
   K. Glaesemann, G. Sandrone, M. Stave, H. Taylor, G. Thomas, J. H. van Lenthe,
                               A. T. Wong, Z. Zhang.

 Total times  cpu:      375.2s     wall:      401.9s
