 argument  1 = ../data/PW_LiH_data/3x3_aperiodic/NWChem/12nocovo/H1Li1-1.6.nw



============================== echo of input deck ==============================
title "swnc: e theory=pspw4 xc=pbe formula=LiH charge=0 mult=1"
#machinejob:expert

echo

start pspw_hf_LiH

memory heap 1200 mb stack 2400 mb global 400 mb

charge 0

geometry
Li    0.00000    0.00000   -0.80000
H     0.00000    0.00000    0.80000
end

nwpw
  ### pseudopotential block begin ###
  ### pseudopotential block end   ###
  simulation_cell
     SC 28.345889835
     boundary_conditions aperiodic
  end

  cutoff 50.0
  mult 1
  xc hf
  lmbfgs
  tolerances 1.0e-9 1.0e-9

  virtual 12
end
set nwpw:cif_filename LiH

#set nwpw:CI_maxit_orb 15
#set nwpw:CI_maxit_linesearch 15

set nwpw:2qintegrals .true.
#set nwpw:3x3_virtual .true.

task pspw energy
================================================================================


                                         
                                         


             Northwest Computational Chemistry Package (NWChem) 7.2.3
             --------------------------------------------------------


                    Environmental Molecular Sciences Laboratory
                       Pacific Northwest National Laboratory
                                Richland, WA 99352

                              Copyright (c) 1994-2022
                       Pacific Northwest National Laboratory
                            Battelle Memorial Institute

             NWChem is an open-source computational chemistry package
                        distributed under the terms of the
                      Educational Community License (ECL) 2.0
             A copy of the license is included with this distribution
                              in the LICENSE.TXT file

                                  ACKNOWLEDGMENT
                                  --------------

            This software and its documentation were developed at the
            EMSL at Pacific Northwest National Laboratory, a multiprogram
            national laboratory, operated for the U.S. Department of Energy
            by Battelle under Contract Number DE-AC05-76RL01830. Support
            for this work was provided by the Department of Energy Office
            of Biological and Environmental Research, Office of Basic
            Energy Sciences, and the Office of Advanced Scientific Computing.


           Job information
           ---------------

    hostname        = mqs-al
    program         = nwchem
    date            = Sun May  4 18:07:06 2025

    compiled        = Thu_Oct_31_08:55:15_2024
    source          = /home/conda/feedstock_root/build_artifacts/nwchem_1730356057992/work
    nwchem branch   = 7.2.3
    nwchem revision = c400b04
    ga revision     = 5.8.0
    use scalapack   = T
    input           = ../data/PW_LiH_data/3x3_aperiodic/NWChem/12nocovo/H1Li1-1.6.nw
    prefix          = pspw_hf_LiH.
    data base       = ./pspw_hf_LiH.db
    status          = startup
    nproc           =       24
    time left       =     -1s



           Memory information
           ------------------

    heap     =  157286400 doubles =   1200.0 Mbytes
    stack    =  314572797 doubles =   2400.0 Mbytes
    global   =   52428800 doubles =    400.0 Mbytes (distinct from heap & stack)
    total    =  524287997 doubles =   4000.0 Mbytes
    verify   = yes
    hardfail = no 


           Directory information
           ---------------------

  0 permanent = .
  0 scratch   = .




                                NWChem Input Module
                                -------------------


              swnc: e theory=pspw4 xc=pbe formula=LiH charge=0 mult=1
              -------------------------------------------------------

 Scaling coordinates for geometry "geometry" by  1.889725989
 (inverse scale =  0.529177249)

  zeroes
  zeroes
  zeroes
  zeroes
  zeroes
  zeroes
  zeroes
  zeroes
  zeroes
  zeroes
  zeroes
  zeroes
  zeroes
  zeroes
  zeroes
  zeroes
  zeroes
  zeroes
  zeroes
  zeroes
  zeroes
  zeroes
  zeroes
  zeroes
  zeroes
  zeroes
  zeroes
  zeroes
  zeroes
  zeroes
  zeroes
  zeroes
  zeroes
  zeroes
  zeroes
  zeroes
  zeroes
  zeroes
  zeroes
  zeroes
  zeroes
  zeroes
  zeroes
  zeroes
  zeroes
  zeroes
  zeroes
  zeroes
 ORDER OF PRIMARY AXIS IS BEING SET TO 4
 C4V symmetry detected

          ------
          auto-z
          ------
  no constraints, skipping    0.0000000000000000     
  no constraints, skipping    0.0000000000000000     


                             Geometry "geometry" -> ""
                             -------------------------

 Output coordinates in angstroms (scale by  1.889725989 to convert to a.u.)

  No.       Tag          Charge          X              Y              Z
 ---- ---------------- ---------- -------------- -------------- --------------
    1 Li                   3.0000     0.00000000     0.00000000    -0.40000000
    2 H                    1.0000     0.00000000     0.00000000     1.20000000

      Atomic Mass 
      ----------- 

      Li                 7.016000
      H                  1.007825


 Effective nuclear repulsion energy (a.u.)       0.9922073419

            Nuclear Dipole moment (a.u.) 
            ----------------------------
        X                 Y               Z
 ---------------- ---------------- ----------------
     0.0000000000     0.0000000000     0.0000000000

      Symmetry information
      --------------------

 Group name             C4v       
 Group number             18
 Group order               8
 No. of unique centers     2

      Symmetry unique atoms

     1    2



                                Z-matrix (autoz)
                                -------- 

 Units are Angstrom for bonds and degrees for angles

      Type          Name      I     J     K     L     M      Value
      ----------- --------  ----- ----- ----- ----- ----- ----------
    1 Stretch                  1     2                       1.60000


            XYZ format geometry
            -------------------
     2
 geometry
 Li                    0.00000000     0.00000000    -0.40000000
 H                     0.00000000     0.00000000     1.20000000

 ==============================================================================
                                internuclear distances
 ------------------------------------------------------------------------------
       center one      |      center two      | atomic units |  angstroms
 ------------------------------------------------------------------------------
    2 H                |   1 Li               |     3.02356  |     1.60000
 ------------------------------------------------------------------------------
                         number of included internuclear distances:          1
 ==============================================================================



          ****************************************************
          *                                                  *
          *               NWPW PSPW Calculation              *
          *                                                  *
          * [ (Grassmann/Stiefel manifold implementation)  ] *
          *                                                  *
          *      [ NorthWest Chemistry implementation ]      *
          *                                                  *
          *            version #5.10   06/12/02              *
          *                                                  *
          *    This code was developed by Eric J. Bylaska,   *
          *    and was based upon algorithms and code        *
          *    developed by the group of Prof. John H. Weare *
          *                                                  *
          ****************************************************
     >>>  JOB STARTED       AT Sun May  4 18:07:06 2025  <<<
          ================ input data ========================

 input psi filename:./pspw_hf_LiH.movecs

 number of processors used:        24
 processor grid           :  24 x   1
 parallel mapping         :2d-hilbert
 parallel mapping         :  balanced
 number of threads        :         1
 parallel io              :       off

 options:
      boundary conditions  = aperiodic   (version4)
      electron spin        = restricted
      exchange-correlation = Hartree-Fock
      - HFX relaxed
      - HFX restricted orbitals :    1
      - HFX free-space coulomb solver


 elements involved in the cluster:
      1: Li  valence charge:  1.0000  lmax=  1
             comment    : Hamann pseudopotential
             pseudpotential type            :   0
             highest angular component      :   1
             local potential used           :   1
             number of non-local projections:   1
             aperiodic cutoff radius        :  1.000
             semicore corrections included  :  1.000 (radius)  0.769 (charge)
             cutoff =   1.869   1.551

      2: H   valence charge:  1.0000  lmax=  1
             comment    : Parameterized (Chem.Phys.Lett., vol 322, page 447) Hamman psp
             pseudpotential type            :   0
             highest angular component      :   1
             local potential used           :   1
             number of non-local projections:   1
             aperiodic cutoff radius        :  1.000
             cutoff =   0.800   0.800


 total charge:   0.000

 atomic composition:
     Li  :    1     H   :    1

 number of electrons: spin up=     1 (   1 per task)  down=     1 (   1 per task) (Fourier space)
 number of orbitals : spin up=     1 (   1 per task)  down=     1 (   1 per task) (Fourier space)

 supercell:
      cell_name:  cell_default                                      
      lattice:    a1=<  28.346   0.000   0.000 >
                  a2=<   0.000  28.346   0.000 >
                  a3=<   0.000   0.000  28.346 >
      reciprocal: b1=<   0.222   0.000   0.000 >
                  b2=<   0.000   0.222   0.000 >
                  b3=<   0.000   0.000   0.222 >
      lattice:    a=      28.346 b=     28.346 c=      28.346
                  alpha=  90.000 beta=  90.000 gamma=  90.000
                  omega=     22775.6

      density cutoff=100.000  fft=140x140x140(   544264 waves    22677 per task)
      wavefnc cutoff= 50.000  fft=140x140x140(   192294 waves     8012 per task)

 technical parameters:
      time step=      5.80     fictitious mass=  400000.0
      tolerance=0.100E-08 (energy)   0.100E-08 (density)
      maximum iterations =      1000 (   10 inner    100 outer )





== Energy Calculation ==


          ============ Grassmann lmbfgs iteration ============
     >>>  ITERATION STARTED AT Sun May  4 18:08:35 2025  <<<
    iter.           Energy         DeltaE       DeltaRho 
    ------------------------------------------------------
      10   -0.7442460274E+00   -0.88242E-04    0.10678E-02
      20   -0.7444604889E+00   -0.42526E-05    0.41571E-05
      30   -0.7444750825E+00   -0.37666E-06    0.98709E-07
      40   -0.7444763112E+00   -0.35447E-07    0.33272E-08
      50   -0.7444764428E+00   -0.45334E-08    0.46840E-09
      60   -0.7444764614E+00   -0.87733E-09    0.83096E-10
  *** tolerance ok. iteration terminated
     >>>  ITERATION ENDED   AT Sun May  4 18:09:45 2025  <<<


==  Summary Of Results  ==

 number of electrons: spin up=    1.00000  down=    1.00000 (real space)

 total     energy    :  -0.7444764614E+00 (   -0.37224E+00/ion)
 total orbital energy:  -0.5945543209E+00 (   -0.59455E+00/electron)
 hartree   energy    :   0.9613158423E+00 (    0.96132E+00/electron)
 exc-corr  energy    :   0.0000000000E+00 (    0.00000E+00/electron)
 HF exchange energy  :  -0.4806579212E+00 (   -0.48066E+00/electron)
 ion-ion   energy    :   0.3307357806E+00 (    0.16537E+00/ion)

 kinetic (planewave) :   0.6171318853E+00 (    0.61713E+00/electron)
 V_local (planewave) :  -0.2085395862E+01 (   -0.20854E+01/electron)
 V_nl    (planewave) :  -0.8760618615E-01 (   -0.87606E-01/electron)
 V_Coul  (planewave) :   0.1922631685E+01 (    0.19226E+01/electron)
 V_xc.   (planewave) :   0.0000000000E+00 (    0.00000E+00/electron)
 K.S. HFX energy     :  -0.9613158423E+00 (   -0.96132E+00/electron)
 Virial Coefficient  :  -0.4056999319E+00

 orbital energies:
    -0.2972772E+00 (  -8.089eV)


== Virtual Orbital Calculation ==


 input epsi filename:./pspw_hf_LiH.emovecs
     orbital   1 current e=-0.967E-02 (error=0.961E-09) iterations  87(  19 preconditioned, Ep,Sp= 20.0  200.0)
     orbital   2 current e= 0.879E-02 (error=0.971E-09) iterations  70(  14 preconditioned, Ep,Sp= 20.0  200.0)
     orbital   3 current e= 0.193E-01 (error=0.939E-09) iterations  67(   4 preconditioned, Ep,Sp= 20.0  200.0)
     orbital   4 current e= 0.193E-01 (error=0.967E-09) iterations  67(   5 preconditioned, Ep,Sp= 20.0  200.0)
     orbital   5 current e= 0.229E-01 (error=0.795E-09) iterations  49(   1 preconditioned, Ep,Sp= 20.0  200.0)
     orbital   6 current e= 0.232E-01 (error=0.980E-09) iterations  72(  13 preconditioned, Ep,Sp= 20.0  200.0)
     orbital   7 current e= 0.295E-01 (error=0.970E-09) iterations  67(  11 preconditioned, Ep,Sp= 20.0  200.0)
     orbital   8 current e= 0.376E-01 (error=0.925E-09) iterations  77(  11 preconditioned, Ep,Sp= 20.0  200.0)
     orbital   9 current e= 0.415E-01 (error=0.205E-08) iterations 121(  18 preconditioned, Ep,Sp= 20.0  200.0)
     orbital   9 current e= 0.415E-01 (error=0.994E-09) iterations   2(   1 preconditioned, Ep,Sp= 20.0  200.0)
     orbital  10 current e= 0.415E-01 (error=0.261E-08) iterations 121(  18 preconditioned, Ep,Sp= 20.0  200.0)
     orbital  10 current e= 0.415E-01 (error=0.991E-09) iterations  17(   1 preconditioned, Ep,Sp= 20.0  200.0)
     orbital  11 current e= 0.469E-01 (error=0.966E-09) iterations  89(  14 preconditioned, Ep,Sp= 20.0  200.0)
     orbital  12 current e= 0.596E-01 (error=0.603E-08) iterations 121(  30 preconditioned, Ep,Sp= 20.0  200.0)
     orbital  12 current e= 0.596E-01 (error=0.183E-05) iterations 121(  77 preconditioned, Ep,Sp= 20.0  200.0)
     orbital  12 current e= 0.597E-01 (error=0.253E-05) iterations 121( 120 preconditioned, Ep,Sp= 20.0  200.0)
     orbital  12 current e= 0.596E-01 (error=0.149E-07) iterations 121(  72 preconditioned, Ep,Sp= 20.0  200.0)
     orbital  12 current e= 0.596E-01 (error=0.964E-09) iterations  89(   5 preconditioned, Ep,Sp= 20.0  200.0)

 virtual orbital energies:
     0.5962398E-01 (   1.622eV)
     0.4690439E-01 (   1.276eV)
     0.4145710E-01 (   1.128eV)
     0.4145709E-01 (   1.128eV)
     0.3762143E-01 (   1.024eV)
     0.2950965E-01 (   0.803eV)
     0.2315822E-01 (   0.630eV)
     0.2286169E-01 (   0.622eV)
     0.1934602E-01 (   0.526eV)
     0.1934602E-01 (   0.526eV)
     0.8788878E-02 (   0.239eV)
    -0.9669083E-02 (  -0.263eV)


 == Generating One-Electron and Two-Electron Integrals ==

 begin_one_electron_integrals
    1    1        -0.7779350816
    2    1         0.0322154086
    3    1         0.0165933346
    4    1         0.0000000109
    5    1        -0.0000000251
    6    1         0.0000000038
    7    1        -0.0153516471
    8    1         0.0150169199
    9    1        -0.0051417863
   10    1         0.0000001042
   11    1        -0.0000001360
   12    1        -0.0152680926
   13    1        -0.0242964140
    2    2        -0.2357502283
    3    2        -0.0634918338
    4    2        -0.0000000430
    5    2         0.0000000684
    6    2         0.0000000141
    7    2         0.0287547364
    8    2        -0.0224750302
    9    2         0.0273546631
   10    2        -0.0000003041
   11    2         0.0000004354
   12    2         0.0223801193
   13    2         0.0229945863
    3    3        -0.1671020355
    4    3         0.0000000110
    5    3        -0.0000000154
    6    3         0.0000000046
    7    3         0.0104189613
    8    3        -0.0014844819
    9    3         0.0482229289
   10    3        -0.0000004418
   11    3         0.0000005562
   12    3         0.0149956256
   13    3         0.0079123008
    4    4        -0.1605396894
    5    4        -0.0000006054
    6    4         0.0000000549
    7    4         0.0000000001
    8    4         0.0000000510
    9    4        -0.0000001964
   10    4        -0.0288485287
   11    4         0.0374536965
   12    4         0.0000103920
   13    4         0.0000346903
    5    5        -0.1605400843
    6    5        -0.0000000250
    7    5        -0.0000000125
    8    5         0.0000000260
    9    5        -0.0000004009
   10    5        -0.0374548672
   11    5        -0.0288443452
   12    5        -0.0000070305
   13    5        -0.0000242223
    6    6        -0.1204035117
    7    6         0.0000000592
    8    6        -0.0000002259
    9    6         0.0000022139
   10    6        -0.0000011544
   11    6         0.0000025433
   12    6         0.0000110626
   13    6        -0.0000021460
    7    7        -0.1311800491
    8    7         0.0063111111
    9    7        -0.0071531352
   10    7         0.0000001007
   11    7        -0.0000001104
   12    7        -0.0283509048
   13    7        -0.0095328084
    8    8        -0.1186117472
    9    8         0.0018449168
   10    8        -0.0000000277
   11    8         0.0000000278
   12    8         0.0058573410
   13    8         0.0335373031
    9    9        -0.1160201836
   10    9         0.0000000429
   11    9        -0.0000003640
   12    9        -0.0076715951
   13    9         0.0043708502
   10   10        -0.1334124486
   11   10         0.0000017634
   12   10         0.0000006485
   13   10         0.0000012389
   11   11        -0.1334155813
   12   11        -0.0000074384
   13   11        -0.0000244777
   12   12        -0.1026767958
   13   12        -0.0110927463
   13   13        -0.0984832167
 end_one_electron_integrals

 begin_two_electron_integrals
    1    1    1    1        0.4806579212
    1    1    2    1       -0.0322228295
    1    1    3    1       -0.0165983038
    1    1    4    1       -0.0000000109
    1    1    5    1        0.0000000251
    1    1    6    1       -0.0000000038
    1    1    7    1        0.0153532996
    1    1    8    1       -0.0150147342
    1    1    9    1        0.0051460637
    1    1   10    1       -0.0000001042
    1    1   11    1        0.0000001361
    1    1   12    1        0.0152701971
    1    1   13    1        0.0242920370
    1    1    2    2        0.1149940232
    1    1    3    2        0.0328971618
    1    1    4    2        0.0000000231
    1    1    5    2       -0.0000000376
    1    1    6    2       -0.0000000069
    1    1    7    2       -0.0153104360
    1    1    8    2        0.0120299709
    1    1    9    2       -0.0142146745
    1    1   10    2        0.0000001617
    1    1   11    2       -0.0000002336
    1    1   12    2       -0.0121535919
    1    1   13    2       -0.0127766978
    1    1    3    3        0.0886681468
    1    1    4    3       -0.0000000068
    1    1    5    3        0.0000000099
    1    1    6    3       -0.0000000022
    1    1    7    3       -0.0057505914
    1    1    8    3        0.0011669051
    1    1    9    3       -0.0244868548
    1    1   10    3        0.0000002252
    1    1   11    3       -0.0000002790
    1    1   12    3       -0.0080687018
    1    1   13    3       -0.0046425157
    1    1    4    4        0.0903170455
    1    1    5    4        0.0000003095
    1    1    6    4       -0.0000000208
    1    1    7    4       -0.0000000017
    1    1    8    4       -0.0000000252
    1    1    9    4        0.0000001010
    1    1   10    4        0.0146921956
    1    1   11    4       -0.0190746611
    1    1   12    4       -0.0000053121
    1    1   13    4       -0.0000177337
    1    1    5    5        0.0903172470
    1    1    6    5        0.0000000147
    1    1    7    5        0.0000000102
    1    1    8    5       -0.0000000148
    1    1    9    5        0.0000002015
    1    1   10    5        0.0190752961
    1    1   11    5        0.0146900401
    1    1   12    5        0.0000035954
    1    1   13    5        0.0000123830
    1    1    6    6        0.0716404190
    1    1    7    6       -0.0000000298
    1    1    8    6        0.0000001133
    1    1    9    6       -0.0000011089
    1    1   10    6        0.0000005883
    1    1   11    6       -0.0000012801
    1    1   12    6       -0.0000055366
    1    1   13    6        0.0000010745
    1    1    7    7        0.0776231883
    1    1    8    7       -0.0035298608
    1    1    9    7        0.0038240603
    1    1   10    7       -0.0000000494
    1    1   11    7        0.0000000602
    1    1   12    7        0.0146416888
    1    1   13    7        0.0053830188
    1    1    8    8        0.0744273058
    1    1    9    8       -0.0010743930
    1    1   10    8        0.0000000115
    1    1   11    8       -0.0000000135
    1    1   12    8       -0.0033115566
    1    1   13    8       -0.0173667208
    1    1    9    9        0.0770625968
    1    1   10    9       -0.0000000066
    1    1   11    9        0.0000001703
    1    1   12    9        0.0041020139
    1    1   13    9       -0.0019455047
    1    1   10   10        0.0879568668
    1    1   11   10       -0.0000009152
    1    1   12   10       -0.0000003357
    1    1   13   10       -0.0000006526
    1    1   11   11        0.0879583033
    1    1   12   11        0.0000038853
    1    1   13   11        0.0000127861
    1    1   12   12        0.0752773651
    1    1   13   12        0.0061684521
    1    1   13   13        0.0800441646
    2    1    2    1        0.0039069014
    2    1    3    1        0.0023116632
    2    1    4    1        0.0000000032
    2    1    5    1       -0.0000000068
    2    1    6    1        0.0000000003
    2    1    7    1       -0.0018638340
    2    1    8    1        0.0015812547
    2    1    9    1       -0.0010716736
    2    1   10    1        0.0000000153
    2    1   11    1       -0.0000000268
    2    1   12    1       -0.0019228512
    2    1   13    1       -0.0025545850
    2    1    2    2        0.0022284742
    2    1    3    2        0.0013386827
    2    1    4    2        0.0000000167
    2    1    5    2       -0.0000000365
    2    1    6    2       -0.0000000003
    2    1    7    2        0.0001371374
    2    1    8    2       -0.0002194530
    2    1    9    2       -0.0006422465
    2    1   10    2       -0.0000000023
    2    1   11    2       -0.0000000179
    2    1   12    2        0.0002287600
    2    1   13    2        0.0004147777
    2    1    3    3        0.0010568554
    2    1    4    3       -0.0000000090
    2    1    5    3        0.0000000200
    2    1    6    3       -0.0000000001
    2    1    7    3       -0.0000434025
    2    1    8    3        0.0007546825
    2    1    9    3       -0.0006486513
    2    1   10    3       -0.0000000043
    2    1   11    3       -0.0000000247
    2    1   12    3        0.0000709620
    2    1   13    3       -0.0002128552
    2    1    4    4        0.0010625568
    2    1    5    4       -0.0000000061
    2    1    6    4        0.0000000237
    2    1    7    4       -0.0000000044
    2    1    8    4       -0.0000000025
    2    1    9    4        0.0000000161
    2    1   10    4        0.0004831959
    2    1   11    4       -0.0006274342
    2    1   12    4        0.0000001309
    2    1   13    4        0.0000004483
    2    1    5    5        0.0010625584
    2    1    6    5        0.0000000095
    2    1    7    5        0.0000000108
    2    1    8    5        0.0000000050
    2    1    9    5       -0.0000000197
    2    1   10    5        0.0006273267
    2    1   11    5        0.0004833097
    2    1   12    5       -0.0000000884
    2    1   13    5       -0.0000003186
    2    1    6    6        0.0004592502
    2    1    7    6        0.0000000001
    2    1    8    6        0.0000000007
    2    1    9    6       -0.0000000070
    2    1   10    6        0.0000000087
    2    1   11    6       -0.0000000044
    2    1   12    6        0.0000000195
    2    1   13    6        0.0000000190
    2    1    7    7        0.0002983180
    2    1    8    7       -0.0000252665
    2    1    9    7        0.0001198533
    2    1   10    7        0.0000000018
    2    1   11    7        0.0000000084
    2    1   12    7        0.0002249036
    2    1   13    7        0.0002788567
    2    1    8    8       -0.0003158327
    2    1    9    8       -0.0003903170
    2    1   10    8        0.0000000038
    2    1   11    8        0.0000000024
    2    1   12    8        0.0001823580
    2    1   13    8        0.0005129904
    2    1    9    9        0.0005153791
    2    1   10    9       -0.0000000072
    2    1   11    9       -0.0000000174
    2    1   12    9        0.0000477492
    2    1   13    9        0.0008120861
    2    1   10   10        0.0007720498
    2    1   11   10        0.0000000059
    2    1   12   10        0.0000000069
    2    1   13   10        0.0000000006
    2    1   11   11        0.0007720336
    2    1   12   11       -0.0000000143
    2    1   13   11       -0.0000000887
    2    1   12   12        0.0004330517
    2    1   13   12       -0.0000439530
    2    1   13   13       -0.0006615269
    3    1    3    1        0.0014453801
    3    1    4    1       -0.0000000021
    3    1    5    1        0.0000000045
    3    1    6    1        0.0000000001
    3    1    7    1       -0.0010952937
    3    1    8    1        0.0008579866
    3    1    9    1       -0.0007550565
    3    1   10    1        0.0000000146
    3    1   11    1       -0.0000000088
    3    1   12    1       -0.0011447096
    3    1   13    1       -0.0013734622
    3    1    2    2        0.0024949198
    3    1    3    2        0.0015835349
    3    1    4    2       -0.0000000252
    3    1    5    2        0.0000000566
    3    1    6    2       -0.0000000003
    3    1    7    2       -0.0000698019
    3    1    8    2       -0.0000164653
    3    1    9    2       -0.0008379408
    3    1   10    2        0.0000000159
    3    1   11    2        0.0000000083
    3    1   12    2        0.0000028013
    3    1   13    2        0.0001254494
    3    1    3    3        0.0012478034
    3    1    4    3        0.0000000145
    3    1    5    3       -0.0000000334
    3    1    6    3       -0.0000000002
    3    1    7    3       -0.0001840951
    3    1    8    3        0.0007419089
    3    1    9    3       -0.0008033895
    3    1   10    3        0.0000000250
    3    1   11    3        0.0000000239
    3    1   12    3       -0.0000806077
    3    1   13    3       -0.0003170237
    3    1    4    4        0.0010752641
    3    1    5    4       -0.0000000032
    3    1    6    4       -0.0000000361
    3    1    7    4        0.0000000102
    3    1    8    4        0.0000000009
    3    1    9    4        0.0000000024
    3    1   10    4        0.0005317420
    3    1   11    4       -0.0006904396
    3    1   12    4        0.0000000822
    3    1   13    4        0.0000002654
    3    1    5    5        0.0010752670
    3    1    6    5       -0.0000000164
    3    1    7    5       -0.0000000217
    3    1    8    5       -0.0000000032
    3    1    9    5        0.0000000128
    3    1   10    5        0.0006903576
    3    1   11    5        0.0005318202
    3    1   12    5       -0.0000000640
    3    1   13    5       -0.0000001897
    3    1    6    6        0.0003985998
    3    1    7    6        0.0000000000
    3    1    8    6        0.0000000006
    3    1    9    6       -0.0000000063
    3    1   10    6       -0.0000000426
    3    1   11    6        0.0000000234
    3    1   12    6        0.0000000139
    3    1   13    6        0.0000000164
    3    1    7    7        0.0003545874
    3    1    8    7       -0.0000780125
    3    1    9    7        0.0002029726
    3    1   10    7       -0.0000000087
    3    1   11    7       -0.0000000081
    3    1   12    7        0.0003074044
    3    1   13    7        0.0003296956
    3    1    8    8       -0.0001949553
    3    1    9    8       -0.0003868065
    3    1   10    8       -0.0000000034
    3    1   11    8       -0.0000000119
    3    1   12    8        0.0000959557
    3    1   13    8        0.0003180884
    3    1    9    9        0.0006376189
    3    1   10    9        0.0000000168
    3    1   11    9        0.0000000304
    3    1   12    9        0.0001469855
    3    1   13    9        0.0007544236
    3    1   10   10        0.0008950290
    3    1   11   10       -0.0000000076
    3    1   12   10       -0.0000000139
    3    1   13   10       -0.0000000072
    3    1   11   11        0.0008949899
    3    1   12   11        0.0000000168
    3    1   13   11        0.0000001150
    3    1   12   12        0.0004897037
    3    1   13   12        0.0000610451
    3    1   13   13       -0.0003806471
    4    1    4    1        0.0007483828
    4    1    5    1        0.0000000134
    4    1    6    1        0.0000000086
    4    1    7    1       -0.0000000036
    4    1    8    1        0.0000000005
    4    1    9    1        0.0000000055
    4    1   10    1        0.0005363660
    4    1   11    1       -0.0006963060
    4    1   12    1       -0.0000002324
    4    1   13    1       -0.0000007710
    4    1    2    2        0.0000010431
    4    1    3    2       -0.0000019452
    4    1    4    2        0.0016933844
    4    1    5    2        0.0000000176
    4    1    6    2        0.0000053478
    4    1    7    2       -0.0000009391
    4    1    8    2       -0.0000005770
    4    1    9    2        0.0000002686
    4    1   10    2        0.0007833374
    4    1   11    2       -0.0010170556
    4    1   12    2       -0.0000004142
    4    1   13    2       -0.0000001580
    4    1    3    3        0.0000043357
    4    1    4    3        0.0001782096
    4    1    5    3        0.0000000012
    4    1    6    3       -0.0000089041
    4    1    7    3        0.0000018745
    4    1    8    3        0.0000002540
    4    1    9    3        0.0000011682
    4    1   10    3        0.0006111020
    4    1   11    3       -0.0007934074
    4    1   12    3       -0.0000004046
    4    1   13    3       -0.0000006745
    4    1    4    4       -0.0000007069
    4    1    5    4        0.0000015922
    4    1    6    4        0.0004153976
    4    1    7    4       -0.0006265349
    4    1    8    4        0.0001415188
    4    1    9    4        0.0001052875
    4    1   10    4       -0.0000013320
    4    1   11    4       -0.0000025438
    4    1   12    4       -0.0004506433
    4    1   13    4       -0.0002789122
    4    1    5    5        0.0000028234
    4    1    6    5       -0.0003763898
    4    1    7    5       -0.0000000175
    4    1    8    5        0.0000000026
    4    1    9    5        0.0000000261
    4    1   10    5       -0.0000052022
    4    1   11    5       -0.0000007337
    4    1   12    5        0.0000000997
    4    1   13    5       -0.0000000591
    4    1    6    6        0.0000064527
    4    1    7    6       -0.0000037134
    4    1    8    6       -0.0000011441
    4    1    9    6        0.0000053430
    4    1   10    6       -0.0000517996
    4    1   11    6       -0.0006473706
    4    1   12    6       -0.0000055491
    4    1   13    6        0.0000031105
    4    1    7    7        0.0000037923
    4    1    8    7       -0.0000003059
    4    1    9    7       -0.0000009899
    4    1   10    7       -0.0003302214
    4    1   11    7        0.0004288523
    4    1   12    7       -0.0000021628
    4    1   13    7        0.0000008630
    4    1    8    8        0.0000050794
    4    1    9    8       -0.0000003016
    4    1   10    8        0.0000375358
    4    1   11    8       -0.0000485998
    4    1   12    8       -0.0000004881
    4    1   13    8        0.0000016836
    4    1    9    9        0.0000054697
    4    1   10    9       -0.0000198066
    4    1   11    9        0.0000257983
    4    1   12    9       -0.0000019578
    4    1   13    9        0.0000002917
    4    1   10   10        0.0000087844
    4    1   11   10        0.0000037155
    4    1   12   10       -0.0003712178
    4    1   13   10       -0.0001265308
    4    1   11   11       -0.0000025889
    4    1   12   11        0.0004822434
    4    1   13   11        0.0001641842
    4    1   12   12        0.0000058551
    4    1   13   12        0.0000004104
    4    1   13   13        0.0000066206
    5    1    5    1        0.0007483910
    5    1    6    1        0.0000000047
    5    1    7    1        0.0000000081
    5    1    8    1       -0.0000000039
    5    1    9    1        0.0000000032
    5    1   10    1        0.0006963735
    5    1   11    1        0.0005362409
    5    1   12    1        0.0000001604
    5    1   13    1        0.0000005395
    5    1    2    2       -0.0000023516
    5    1    3    2        0.0000043873
    5    1    4    2        0.0000000180
    5    1    5    2        0.0016933978
    5    1    6    2        0.0000023721
    5    1    7    2        0.0000021184
    5    1    8    2        0.0000012985
    5    1    9    2       -0.0000005816
    5    1   10    2        0.0010170233
    5    1   11    2        0.0007833068
    5    1   12    2        0.0000006790
    5    1   13    2       -0.0000004720
    5    1    3    3       -0.0000097805
    5    1    4    3        0.0000000016
    5    1    5    3        0.0001782134
    5    1    6    3       -0.0000039476
    5    1    7    3       -0.0000042271
    5    1    8    3       -0.0000005749
    5    1    9    3       -0.0000026123
    5    1   10    3        0.0007933980
    5    1   11    3        0.0006110997
    5    1   12    3        0.0000008989
    5    1   13    3        0.0000014738
    5    1    4    4       -0.0000031604
    5    1    5    4        0.0000007158
    5    1    6    4       -0.0003763853
    5    1    7    4       -0.0000000169
    5    1    8    4        0.0000000023
    5    1    9    4        0.0000000262
    5    1   10    4        0.0000022036
    5    1   11    4       -0.0000047519
    5    1   12    4        0.0000001008
    5    1   13    4       -0.0000000547
    5    1    5    5       -0.0000016118
    5    1    6    5       -0.0004154030
    5    1    7    5       -0.0006265442
    5    1    8    5        0.0001415147
    5    1    9    5        0.0001053392
    5    1   10    5        0.0000013315
    5    1   11    5        0.0000025367
    5    1   12    5       -0.0004504003
    5    1   13    5       -0.0002789268
    5    1    6    6       -0.0000145552
    5    1    7    6       -0.0000016481
    5    1    8    6       -0.0000005059
    5    1    9    6        0.0000023593
    5    1   10    6       -0.0006473629
    5    1   11    6        0.0000517825
    5    1   12    6       -0.0000024743
    5    1   13    6        0.0000013238
    5    1    7    7       -0.0000085508
    5    1    8    7        0.0000006909
    5    1    9    7        0.0000022438
    5    1   10    7       -0.0004287552
    5    1   11    7       -0.0003301571
    5    1   12    7        0.0000055558
    5    1   13    7        0.0000002502
    5    1    8    8       -0.0000114600
    5    1    9    8        0.0000006876
    5    1   10    8        0.0000487400
    5    1   11    8        0.0000373868
    5    1   12    8        0.0000008867
    5    1   13    8       -0.0000045073
    5    1    9    9       -0.0000123402
    5    1   10    9       -0.0000256664
    5    1   11    9       -0.0000198378
    5    1   12    9        0.0000043599
    5    1   13    9       -0.0000007738
    5    1   10   10       -0.0000043513
    5    1   11   10        0.0000017087
    5    1   12   10       -0.0004817469
    5    1   13   10       -0.0001643305
    5    1   11   11       -0.0000094148
    5    1   12   11       -0.0003712350
    5    1   13   11       -0.0001264330
    5    1   12   12       -0.0000128872
    5    1   13   12       -0.0000001580
    5    1   13   13       -0.0000133895
    6    1    6    1        0.0000156357
    6    1    7    1       -0.0000000002
    6    1    8    1        0.0000000004
    6    1    9    1       -0.0000000021
    6    1   10    1        0.0000000102
    6    1   11    1       -0.0000000062
    6    1   12    1       -0.0000000104
    6    1   13    1        0.0000000017
    6    1    2    2       -0.0000000008
    6    1    3    2       -0.0000000005
    6    1    4    2        0.0000000967
    6    1    5    2        0.0000000445
    6    1    6    2        0.0001102776
    6    1    7    2       -0.0000000000
    6    1    8    2        0.0000000007
    6    1    9    2       -0.0000000077
    6    1   10    2        0.0000000355
    6    1   11    2       -0.0000000245
    6    1   12    2       -0.0000000361
    6    1   13    2        0.0000000085
    6    1    3    3       -0.0000000004
    6    1    4    3       -0.0000000558
    6    1    5    3       -0.0000000246
    6    1    6    3       -0.0000462070
    6    1    7    3        0.0000000001
    6    1    8    3       -0.0000000002
    6    1    9    3        0.0000000012
    6    1   10    3        0.0000000475
    6    1   11    3       -0.0000000236
    6    1   12    3        0.0000000070
    6    1   13    3       -0.0000000002
    6    1    4    4        0.0000707224
    6    1    5    4       -0.0000640809
    6    1    6    4        0.0000000285
    6    1    7    4       -0.0000000329
    6    1    8    4       -0.0000000102
    6    1    9    4        0.0000000359
    6    1   10    4       -0.0000107390
    6    1   11    4       -0.0001342108
    6    1   12    4       -0.0000000210
    6    1   13    4       -0.0000000151
    6    1    5    5       -0.0000707232
    6    1    6    5       -0.0000000658
    6    1    7    5       -0.0000000154
    6    1    8    5       -0.0000000040
    6    1    9    5        0.0000000143
    6    1   10    5       -0.0001342096
    6    1   11    5        0.0000107384
    6    1   12    5       -0.0000000069
    6    1   13    5        0.0000000022
    6    1    6    6        0.0000000000
    6    1    7    6       -0.0000653619
    6    1    8    6        0.0000114993
    6    1    9    6        0.0000878189
    6    1   10    6       -0.0000000324
    6    1   11    6       -0.0000000554
    6    1   12    6       -0.0000807297
    6    1   13    6        0.0000001373
    6    1    7    7        0.0000000005
    6    1    8    7       -0.0000000013
    6    1    9    7        0.0000000121
    6    1   10    7       -0.0000000270
    6    1   11    7        0.0000000248
    6    1   12    7        0.0000000608
    6    1   13    7       -0.0000000120
    6    1    8    8        0.0000000003
    6    1    9    8       -0.0000000010
    6    1   10    8       -0.0000000116
    6    1   11    8        0.0000000041
    6    1   12    8       -0.0000000166
    6    1   13    8       -0.0000000001
    6    1    9    9       -0.0000000152
    6    1   10    9        0.0000000512
    6    1   11    9       -0.0000000349
    6    1   12    9       -0.0000000303
    6    1   13    9        0.0000000099
    6    1   10   10       -0.0000843107
    6    1   11   10       -0.0000548099
    6    1   12   10       -0.0000000477
    6    1   13   10       -0.0000000458
    6    1   11   11        0.0000843235
    6    1   12   11        0.0000000483
    6    1   13   11        0.0000000858
    6    1   12   12        0.0000000604
    6    1   13   12        0.0000000123
    6    1   13   13       -0.0000000031
    7    1    7    1        0.0009081106
    7    1    8    1       -0.0007621074
    7    1    9    1        0.0005009316
    7    1   10    1       -0.0000000046
    7    1   11    1        0.0000000174
    7    1   12    1        0.0009381940
    7    1   13    1        0.0012354123
    7    1    2    2       -0.0006447805
    7    1    3    2       -0.0003444532
    7    1    4    2       -0.0000000269
    7    1    5    2        0.0000000609
    7    1    6    2       -0.0000000002
    7    1    7    2        0.0000183409
    7    1    8    2        0.0001423465
    7    1    9    2        0.0001472645
    7    1   10    2        0.0000000100
    7    1   11    2        0.0000000207
    7    1   12    2       -0.0000330316
    7    1   13    2       -0.0001899462
    7    1    3    3       -0.0003002256
    7    1    4    3        0.0000000157
    7    1    5    3       -0.0000000350
    7    1    6    3        0.0000000002
    7    1    7    3       -0.0000500977
    7    1    8    3       -0.0002657832
    7    1    9    3        0.0001771984
    7    1   10    3        0.0000000159
    7    1   11    3        0.0000000339
    7    1   12    3       -0.0000183870
    7    1   13    3        0.0000752926
    7    1    4    4       -0.0004266965
    7    1    5    4       -0.0000000002
    7    1    6    4       -0.0000000386
    7    1    7    4        0.0000000115
    7    1    8    4        0.0000000019
    7    1    9    4       -0.0000000118
    7    1   10    4       -0.0001905556
    7    1   11    4        0.0002474565
    7    1   12    4        0.0000000007
    7    1   13    4       -0.0000000094
    7    1    5    5       -0.0004266981
    7    1    6    5       -0.0000000169
    7    1    7    5       -0.0000000262
    7    1    8    5       -0.0000000040
    7    1    9    5        0.0000000228
    7    1   10    5       -0.0002473985
    7    1   11    5       -0.0001905958
    7    1   12    5       -0.0000000043
    7    1   13    5        0.0000000090
    7    1    6    6       -0.0002236439
    7    1    7    6        0.0000000005
    7    1    8    6       -0.0000000013
    7    1    9    6        0.0000000122
    7    1   10    6       -0.0000000366
    7    1   11    6        0.0000000281
    7    1   12    6        0.0000000402
    7    1   13    6       -0.0000000169
    7    1    7    7       -0.0001088656
    7    1    8    7        0.0000475510
    7    1    9    7        0.0000470144
    7    1   10    7       -0.0000000065
    7    1   11    7       -0.0000000108
    7    1   12    7       -0.0000148325
    7    1   13    7       -0.0001311623
    7    1    8    8        0.0001283568
    7    1    9    8        0.0001462204
    7    1   10    8       -0.0000000052
    7    1   11    8       -0.0000000080
    7    1   12    8       -0.0000406930
    7    1   13    8       -0.0002600559
    7    1    9    9       -0.0001528411
    7    1   10    9        0.0000000146
    7    1   11    9        0.0000000301
    7    1   12    9        0.0000597625
    7    1   13    9       -0.0003173033
    7    1   10   10       -0.0003143196
    7    1   11   10       -0.0000000005
    7    1   12   10       -0.0000000125
    7    1   13   10        0.0000000011
    7    1   11   11       -0.0003143114
    7    1   12   11       -0.0000000185
    7    1   13   11        0.0000000049
    7    1   12   12       -0.0001131918
    7    1   13   12       -0.0000090256
    7    1   13   13        0.0003232558
    8    1    8    1        0.0007332142
    8    1    9    1       -0.0003118270
    8    1   10    1        0.0000000036
    8    1   11    1       -0.0000000090
    8    1   12    1       -0.0007743208
    8    1   13    1       -0.0012030675
    8    1    2    2       -0.0003547926
    8    1    3    2       -0.0002191159
    8    1    4    2        0.0000000012
    8    1    5    2       -0.0000000084
    8    1    6    2        0.0000000013
    8    1    7    2        0.0001670908
    8    1    8    2       -0.0001078432
    8    1    9    2        0.0001207746
    8    1   10    2       -0.0000000031
    8    1   11    2        0.0000000037
    8    1   12    2        0.0001793322
    8    1   13    2        0.0001976726
    8    1    3    3       -0.0001635988
    8    1    4    3       -0.0000000047
    8    1    5    3        0.0000000099
    8    1    6    3       -0.0000000005
    8    1    7    3        0.0001012784
    8    1    8    3       -0.0000950662
    8    1    9    3        0.0001113975
    8    1   10    3       -0.0000000090
    8    1   11    3       -0.0000000089
    8    1   12    3        0.0001159571
    8    1   13    3        0.0001152035
    8    1    4    4       -0.0001300283
    8    1    5    4       -0.0000000026
    8    1    6    4        0.0000000048
    8    1    7    4       -0.0000000031
    8    1    8    4        0.0000000071
    8    1    9    4        0.0000000004
    8    1   10    4       -0.0000803728
    8    1   11    4        0.0001043448
    8    1   12    4        0.0000000308
    8    1   13    4        0.0000001025
    8    1    5    5       -0.0001300313
    8    1    6    5        0.0000000029
    8    1    7    5        0.0000000091
    8    1    8    5       -0.0000000162
    8    1    9    5       -0.0000000033
    8    1   10    5       -0.0001043510
    8    1   11    5       -0.0000803598
    8    1   12    5       -0.0000000185
    8    1   13    5       -0.0000000671
    8    1    6    6       -0.0000298408
    8    1    7    6       -0.0000000008
    8    1    8    6       -0.0000000001
    8    1    9    6        0.0000000030
    8    1   10    6        0.0000000034
    8    1   11    6        0.0000000005
    8    1   12    6        0.0000000065
    8    1   13    6       -0.0000000025
    8    1    7    7       -0.0000915807
    8    1    8    7        0.0000603459
    8    1    9    7       -0.0000510013
    8    1   10    7        0.0000000031
    8    1   11    7        0.0000000017
    8    1   12    7       -0.0000856931
    8    1   13    7       -0.0001061905
    8    1    8    8       -0.0000600657
    8    1    9    8        0.0000343352
    8    1   10    8        0.0000000047
    8    1   11    8        0.0000000100
    8    1   12    8        0.0000586034
    8    1   13    8        0.0001007857
    8    1    9    9       -0.0000933215
    8    1   10    9       -0.0000000043
    8    1   11    9       -0.0000000092
    8    1   12    9       -0.0000584803
    8    1   13    9       -0.0000629346
    8    1   10   10       -0.0001563775
    8    1   11   10        0.0000000085
    8    1   12   10        0.0000000062
    8    1   13   10        0.0000000121
    8    1   11   11       -0.0001563406
    8    1   12   11       -0.0000000417
    8    1   13   11       -0.0000001419
    8    1   12   12       -0.0000969271
    8    1   13   12       -0.0000939825
    8    1   13   13       -0.0001790096
    9    1    9    1        0.0004835837
    9    1   10    1        0.0000000002
    9    1   11    1        0.0000000056
    9    1   12    1        0.0005398407
    9    1   13    1        0.0004827418
    9    1    2    2       -0.0023176861
    9    1    3    2       -0.0015255998
    9    1    4    2        0.0000000336
    9    1    5    2       -0.0000000432
    9    1    6    2       -0.0000000123
    9    1    7    2        0.0001954526
    9    1    8    2       -0.0001087005
    9    1    9    2        0.0008606299
    9    1   10    2       -0.0000000071
    9    1   11    2       -0.0000000112
    9    1   12    2        0.0001426740
    9    1   13    2        0.0000692336
    9    1    3    3       -0.0012055064
    9    1    4    3       -0.0000000107
    9    1    5    3        0.0000000300
    9    1    6    3        0.0000000051
    9    1    7    3        0.0002429277
    9    1    8    3       -0.0006395453
    9    1    9    3        0.0007938143
    9    1   10    3       -0.0000000115
    9    1   11    3       -0.0000000146
    9    1   12    3        0.0001692146
    9    1   13    3        0.0003498225
    9    1    4    4       -0.0009273147
    9    1    5    4        0.0000000086
    9    1    6    4        0.0000000398
    9    1    7    4       -0.0000000121
    9    1    8    4       -0.0000000025
    9    1    9    4        0.0000000014
    9    1   10    4       -0.0004841088
    9    1   11    4        0.0006285935
    9    1   12    4       -0.0000000397
    9    1   13    4       -0.0000001117
    9    1    5    5       -0.0009273016
    9    1    6    5        0.0000000129
    9    1    7    5        0.0000000152
    9    1    8    5        0.0000000099
    9    1    9    5       -0.0000000185
    9    1   10    5       -0.0006285039
    9    1   11    5       -0.0004841583
    9    1   12    5        0.0000000311
    9    1   13    5        0.0000000759
    9    1    6    6       -0.0003013120
    9    1    7    6        0.0000000088
    9    1    8    6       -0.0000000020
    9    1    9    6       -0.0000000052
    9    1   10    6        0.0000000371
    9    1   11    6       -0.0000000259
    9    1   12    6       -0.0000000001
    9    1   13    6       -0.0000000119
    9    1    7    7       -0.0003310673
    9    1    8    7        0.0001065361
    9    1    9    7       -0.0002240492
    9    1   10    7        0.0000000047
    9    1   11    7        0.0000000090
    9    1   12    7       -0.0002980691
    9    1   13    7       -0.0003212335
    9    1    8    8        0.0001001332
    9    1    9    8        0.0003437299
    9    1   10    8        0.0000000025
    9    1   11    8        0.0000000090
    9    1   12    8       -0.0000241863
    9    1   13    8       -0.0001760141
    9    1    9    9       -0.0006271841
    9    1   10    9       -0.0000000158
    9    1   11    9       -0.0000000294
    9    1   12    9       -0.0001857660
    9    1   13    9       -0.0006325626
    9    1   10   10       -0.0008448800
    9    1   11   10        0.0000000212
    9    1   12   10        0.0000000104
    9    1   13   10        0.0000000079
    9    1   11   11       -0.0008448527
    9    1   12   11       -0.0000000472
    9    1   13   11       -0.0000002173
    9    1   12   12       -0.0004449520
    9    1   13   12       -0.0001249010
    9    1   13   13        0.0001817959
   10    1   10    1        0.0010441936
   10    1   11    1       -0.0000000684
   10    1   12    1       -0.0000000271
   10    1   13    1       -0.0000000609
   10    1    2    2       -0.0000012263
   10    1    3    2        0.0000023249
   10    1    4    2        0.0011405400
   10    1    5    2        0.0014807899
   10    1    6    2        0.0000052657
   10    1    7    2        0.0000011149
   10    1    8    2        0.0000007388
   10    1    9    2       -0.0000003543
   10    1   10    2        0.0014947366
   10    1   11    2       -0.0000000505
   10    1   12    2        0.0000003134
   10    1   13    2       -0.0000004797
   10    1    3    3       -0.0000050801
   10    1    4    3        0.0001808022
   10    1    5    3        0.0002347385
   10    1    6    3       -0.0000086702
   10    1    7    3       -0.0000022108
   10    1    8    3       -0.0000004255
   10    1    9    3       -0.0000012693
   10    1   10    3        0.0011147943
   10    1   11    3       -0.0000000083
   10    1   12    3        0.0000004225
   10    1   13    3        0.0000007012
   10    1    4    4       -0.0000029622
   10    1    5    4        0.0000015411
   10    1    6    4       -0.0000492421
   10    1    7    4       -0.0004181452
   10    1    8    4        0.0000850143
   10    1    9    4        0.0000341921
   10    1   10    4        0.0000009527
   10    1   11    4       -0.0000053543
   10    1   12    4       -0.0003160791
   10    1   13    4       -0.0001806574
   10    1    5    5        0.0000004661
   10    1    6    5       -0.0006154028
   10    1    7    5       -0.0005428890
   10    1    8    5        0.0001103732
   10    1    9    5        0.0000444285
   10    1   10    5       -0.0000021356
   10    1   11    5        0.0000015774
   10    1   12    5       -0.0004102024
   10    1   13    5       -0.0002345478
   10    1    6    6       -0.0000077549
   10    1    7    6       -0.0000036540
   10    1    8    6       -0.0000013625
   10    1    9    6        0.0000053523
   10    1   10    6       -0.0005841252
   10    1   11    6       -0.0003797821
   10    1   12    6       -0.0000054802
   10    1   13    6        0.0000030528
   10    1    7    7       -0.0000044740
   10    1    8    7        0.0000003415
   10    1    9    7        0.0000012244
   10    1   10    7       -0.0006202925
   10    1   11    7        0.0000001265
   10    1   12    7        0.0000030388
   10    1   13    7        0.0000006927
   10    1    8    8       -0.0000059696
   10    1    9    8        0.0000003234
   10    1   10    8        0.0001082049
   10    1   11    8       -0.0000000391
   10    1   12    8        0.0000003637
   10    1   13    8       -0.0000024649
   10    1    9    9       -0.0000064199
   10    1   10    9       -0.0000978762
   10    1   11    9        0.0000000332
   10    1   12    9        0.0000022966
   10    1   13    9       -0.0000005785
   10    1   10   10        0.0000019074
   10    1   11   10        0.0000036136
   10    1   12   10       -0.0006894447
   10    1   13   10       -0.0002463255
   10    1   11   11       -0.0000089889
   10    1   12   11        0.0000001762
   10    1   13   11        0.0000000231
   10    1   12   12       -0.0000066090
   10    1   13   12        0.0000002311
   10    1   13   13       -0.0000065234
   11    1   11    1        0.0010439295
   11    1   12    1        0.0000003387
   11    1   13    1        0.0000011074
   11    1    2    2       -0.0000023372
   11    1    3    2        0.0000042343
   11    1    4    2       -0.0014807367
   11    1    5    2        0.0011403585
   11    1    6    2       -0.0000028669
   11    1    7    2        0.0000020604
   11    1    8    2        0.0000013623
   11    1    9    2       -0.0000006491
   11    1   10    2       -0.0000000857
   11    1   11    2        0.0014946771
   11    1   12    2        0.0000008238
   11    1   13    2       -0.0000000987
   11    1    3    3       -0.0000093994
   11    1    4    3       -0.0002347480
   11    1    5    3        0.0001808023
   11    1    6    3        0.0000047095
   11    1    7    3       -0.0000040671
   11    1    8    3       -0.0000008039
   11    1    9    3       -0.0000023341
   11    1   10    3       -0.0000000749
   11    1   11    3        0.0011147204
   11    1   12    3        0.0000008214
   11    1   13    3        0.0000014291
   11    1    4    4       -0.0000014303
   11    1    5    4       -0.0000008518
   11    1    6    4       -0.0006153497
   11    1    7    4        0.0005428465
   11    1    8    4       -0.0001103517
   11    1    9    4       -0.0000443358
   11    1   10    4        0.0000024081
   11    1   11    4       -0.0000008572
   11    1   12    4        0.0004105530
   11    1   13    4        0.0002344334
   11    1    5    5       -0.0000032353
   11    1    6    5        0.0000492762
   11    1    7    5       -0.0004180490
   11    1    8    5        0.0000849733
   11    1    9    5        0.0000341631
   11    1   10    5        0.0000049664
   11    1   11    5        0.0000021199
   11    1   12    5       -0.0003160421
   11    1   13    5       -0.0001805248
   11    1    6    6       -0.0000142995
   11    1    7    6        0.0000019887
   11    1    8    6        0.0000007392
   11    1    9    6       -0.0000029235
   11    1   10    6       -0.0003796980
   11    1   11    6        0.0005841097
   11    1   12    6        0.0000029732
   11    1   13    6       -0.0000016946
   11    1    7    7       -0.0000082570
   11    1    8    7        0.0000006319
   11    1    9    7        0.0000022415
   11    1   10    7        0.0000000264
   11    1   11    7       -0.0006202853
   11    1   12    7        0.0000049995
   11    1   13    7       -0.0000006497
   11    1    8    8       -0.0000109926
   11    1    9    8        0.0000006008
   11    1   10    8        0.0000000000
   11    1   11    8        0.0001080151
   11    1   12    8        0.0000008572
   11    1   13    8       -0.0000039261
   11    1    9    9       -0.0000118454
   11    1   10    9        0.0000000324
   11    1   11    9       -0.0000980095
   11    1   12    9        0.0000042599
   11    1   13    9       -0.0000010398
   11    1   10   10       -0.0000095983
   11    1   11   10       -0.0000018692
   11    1   12   10        0.0000001875
   11    1   13   10       -0.0000000158
   11    1   11   11       -0.0000037078
   11    1   12   11       -0.0006898354
   11    1   13   11       -0.0002461179
   11    1   12   12       -0.0000125124
   11    1   13   12       -0.0000003312
   11    1   13   13       -0.0000134596
   12    1   12    1        0.0009735479
   12    1   13    1        0.0012546434
   12    1    2    2       -0.0007987838
   12    1    3    2       -0.0004551423
   12    1    4    2       -0.0000004489
   12    1    5    2        0.0000003229
   12    1    6    2       -0.0000000613
   12    1    7    2        0.0000518926
   12    1    8    2        0.0001216945
   12    1    9    2        0.0002173198
   12    1   10    2       -0.0000000194
   12    1   11    2        0.0000003989
   12    1   12    2        0.0000109832
   12    1   13    2       -0.0001633809
   12    1    3    3       -0.0003876886
   12    1    4    3       -0.0000000158
   12    1    5    3        0.0000000005
   12    1    6    3        0.0000000273
   12    1    7    3       -0.0000113341
   12    1    8    3       -0.0002960498
   12    1    9    3        0.0002418689
   12    1   10    3       -0.0000000161
   12    1   11    3        0.0000003287
   12    1   12    3        0.0000067303
   12    1   13    3        0.0001026923
   12    1    4    4       -0.0004923978
   12    1    5    4        0.0000000345
   12    1    6    4       -0.0000001991
   12    1    7    4        0.0000001980
   12    1    8    4       -0.0000000575
   12    1    9    4       -0.0000000490
   12    1   10    4       -0.0002332017
   12    1   11    4        0.0003029099
   12    1   12    4        0.0000001373
   12    1   13    4        0.0000000994
   12    1    5    5       -0.0004923196
   12    1    6    5        0.0000000152
   12    1    7    5       -0.0000001383
   12    1    8    5        0.0000000386
   12    1    9    5        0.0000000417
   12    1   10    5       -0.0003026966
   12    1   11    5       -0.0002332527
   12    1   12    5       -0.0000000971
   12    1   13    5       -0.0000000640
   12    1    6    6       -0.0002430484
   12    1    7    6        0.0000000447
   12    1    8    6       -0.0000000114
   12    1    9    6       -0.0000000384
   12    1   10    6       -0.0000001224
   12    1   11    6        0.0000002034
   12    1   12    6        0.0000000876
   12    1   13    6       -0.0000000130
   12    1    7    7       -0.0001255625
   12    1    8    7        0.0000560197
   12    1    9    7        0.0000238739
   12    1   10    7        0.0000000065
   12    1   11    7       -0.0000001908
   12    1   12    7       -0.0000414997
   12    1   13    7       -0.0001521026
   12    1    8    8        0.0001235746
   12    1    9    8        0.0001656723
   12    1   10    8       -0.0000000042
   12    1   11    8        0.0000000098
   12    1   12    8       -0.0000323245
   12    1   13    8       -0.0002478688
   12    1    9    9       -0.0002048937
   12    1   10    9        0.0000000057
   12    1   11    9        0.0000000176
   12    1   12    9        0.0000386745
   12    1   13    9       -0.0003491339
   12    1   10   10       -0.0003944354
   12    1   11   10        0.0000000351
   12    1   12   10        0.0000000095
   12    1   13   10        0.0000000100
   12    1   11   11       -0.0003945221
   12    1   12   11       -0.0000002310
   12    1   13   11       -0.0000001303
   12    1   12   12       -0.0001341276
   12    1   13   12       -0.0000227736
   12    1   13   13        0.0003131621
   13    1   13    1        0.0019811276
   13    1    2    2        0.0007729499
   13    1    3    2        0.0004924510
   13    1    4    2       -0.0000014519
   13    1    5    2        0.0000010040
   13    1    6    2        0.0000000090
   13    1    7    2       -0.0002559161
   13    1    8    2        0.0001934799
   13    1    9    2       -0.0002726471
   13    1   10    2       -0.0000000608
   13    1   11    2        0.0000012911
   13    1   12    2       -0.0002658557
   13    1   13    2       -0.0003144697
   13    1    3    3        0.0003668742
   13    1    4    3       -0.0000000761
   13    1    5    3        0.0000000561
   13    1    6    3        0.0000000014
   13    1    7    3       -0.0001711151
   13    1    8    3        0.0002018378
   13    1    9    3       -0.0002392589
   13    1   10    3       -0.0000000501
   13    1   11    3        0.0000010563
   13    1   12    3       -0.0001796970
   13    1   13    3       -0.0002205694
   13    1    4    4        0.0002506740
   13    1    5    4       -0.0000000128
   13    1    6    4       -0.0000005882
   13    1    7    4        0.0000006521
   13    1    8    4       -0.0000001972
   13    1    9    4       -0.0000001322
   13    1   10    4        0.0001504592
   13    1   11    4       -0.0001953585
   13    1   12    4        0.0000004089
   13    1   13    4        0.0000002146
   13    1    5    5        0.0002506682
   13    1    6    5        0.0000000795
   13    1    7    5       -0.0000004534
   13    1    8    5        0.0000001418
   13    1    9    5        0.0000000921
   13    1   10    5        0.0001953353
   13    1   11    5        0.0001504532
   13    1   12    5       -0.0000002854
   13    1   13    5       -0.0000001536
   13    1    6    6        0.0000602622
   13    1    7    6       -0.0000000059
   13    1    8    6        0.0000000014
   13    1    9    6        0.0000000041
   13    1   10    6       -0.0000003567
   13    1   11    6        0.0000006169
   13    1   12    6       -0.0000000106
   13    1   13    6        0.0000000014
   13    1    7    7        0.0001650978
   13    1    8    7       -0.0001121939
   13    1    9    7        0.0001013626
   13    1   10    7        0.0000000280
   13    1   11    7       -0.0000006134
   13    1   12    7        0.0001598804
   13    1   13    7        0.0002019914
   13    1    8    8        0.0000823901
   13    1    9    8       -0.0000907912
   13    1   10    8       -0.0000000006
   13    1   11    8        0.0000000466
   13    1   12    8       -0.0000917611
   13    1   13    8       -0.0001340493
   13    1    9    9        0.0001914722
   13    1   10    9       -0.0000000030
   13    1   11    9        0.0000000114
   13    1   12    9        0.0001057300
   13    1   13    9        0.0001592969
   13    1   10   10        0.0002863401
   13    1   11   10       -0.0000000190
   13    1   12   10        0.0000000304
   13    1   13   10        0.0000000012
   13    1   11   11        0.0002863163
   13    1   12   11       -0.0000006449
   13    1   13   11       -0.0000000777
   13    1   12   12        0.0001929057
   13    1   13   12        0.0001737041
   13    1   13   13        0.0002496395
    2    2    2    2        0.1236371359
    2    2    3    2        0.0346529516
    2    2    4    2        0.0000144819
    2    2    5    2       -0.0000326495
    2    2    6    2       -0.0000000065
    2    2    7    2       -0.0020883718
    2    2    8    2        0.0038733481
    2    2    9    2       -0.0117071410
    2    2   10    2       -0.0000041342
    2    2   11    2       -0.0000079221
    2    2   12    2        0.0008260820
    2    2   13    2       -0.0009620804
    2    2    3    3        0.0883650138
    2    2    4    3       -0.0000088102
    2    2    5    3        0.0000198610
    2    2    6    3       -0.0000000016
    2    2    7    3       -0.0032512507
    2    2    8    3        0.0111223331
    2    2    9    3       -0.0222128699
    2    2   10    3       -0.0000098788
    2    2   11    3       -0.0000187527
    2    2   12    3       -0.0010126834
    2    2   13    3       -0.0037601867
    2    2    4    4        0.0938544043
    2    2    5    4       -0.0000000388
    2    2    6    4        0.0000192423
    2    2    7    4       -0.0000023538
    2    2    8    4       -0.0000044306
    2    2    9    4        0.0000037686
    2    2   10    4        0.0140900819
    2    2   11    4       -0.0182935053
    2    2   12    4       -0.0000007145
    2    2   13    4        0.0000027696
    2    2    5    5        0.0938545307
    2    2    6    5        0.0000085262
    2    2    7    5        0.0000053356
    2    2    8    5        0.0000099473
    2    2    9    5       -0.0000079639
    2    2   10    5        0.0182931401
    2    2   11    5        0.0140903897
    2    2   12    5        0.0000024893
    2    2   13    5       -0.0000031550
    2    2    6    6        0.0751476590
    2    2    7    6       -0.0000000102
    2    2    8    6        0.0000000618
    2    2    9    6       -0.0000006045
    2    2   10    6        0.0000177992
    2    2   11    6       -0.0000100797
    2    2   12    6       -0.0000021715
    2    2   13    6        0.0000007831
    2    2    7    7        0.0778626932
    2    2    8    7       -0.0016035348
    2    2    9    7        0.0052079244
    2    2   10    7        0.0000024266
    2    2   11    7        0.0000046715
    2    2   12    7        0.0161454218
    2    2   13    7        0.0076356939
    2    2    8    8        0.0662903716
    2    2    9    8       -0.0041384736
    2    2   10    8        0.0000006974
    2    2   11    8        0.0000012617
    2    2   12    8        0.0020712695
    2    2   13    8       -0.0077018716
    2    2    9    9        0.0747904870
    2    2   10    9       -0.0000089292
    2    2   11    9       -0.0000164249
    2    2   12    9        0.0036420263
    2    2   13    9        0.0089194954
    2    2   10   10        0.0841112709
    2    2   11   10       -0.0000002053
    2    2   12   10        0.0000041864
    2    2   13   10       -0.0000030642
    2    2   11   11        0.0841114660
    2    2   12   11        0.0000090334
    2    2   13   11       -0.0000021212
    2    2   12   12        0.0790469796
    2    2   13   12        0.0022157929
    2    2   13   13        0.0672960693
    3    2    3    2        0.0215046024
    3    2    4    2       -0.0000266383
    3    2    5    2        0.0000600852
    3    2    6    2       -0.0000000030
    3    2    7    2       -0.0021089351
    3    2    8    2        0.0044061477
    3    2    9    2       -0.0098084104
    3    2   10    2        0.0000059852
    3    2   11    2        0.0000107795
    3    2   12    2       -0.0003170604
    3    2   13    2       -0.0021023498
    3    2    3    3        0.0172269976
    3    2    4    3        0.0000178191
    3    2    5    3       -0.0000401983
    3    2    6    3       -0.0000000017
    3    2    7    3       -0.0026415757
    3    2    8    3        0.0043520646
    3    2    9    3       -0.0118661292
    3    2   10    3        0.0000216550
    3    2   11    3        0.0000395939
    3    2   12    3       -0.0010889532
    3    2   13    3       -0.0029525967
    3    2    4    4        0.0149732627
    3    2    5    4        0.0000001089
    3    2    6    4       -0.0000326806
    3    2    7    4        0.0000047408
    3    2    8    4        0.0000070665
    3    2    9    4       -0.0000049875
    3    2   10    4        0.0072651155
    3    2   11    4       -0.0094323587
    3    2   12    4        0.0000016010
    3    2   13    4       -0.0000006403
    3    2    5    5        0.0149731283
    3    2    6    5       -0.0000144857
    3    2    7    5       -0.0000106822
    3    2    8    5       -0.0000159657
    3    2    9    5        0.0000115379
    3    2   10    5        0.0094324291
    3    2   11    5        0.0072651535
    3    2   12    5       -0.0000036913
    3    2   13    5        0.0000012363
    3    2    6    6        0.0051939578
    3    2    7    6       -0.0000000065
    3    2    8    6        0.0000000222
    3    2    9    6       -0.0000002191
    3    2   10    6       -0.0000319196
    3    2   11    6        0.0000171569
    3    2   12    6       -0.0000008852
    3    2   13    6        0.0000002449
    3    2    7    7        0.0079266207
    3    2    8    7       -0.0008207985
    3    2    9    7        0.0031680020
    3    2   10    7       -0.0000042703
    3    2   11    7       -0.0000077406
    3    2   12    7        0.0076732051
    3    2   13    7        0.0030742765
    3    2    8    8        0.0029043289
    3    2    9    8       -0.0027014684
    3    2   10    8       -0.0000017962
    3    2   11    8       -0.0000033673
    3    2   12    8        0.0004356572
    3    2   13    8       -0.0033868874
    3    2    9    9        0.0097001163
    3    2   10    9        0.0000181948
    3    2   11    9        0.0000335807
    3    2   12    9        0.0027741749
    3    2   13    9        0.0031668281
    3    2   10   10        0.0127781127
    3    2   11   10       -0.0000002679
    3    2   12   10       -0.0000079939
    3    2   13   10        0.0000042732
    3    2   11   11        0.0127784418
    3    2   12   11       -0.0000137468
    3    2   13   11        0.0000106663
    3    2   12   12        0.0094518446
    3    2   13   12        0.0021139113
    3    2   13   13        0.0041132685
    4    2    4    2        0.0163584848
    4    2    5    2       -0.0000000502
    4    2    6    2        0.0000718496
    4    2    7    2       -0.0000090906
    4    2    8    2       -0.0000138960
    4    2    9    2        0.0000013286
    4    2   10    2        0.0050832652
    4    2   11    2       -0.0065998481
    4    2   12    2       -0.0000036448
    4    2   13    2        0.0000052953
    4    2    3    3        0.0000579565
    4    2    4    3       -0.0020758641
    4    2    5    3        0.0000000729
    4    2    6    3       -0.0001158267
    4    2    7    3        0.0000184101
    4    2    8    3        0.0000185680
    4    2    9    3        0.0000199743
    4    2   10    3        0.0051337734
    4    2   11    3       -0.0066650829
    4    2   12    3       -0.0000040714
    4    2   13    3       -0.0000012402
    4    2    4    4       -0.0000147857
    4    2    5    4        0.0000164206
    4    2    6    4        0.0040731826
    4    2    7    4       -0.0013235703
    4    2    8    4       -0.0030731093
    4    2    9    4        0.0027427837
    4    2   10    4       -0.0000172411
    4    2   11    4       -0.0000360106
    4    2   12    4       -0.0009545334
    4    2   13    4        0.0011194579
    4    2    5    5        0.0000439304
    4    2    6    5       -0.0036906718
    4    2    7    5       -0.0000001479
    4    2    8    5        0.0000000580
    4    2    9    5        0.0000001319
    4    2   10    5       -0.0000695064
    4    2   11    5       -0.0000151955
    4    2   12    5        0.0000002444
    4    2   13    5       -0.0000004698
    4    2    6    6        0.0000844620
    4    2    7    6       -0.0000287470
    4    2    8    6       -0.0000462841
    4    2    9    6        0.0000622735
    4    2   10    6       -0.0005649604
    4    2   11    6       -0.0070626235
    4    2   12    6       -0.0000745950
    4    2   13    6        0.0000526992
    4    2    7    7        0.0000456290
    4    2    8    7       -0.0000011169
    4    2    9    7       -0.0000103490
    4    2   10    7       -0.0014788710
    4    2   11    7        0.0019218965
    4    2   12    7       -0.0000316393
    4    2   13    7        0.0000127731
    4    2    8    8        0.0000654114
    4    2    9    8        0.0000016550
    4    2   10    8        0.0002774044
    4    2   11    8       -0.0003586699
    4    2   12    8       -0.0000026067
    4    2   13    8        0.0000271690
    4    2    9    9        0.0000734706
    4    2   10    9        0.0015846275
    4    2   11    9       -0.0020568015
    4    2   12    9       -0.0000233872
    4    2   13    9        0.0000199169
    4    2   10   10        0.0001150117
    4    2   11   10        0.0000525711
    4    2   12   10       -0.0016242027
    4    2   13   10        0.0008311961
    4    2   11   11       -0.0000336250
    4    2   12   11        0.0021106401
    4    2   13   11       -0.0010791954
    4    2   12   12        0.0000744404
    4    2   13   12       -0.0000076026
    4    2   13   13        0.0000861190
    5    2    5    2        0.0163585526
    5    2    6    2        0.0000318564
    5    2    7    2        0.0000205097
    5    2    8    2        0.0000313297
    5    2    9    2       -0.0000027893
    5    2   10    2        0.0065995068
    5    2   11    2        0.0050835332
    5    2   12    2        0.0000090792
    5    2   13    2       -0.0000089968
    5    2    3    3       -0.0001307266
    5    2    4    3        0.0000000761
    5    2    5    3       -0.0020759689
    5    2    6    3       -0.0000513492
    5    2    7    3       -0.0000415194
    5    2    8    3       -0.0000419001
    5    2    9    3       -0.0000448380
    5    2   10    3        0.0066654237
    5    2   11    3        0.0051338293
    5    2   12    3        0.0000091625
    5    2   13    3        0.0000027657
    5    2    4    4       -0.0000322160
    5    2    5    4        0.0000223600
    5    2    6    4       -0.0036905432
    5    2    7    4       -0.0000001412
    5    2    8    4        0.0000000563
    5    2    9    4        0.0000001344
    5    2   10    4        0.0000224713
    5    2   11    4       -0.0000650970
    5    2   12    4        0.0000002560
    5    2   13    4       -0.0000004275
    5    2    5    5       -0.0000334890
    5    2    6    5       -0.0040730875
    5    2    7    5       -0.0013237239
    5    2    8    5       -0.0030731907
    5    2    9    5        0.0027429054
    5    2   10    5        0.0000194937
    5    2   11    5        0.0000402200
    5    2   12    5       -0.0009536882
    5    2   13    5        0.0011196580
    5    2    6    6       -0.0001904997
    5    2    7    6       -0.0000127641
    5    2    8    6       -0.0000205061
    5    2    9    6        0.0000274740
    5    2   10    6       -0.0070625983
    5    2   11    6        0.0005647456
    5    2   12    6       -0.0000339673
    5    2   13    6        0.0000203380
    5    2    7    7       -0.0001028743
    5    2    8    7        0.0000025190
    5    2    9    7        0.0000235870
    5    2   10    7       -0.0019202576
    5    2   11    7       -0.0014785018
    5    2   12    7        0.0000788278
    5    2   13    7       -0.0000046311
    5    2    8    8       -0.0001475643
    5    2    9    8       -0.0000036540
    5    2   10    8        0.0003602868
    5    2   11    8        0.0002760172
    5    2   12    8        0.0000043284
    5    2   13    8       -0.0000663823
    5    2    9    9       -0.0001655814
    5    2   10    9        0.0020577690
    5    2   11    9        0.0015846280
    5    2   12    9        0.0000528073
    5    2   13    9       -0.0000440977
    5    2   10   10       -0.0000533693
    5    2   11   10        0.0000159143
    5    2   12   10       -0.0021076912
    5    2   13   10        0.0010787284
    5    2   11   11       -0.0001293923
    5    2   12   11       -0.0016246964
    5    2   13   11        0.0008314966
    5    2   12   12       -0.0001666334
    5    2   13   12        0.0000212948
    5    2   13   13       -0.0001818679
    6    2    6    2        0.0044886704
    6    2    7    2        0.0000000046
    6    2    8    2        0.0000000078
    6    2    9    2       -0.0000000821
    6    2   10    2        0.0000205056
    6    2   11    2       -0.0000111776
    6    2   12    2       -0.0000002473
    6    2   13    2        0.0000001223
    6    2    3    3       -0.0000000033
    6    2    4    3       -0.0000408471
    6    2    5    3       -0.0000181074
    6    2    6    3       -0.0032602163
    6    2    7    3       -0.0000000038
    6    2    8    3        0.0000000034
    6    2    9    3       -0.0000000344
    6    2   10    3        0.0000362846
    6    2   11    3       -0.0000197163
    6    2   12    3       -0.0000001884
    6    2   13    3        0.0000000358
    6    2    4    4        0.0014391004
    6    2    5    4       -0.0013039243
    6    2    6    4        0.0000206495
    6    2    7    4       -0.0000102020
    6    2    8    4       -0.0000193557
    6    2    9    4        0.0000210504
    6    2   10    4       -0.0002840544
    6    2   11    4       -0.0035504126
    6    2   12    4       -0.0000088360
    6    2   13    4        0.0000082630
    6    2    5    5       -0.0014390446
    6    2    6    5       -0.0000465768
    6    2    7    5       -0.0000045324
    6    2    8    5       -0.0000085718
    6    2    9    5        0.0000092663
    6    2   10    5       -0.0035504101
    6    2   11    5        0.0002838766
    6    2   12    5       -0.0000043179
    6    2   13    5        0.0000023068
    6    2    6    6       -0.0000000034
    6    2    7    6       -0.0002913125
    6    2    8    6       -0.0018627488
    6    2    9    6        0.0038910989
    6    2   10    6       -0.0000213003
    6    2   11    6       -0.0000391310
    6    2   12    6       -0.0031825089
    6    2   13    6        0.0024888938
    6    2    7    7        0.0000000214
    6    2    8    7       -0.0000000475
    6    2    9    7        0.0000004571
    6    2   10    7       -0.0000121185
    6    2   11    7        0.0000069874
    6    2   12    7        0.0000022665
    6    2   13    7       -0.0000003772
    6    2    8    8        0.0000000008
    6    2    9    8        0.0000000049
    6    2   10    8       -0.0000052914
    6    2   11    8        0.0000028323
    6    2   12    8       -0.0000003614
    6    2   13    8       -0.0000000716
    6    2    9    9       -0.0000003768
    6    2   10    9        0.0000340419
    6    2   11    9       -0.0000186119
    6    2   12    9       -0.0000007612
    6    2   13    9        0.0000002799
    6    2   10   10       -0.0003834107
    6    2   11   10       -0.0002494112
    6    2   12   10       -0.0000171100
    6    2   13   10        0.0000106090
    6    2   11   11        0.0003840478
    6    2   12   11        0.0000094340
    6    2   13   11       -0.0000053022
    6    2   12   12        0.0000002902
    6    2   13   12        0.0000004955
    6    2   13   13       -0.0000000325
    7    2    7    2        0.0067312994
    7    2    8    2       -0.0012011884
    7    2    9    2        0.0024040010
    7    2   10    2        0.0000028793
    7    2   11    2        0.0000054060
    7    2   12    2        0.0046361783
    7    2   13    2        0.0024360549
    7    2    3    3       -0.0032129865
    7    2    4    3        0.0000058857
    7    2    5    3       -0.0000132742
    7    2    6    3       -0.0000000026
    7    2    7    3       -0.0015887895
    7    2    8    3        0.0011245016
    7    2    9    3        0.0023602730
    7    2   10    3        0.0000071201
    7    2   11    3        0.0000132111
    7    2   12    3        0.0031722392
    7    2   13    3        0.0009090622
    7    2    4    4       -0.0014932028
    7    2    5    4       -0.0000001030
    7    2    6    4       -0.0000098518
    7    2    7    4        0.0000067717
    7    2    8    4        0.0000008463
    7    2    9    4       -0.0000027118
    7    2   10    4       -0.0012346573
    7    2   11    4        0.0016038060
    7    2   12    4        0.0000022856
    7    2   13    4        0.0000097962
    7    2    5    5       -0.0014933847
[...]
   10    7   10   10       -0.0000029065
   10    7   11   10       -0.0000097885
   10    7   12   10        0.0001723852
   10    7   13   10       -0.0000899934
   10    7   11   11        0.0000182850
   10    7   12   11       -0.0000002068
   10    7   13   11       -0.0000000935
   10    7   12   12        0.0000020728
   10    7   13   12       -0.0000039139
   10    7   13   13        0.0000055470
   11    7   11    7        0.0022848775
   11    7   12    7        0.0000032334
   11    7   13    7        0.0000034096
   11    7    8    8        0.0000175732
   11    7    9    8        0.0000018916
   11    7   10    8       -0.0000001066
   11    7   11    8       -0.0002565116
   11    7   12    8       -0.0000009213
   11    7   13    8       -0.0000002381
   11    7    9    9        0.0000280945
   11    7   10    9        0.0000004836
   11    7   11    9       -0.0007752317
   11    7   12    9       -0.0000003627
   11    7   13    9        0.0000097103
   11    7   10   10        0.0000231134
   11    7   11   10        0.0000005194
   11    7   12   10       -0.0000004016
   11    7   13   10        0.0000000688
   11    7   11   11        0.0000052657
   11    7   12   11        0.0001726782
   11    7   13   11       -0.0000906485
   11    7   12   12        0.0000048030
   11    7   13   12       -0.0000055291
   11    7   13   13        0.0000121287
   12    7   12    7        0.0099467111
   12    7   13    7        0.0016361078
   12    7    8    8        0.0018504293
   12    7    9    8        0.0001252807
   12    7   10    8       -0.0000045647
   12    7   11    8       -0.0000079891
   12    7   12    8        0.0018639605
   12    7   13    8       -0.0041690457
   12    7    9    9        0.0048693382
   12    7   10    9        0.0000259981
   12    7   11    9        0.0000460058
   12    7   12    9        0.0032141960
   12    7   13    9        0.0012976664
   12    7   10   10        0.0060807690
   12    7   11   10       -0.0000002330
   12    7   12   10       -0.0000160110
   12    7   13   10        0.0000012684
   12    7   11   11        0.0060803778
   12    7   12   11       -0.0000273945
   12    7   13   11        0.0000043242
   12    7   12   12        0.0071486666
   12    7   13   12       -0.0004596161
   12    7   13   13        0.0022755031
   13    7   13    7        0.0030826484
   13    7    8    8        0.0001518155
   13    7    9    8       -0.0002713610
   13    7   10    8       -0.0000079340
   13    7   11    8       -0.0000132461
   13    7   12    8       -0.0003092878
   13    7   13    8       -0.0000205053
   13    7    9    9        0.0016168133
   13    7   10    9        0.0000058652
   13    7   11    9        0.0000045582
   13    7   12    9        0.0000351300
   13    7   13    9        0.0037531291
   13    7   10   10        0.0029653843
   13    7   11   10       -0.0000000499
   13    7   12   10       -0.0000037185
   13    7   13   10       -0.0000071323
   13    7   11   11        0.0029644094
   13    7   12   11       -0.0000026713
   13    7   13   11       -0.0000134608
   13    7   12   12        0.0020882504
   13    7   13   12       -0.0005691104
   13    7   13   13       -0.0002999168
    8    8    8    8        0.0651789711
    8    8    9    8        0.0003826438
    8    8   10    8        0.0000073105
    8    8   11    8        0.0000135334
    8    8   12    8       -0.0009363571
    8    8   13    8       -0.0030301681
    8    8    9    9        0.0604559783
    8    8   10    9       -0.0000478340
    8    8   11    9       -0.0000881213
    8    8   12    9       -0.0009745841
    8    8   13    9       -0.0013496457
    8    8   10   10        0.0635445169
    8    8   11   10        0.0000002535
    8    8   12   10        0.0000205685
    8    8   13   10       -0.0000083104
    8    8   11   11        0.0635455705
    8    8   12   11        0.0000376789
    8    8   13   11       -0.0000161857
    8    8   12   12        0.0612298097
    8    8   13   12        0.0005385237
    8    8   13   13        0.0638090615
    9    8    9    8        0.0032398046
    9    8   10    8       -0.0000180349
    9    8   11    8       -0.0000332456
    9    8   12    8       -0.0005929455
    9    8   13    8       -0.0003108628
    9    8    9    9       -0.0013268803
    9    8   10    9        0.0000017810
    9    8   11    9        0.0000032728
    9    8   12    9        0.0003499515
    9    8   13    9        0.0007919380
    9    8   10   10       -0.0017172921
    9    8   11   10       -0.0000000081
    9    8   12   10       -0.0000016170
    9    8   13   10       -0.0000133310
    9    8   11   11       -0.0017177284
    9    8   12   11       -0.0000027022
    9    8   13   11       -0.0000236978
    9    8   12   12       -0.0005044561
    9    8   13   12       -0.0009628919
    9    8   13   13        0.0002746308
   10    8   10    8        0.0036594988
   10    8   11    8        0.0000003663
   10    8   12    8        0.0000035751
   10    8   13    8        0.0000016703
   10    8    9    9        0.0000121198
   10    8   10    9       -0.0008698927
   10    8   11    9        0.0000000158
   10    8   12    9       -0.0000031492
   10    8   13    9       -0.0000267452
   10    8   10   10       -0.0000041577
   10    8   11   10       -0.0000052821
   10    8   12   10        0.0000501111
   10    8   13   10        0.0012060534
   10    8   11   11        0.0000170633
   10    8   12   11       -0.0000001117
   10    8   13   11        0.0000003638
   10    8   12   12        0.0000094235
   10    8   13   12        0.0000126141
   10    8   13   13        0.0000100096
   11    8   11    8        0.0036600862
   11    8   12    8        0.0000061432
   11    8   13    8        0.0000016527
   11    8    9    9        0.0000223950
   11    8   10    9       -0.0000000780
   11    8   11    9       -0.0008708846
   11    8   12    9       -0.0000056747
   11    8   13    9       -0.0000488038
   11    8   10   10        0.0000158013
   11    8   11   10        0.0000056648
   11    8   12   10       -0.0000000717
   11    8   13   10        0.0000003169
   11    8   11   11        0.0000080124
   11    8   12   11        0.0000510810
   11    8   13   11        0.0012055952
   11    8   12   12        0.0000171523
   11    8   13   12        0.0000223622
   11    8   13   13        0.0000159938
   12    8   12    8        0.0022331299
   12    8   13    8       -0.0003098481
   12    8    9    9        0.0004463064
   12    8   10    9        0.0000014793
   12    8   11    9        0.0000033411
   12    8   12    9        0.0006933791
   12    8   13    9        0.0006817291
   12    8   10   10        0.0002133791
   12    8   11   10       -0.0000000363
   12    8   12   10       -0.0000012784
   12    8   13   10        0.0000027960
   12    8   11   11        0.0002133227
   12    8   12   11       -0.0000027247
   12    8   13   11        0.0000047483
   12    8   12   12        0.0017530310
   12    8   13   12       -0.0001855784
   12    8   13   13        0.0001502552
   13    8   13    8        0.0072559727
   13    8    9    9       -0.0023741964
   13    8   10    9       -0.0000317846
   13    8   11    9       -0.0000565867
   13    8   12    9       -0.0009799107
   13    8   13    9        0.0018133774
   13    8   10   10       -0.0041845658
   13    8   11   10        0.0000005069
   13    8   12   10        0.0000114496
   13    8   13   10       -0.0000012945
   13    8   11   11       -0.0041853755
   13    8   12   11        0.0000192722
   13    8   13   11       -0.0000050274
   13    8   12   12       -0.0029027845
   13    8   13   12        0.0003984810
   13    8   13   13       -0.0027109461
    9    9    9    9        0.0639923936
    9    9   10    9       -0.0000693908
    9    9   11    9       -0.0001279466
    9    9   12    9        0.0009411797
    9    9   13    9        0.0015786060
    9    9   10   10        0.0647854361
    9    9   11   10        0.0000005556
    9    9   12   10        0.0000174875
    9    9   13   10       -0.0000061417
    9    9   11   11        0.0647865846
    9    9   12   11        0.0000327711
    9    9   13   11       -0.0000098722
    9    9   12   12        0.0614346093
    9    9   13   12        0.0008500544
    9    9   13   13        0.0612156128
   10    9   10    9        0.0039215130
   10    9   11    9        0.0000004530
   10    9   12    9        0.0000131259
   10    9   13    9       -0.0000041604
   10    9   10   10        0.0000254796
   10    9   11   10        0.0000159243
   10    9   12   10       -0.0000883144
   10    9   13   10        0.0004929641
   10    9   11   11       -0.0000854040
   10    9   12   11       -0.0000002286
   10    9   13   11       -0.0000000696
   10    9   12   12       -0.0000504034
   10    9   13   12        0.0000006190
   10    9   13   13       -0.0000661269
   11    9   11    9        0.0039215562
   11    9   12    9        0.0000244828
   11    9   13    9       -0.0000070635
   11    9   10   10       -0.0000630702
   11    9   11   10       -0.0000425248
   11    9   12   10       -0.0000000805
   11    9   13   10       -0.0000000979
   11    9   11   11       -0.0000471017
   11    9   12   11       -0.0000883885
   11    9   13   11        0.0004926408
   11    9   12   12       -0.0000917698
   11    9   13   12        0.0000028092
   11    9   13   13       -0.0001220923
   12    9   12    9        0.0028963687
   12    9   13    9        0.0000971959
   12    9   10   10        0.0007235347
   12    9   11   10       -0.0000003307
   12    9   12   10       -0.0000126931
   12    9   13   10        0.0000013141
   12    9   11   11        0.0007233912
   12    9   12   11       -0.0000230100
   12    9   13   11        0.0000039025
   12    9   12   12        0.0013107414
   12    9   13   12       -0.0003154519
   12    9   13   13       -0.0007404399
   13    9   13    9        0.0091899186
   13    9   10   10        0.0024964761
   13    9   11   10       -0.0000000592
   13    9   12   10        0.0000013076
   13    9   13   10       -0.0000274212
   13    9   11   11        0.0024945994
   13    9   12   11        0.0000023486
   13    9   13   11       -0.0000497385
   13    9   12   12        0.0021578045
   13    9   13   12       -0.0019887263
   13    9   13   13       -0.0015198831
   10   10   10   10        0.0739720482
   10   10   11   10        0.0003748447
   10   10   12   10       -0.0000055883
   10   10   13   10        0.0000000151
   10   10   11   11        0.0685371417
   10   10   12   11        0.0000268514
   10   10   13   11       -0.0000128598
   10   10   12   12        0.0653236967
   10   10   13   12        0.0013442925
   10   10   13   13        0.0629925083
   11   10   11   10        0.0023850137
   11   10   12   10       -0.0000095371
   11   10   13   10        0.0000078760
   11   10   11   11       -0.0003752126
   11   10   12   11        0.0000057210
   11   10   13   11        0.0000029592
   11   10   12   12       -0.0000001744
   11   10   13   12        0.0000001454
   11   10   13   13        0.0000006847
   12   10   12   10        0.0022157533
   12   10   13   10        0.0002656296
   12   10   11   11        0.0000251866
   12   10   12   11       -0.0000007538
   12   10   13   11        0.0000000070
   12   10   12   12        0.0000318231
   12   10   13   12        0.0000006882
   12   10   13   13        0.0000272460
   13   10   13   10        0.0020328808
   13   10   11   11       -0.0000088963
   13   10   12   11        0.0000001015
   13   10   13   11        0.0000003178
   13   10   12   12       -0.0000044700
   13   10   13   12        0.0000153949
   13   10   13   13       -0.0000057467
   11   11   11   11        0.0739733902
   11   11   12   11        0.0000115303
   11   11   13   11        0.0000015361
   11   11   12   12        0.0653263161
   11   11   13   12        0.0013445924
   11   11   13   13        0.0629939790
   12   11   12   11        0.0022185704
   12   11   13   11        0.0002654177
   12   11   12   12        0.0000575657
   12   11   13   12        0.0000000314
   12   11   13   13        0.0000512374
   13   11   13   11        0.0020328155
   13   11   12   12       -0.0000101569
   13   11   13   12        0.0000268642
   13   11   13   13       -0.0000137485
   12   12   12   12        0.0719181060
   12   12   13   12        0.0006406513
   12   12   13   13        0.0620272079
   13   12   13   12        0.0031288451
   13   12   13   13        0.0005473185
   13   13   13   13        0.0657022562
 end_two_electron_integrals


 output epsi filename:./pspw_hf_LiH.emovecs

 Total PSPW energy     :  -0.7444764614E+00


=== Spin Contamination ===

 <Sexact^2> =    0.0000000000000000     
 <S^2>      =    0.0000000000000000     



== Center of Charge ==

spin up     (    0.0000,    0.0000,    1.9754 )
spin down   (    0.0000,    0.0000,    1.9754 )
     total  (    0.0000,    0.0000,    1.9754 )
ionic       (    0.0000,    0.0000,    0.7559 )


== Molecular Dipole wrt Center of Mass ==

mu   =  (   -0.0000,   -0.0000,   -2.4390 ) au
|mu| =     2.4390 au,       6.1990 Debye

 output psi filename:./pspw_hf_LiH.movecs

 Writing Crystallographic Information File:./LiH.cif
   - cell not shifted (nwpw:cif_shift_cell .false.)


== Timing ==

cputime in seconds
  prologue    :   0.893370E+02
  main loop   :   0.931709E+03
  epilogue    :   0.795844E-01
  total       :   0.102113E+04
  cputime/step:   0.711228E+01       (     131 evalulations,      59 linesearches)


Time spent doing                        total          step       percent
  total time                 :   0.102114E+04  0.779494E+01       100.0 %
  i/o time                   :   0.169930E+01  0.129717E-01         0.2 %
  FFTs                       :   0.767838E+03  0.586136E+01        75.2 %
  dot products               :   0.536176E+01  0.409295E-01         0.5 %
  geodesic                   :   0.101000E+00  0.770994E-03         0.0 %
  ffm_dgemm                  :   0.229433E-01  0.175139E-03         0.0 %
  fmf_dgemm                  :   0.417985E-01  0.319073E-03         0.0 %
  mmm_dgemm                  :   0.332857E-02  0.254089E-04         0.0 %
  m_diagonalize              :   0.140080E-02  0.106931E-04         0.0 %
  local pseudopotentials     :   0.568114E-02  0.433675E-04         0.0 %
  non-local pseudopotentials :   0.300775E+01  0.229599E-01         0.3 %
  structure factors          :   0.556277E+00  0.424639E-02         0.1 %
  phase factors              :   0.159540E-04  0.121786E-06         0.0 %
  masking and packing        :   0.202760E+02  0.154779E+00         2.0 %
  queue fft                  :   0.151475E+01  0.115630E-01         0.1 %
  queue fft (serial)         :   0.554337E+00  0.423158E-02         0.1 %
  queue fft (message passing):   0.894258E+00  0.682640E-02         0.1 %
  HFX potential              :   0.749664E+03  0.572263E+01        73.4 %
  non-local psp FFM          :   0.237438E+01  0.181251E-01         0.2 %
  non-local psp FMF          :   0.147900E+00  0.112900E-02         0.0 %
  non-local psp FFM A        :   0.314367E+00  0.239975E-02         0.0 %
  non-local psp FFM B        :   0.256215E+00  0.195584E-02         0.0 %

== HFX Counters ==
  HFX Evalulations         =   131
  Lin ACE HFX Evalulations =     0


     >>>  JOB COMPLETED     AT Sun May  4 18:24:07 2025  <<<

 Task  times  cpu:      958.0s     wall:     1021.2s


                                NWChem Input Module
                                -------------------


 Summary of allocated global arrays
-----------------------------------
  No active global arrays


MA_summarize_allocated_blocks: starting scan ...
MA_summarize_allocated_blocks: scan completed: 0 heap blocks, 0 stack blocks
MA usage statistics:

	allocation statistics:
					      heap	     stack
					      ----	     -----
	current number of blocks	         0	         0
	maximum number of blocks	       315	        19
	current total bytes		         0	         0
	maximum total bytes		 125579648	  29398984
	maximum total K-bytes		    125580	     29399
	maximum total M-bytes		       126	        30


                                     CITATION
                                     --------
                Please cite the following reference when publishing
                           results obtained with NWChem:

          E. Apra, E. J. Bylaska, W. A. de Jong, N. Govind, K. Kowalski,
       T. P. Straatsma, M. Valiev, H. J. J. van Dam, Y. Alexeev, J. Anchell,
       V. Anisimov, F. W. Aquino, R. Atta-Fynn, J. Autschbach, N. P. Bauman,
     J. C. Becca, D. E. Bernholdt, K. Bhaskaran-Nair, S. Bogatko, P. Borowski,
         J. Boschen, J. Brabec, A. Bruner, E. Cauet, Y. Chen, G. N. Chuev,
      C. J. Cramer, J. Daily, M. J. O. Deegan, T. H. Dunning Jr., M. Dupuis,
   K. G. Dyall, G. I. Fann, S. A. Fischer, A. Fonari, H. Fruchtl, L. Gagliardi,
      J. Garza, N. Gawande, S. Ghosh, K. Glaesemann, A. W. Gotz, J. Hammond,
       V. Helms, E. D. Hermes, K. Hirao, S. Hirata, M. Jacquelin, L. Jensen,
   B. G. Johnson, H. Jonsson, R. A. Kendall, M. Klemm, R. Kobayashi, V. Konkov,
      S. Krishnamoorthy, M. Krishnan, Z. Lin, R. D. Lins, R. J. Littlefield,
      A. J. Logsdail, K. Lopata, W. Ma, A. V. Marenich, J. Martin del Campo,
   D. Mejia-Rodriguez, J. E. Moore, J. M. Mullin, T. Nakajima, D. R. Nascimento,
    J. A. Nichols, P. J. Nichols, J. Nieplocha, A. Otero-de-la-Roza, B. Palmer,
    A. Panyala, T. Pirojsirikul, B. Peng, R. Peverati, J. Pittner, L. Pollack,
   R. M. Richard, P. Sadayappan, G. C. Schatz, W. A. Shelton, D. W. Silverstein,
   D. M. A. Smith, T. A. Soares, D. Song, M. Swart, H. L. Taylor, G. S. Thomas,
            V. Tipparaju, D. G. Truhlar, K. Tsemekhman, T. Van Voorhis,
      A. Vazquez-Mayagoitia, P. Verma, O. Villa, A. Vishnu, K. D. Vogiatzis,
        D. Wang, J. H. Weare, M. J. Williamson, T. L. Windus, K. Wolinski,
        A. T. Wong, Q. Wu, C. Yang, Q. Yu, M. Zacharias, Z. Zhang, Y. Zhao,
                                and R. J. Harrison
                        "NWChem: Past, present, and future
                         J. Chem. Phys. 152, 184102 (2020)
                               doi:10.1063/5.0004997

                                      AUTHORS
                                      -------
  E. Apra, E. J. Bylaska, N. Govind, K. Kowalski, M. Valiev, D. Mejia-Rodriguez,
       A. Kunitsa, N. P. Bauman, A. Panyala, W. A. de Jong, T. P. Straatsma,
   H. J. J. van Dam, D. Wang, T. L. Windus, J. Hammond, J. Autschbach, A. Woods,
    K. Bhaskaran-Nair, J. Brabec, K. Lopata, S. A. Fischer, S. Krishnamoorthy,
     M. Jacquelin, W. Ma, M. Klemm, O. Villa, Y. Chen, V. Anisimov, F. Aquino,
     S. Hirata, M. T. Hackler, E. Hermes, L. Jensen, J. E. Moore, J. C. Becca,
      V. Konjkov, T. Risthaus, M. Malagoli, A. Marenich, A. Otero-de-la-Roza,
        J. Mullin, P. Nichols, R. Peverati, J. Pittner, Y. Zhao, P.-D. Fan,
        A. Fonari, M. J. Williamson, R. J. Harrison, J. R. Rehr, M. Dupuis,
     D. Silverstein, D. M. A. Smith, J. Nieplocha, V. Tipparaju, M. Krishnan,
     B. E. Van Kuiken, A. Vazquez-Mayagoitia, M. Swart, Q. Wu, T. Van Voorhis,
     A. A. Auer, M. Nooijen, L. D. Crosby, E. Brown, G. Cisneros, G. I. Fann,
   H. Fruchtl, J. Garza, K. Hirao, R. A. Kendall, J. A. Nichols, K. Tsemekhman,
    K. Wolinski, J. Anchell, D. E. Bernholdt, P. Borowski, T. Clark, D. Clerc,
   H. Dachsel, M. J. O. Deegan, K. Dyall, D. Elwood, E. Glendening, M. Gutowski,
   A. C. Hess, J. Jaffe, B. G. Johnson, J. Ju, R. Kobayashi, R. Kutteh, Z. Lin,
   R. Littlefield, X. Long, B. Meng, T. Nakajima, S. Niu, L. Pollack, M. Rosing,
   K. Glaesemann, G. Sandrone, M. Stave, H. Taylor, G. Thomas, J. H. van Lenthe,
                               A. T. Wong, Z. Zhang.

 Total times  cpu:      958.0s     wall:     1021.2s
