 argument  1 = ../data/PW_LiH_data/3x3_aperiodic/NWChem/12nocovo/H1Li1-7.0.nw



============================== echo of input deck ==============================
title "swnc: e theory=pspw4 xc=pbe formula=LiH charge=0 mult=1"
#machinejob:expert

echo

start pspw_hf_LiH

memory heap 1200 mb stack 2400 mb global 400 mb

charge 0

geometry
Li    0.00000    0.00000   -3.50000
H     0.00000    0.00000    3.50000
end

nwpw
  ### pseudopotential block begin ###
  ### pseudopotential block end   ###
  simulation_cell
     SC 28.345889835
     boundary_conditions aperiodic
  end

  cutoff 50.0
  mult 1
  xc hf
  lmbfgs
  tolerances 1.0e-9 1.0e-9

  virtual 12
end
set nwpw:cif_filename LiH

#set nwpw:CI_maxit_orb 15
#set nwpw:CI_maxit_linesearch 15

set nwpw:2qintegrals .true.
#set nwpw:3x3_virtual .true.

task pspw energy
================================================================================


                                         
                                         


             Northwest Computational Chemistry Package (NWChem) 7.2.3
             --------------------------------------------------------


                    Environmental Molecular Sciences Laboratory
                       Pacific Northwest National Laboratory
                                Richland, WA 99352

                              Copyright (c) 1994-2022
                       Pacific Northwest National Laboratory
                            Battelle Memorial Institute

             NWChem is an open-source computational chemistry package
                        distributed under the terms of the
                      Educational Community License (ECL) 2.0
             A copy of the license is included with this distribution
                              in the LICENSE.TXT file

                                  ACKNOWLEDGMENT
                                  --------------

            This software and its documentation were developed at the
            EMSL at Pacific Northwest National Laboratory, a multiprogram
            national laboratory, operated for the U.S. Department of Energy
            by Battelle under Contract Number DE-AC05-76RL01830. Support
            for this work was provided by the Department of Energy Office
            of Biological and Environmental Research, Office of Basic
            Energy Sciences, and the Office of Advanced Scientific Computing.


           Job information
           ---------------

    hostname        = mqs-al
    program         = nwchem
    date            = Sun May  4 22:40:17 2025

    compiled        = Thu_Oct_31_08:55:15_2024
    source          = /home/conda/feedstock_root/build_artifacts/nwchem_1730356057992/work
    nwchem branch   = 7.2.3
    nwchem revision = c400b04
    ga revision     = 5.8.0
    use scalapack   = T
    input           = ../data/PW_LiH_data/3x3_aperiodic/NWChem/12nocovo/H1Li1-7.0.nw
    prefix          = pspw_hf_LiH.
    data base       = ./pspw_hf_LiH.db
    status          = startup
    nproc           =       24
    time left       =     -1s



           Memory information
           ------------------

    heap     =  157286400 doubles =   1200.0 Mbytes
    stack    =  314572797 doubles =   2400.0 Mbytes
    global   =   52428800 doubles =    400.0 Mbytes (distinct from heap & stack)
    total    =  524287997 doubles =   4000.0 Mbytes
    verify   = yes
    hardfail = no 


           Directory information
           ---------------------

  0 permanent = .
  0 scratch   = .




                                NWChem Input Module
                                -------------------


              swnc: e theory=pspw4 xc=pbe formula=LiH charge=0 mult=1
              -------------------------------------------------------

 Scaling coordinates for geometry "geometry" by  1.889725989
 (inverse scale =  0.529177249)

  zeroes
  zeroes
  zeroes
  zeroes
  zeroes
  zeroes
  zeroes
  zeroes
  zeroes
  zeroes
  zeroes
  zeroes
  zeroes
  zeroes
  zeroes
  zeroes
  zeroes
  zeroes
  zeroes
  zeroes
  zeroes
  zeroes
  zeroes
  zeroes
  zeroes
  zeroes
  zeroes
  zeroes
  zeroes
  zeroes
  zeroes
  zeroes
  zeroes
  zeroes
  zeroes
  zeroes
  zeroes
  zeroes
  zeroes
  zeroes
  zeroes
  zeroes
  zeroes
  zeroes
  zeroes
  zeroes
  zeroes
  zeroes
 ORDER OF PRIMARY AXIS IS BEING SET TO 4
 C4V symmetry detected

          ------
          auto-z
          ------
     1 autoz failed with cvr_scaling = 1.2 changing to 1.3
     2 autoz failed with cvr_scaling = 1.3 changing to 1.4
     3 autoz failed with cvr_scaling = 1.4 changing to 1.5
     4 autoz failed with cvr_scaling = 1.5 changing to 1.6
     5 autoz failed with cvr_scaling = 1.6 changing to 1.7

 AUTOZ failed to generate good internal coordinates.
 Cartesian coordinates will be used in optimizations.



                             Geometry "geometry" -> ""
                             -------------------------

 Output coordinates in angstroms (scale by  1.889725989 to convert to a.u.)

  No.       Tag          Charge          X              Y              Z
 ---- ---------------- ---------- -------------- -------------- --------------
    1 Li                   3.0000     0.00000000     0.00000000    -1.75000000
    2 H                    1.0000     0.00000000     0.00000000     5.25000000

      Atomic Mass 
      ----------- 

      Li                 7.016000
      H                  1.007825


 Effective nuclear repulsion energy (a.u.)       0.2267902496

            Nuclear Dipole moment (a.u.) 
            ----------------------------
        X                 Y               Z
 ---------------- ---------------- ----------------
     0.0000000000     0.0000000000     0.0000000000

      Symmetry information
      --------------------

 Group name             C4v       
 Group number             18
 Group order               8
 No. of unique centers     2

      Symmetry unique atoms

     1    2


            XYZ format geometry
            -------------------
     2
 geometry
 Li                    0.00000000     0.00000000    -1.75000000
 H                     0.00000000     0.00000000     5.25000000

          ****************************************************
          *                                                  *
          *               NWPW PSPW Calculation              *
          *                                                  *
          * [ (Grassmann/Stiefel manifold implementation)  ] *
          *                                                  *
          *      [ NorthWest Chemistry implementation ]      *
          *                                                  *
          *            version #5.10   06/12/02              *
          *                                                  *
          *    This code was developed by Eric J. Bylaska,   *
          *    and was based upon algorithms and code        *
          *    developed by the group of Prof. John H. Weare *
          *                                                  *
          ****************************************************
     >>>  JOB STARTED       AT Sun May  4 22:40:17 2025  <<<
          ================ input data ========================

 input psi filename:./pspw_hf_LiH.movecs

 number of processors used:        24
 processor grid           :  24 x   1
 parallel mapping         :2d-hilbert
 parallel mapping         :  balanced
 number of threads        :         1
 parallel io              :       off

 options:
      boundary conditions  = aperiodic   (version4)
      electron spin        = restricted
      exchange-correlation = Hartree-Fock
      - HFX relaxed
      - HFX restricted orbitals :    1
      - HFX free-space coulomb solver


 elements involved in the cluster:
      1: Li  valence charge:  1.0000  lmax=  1
             comment    : Hamann pseudopotential
             pseudpotential type            :   0
             highest angular component      :   1
             local potential used           :   1
             number of non-local projections:   1
             aperiodic cutoff radius        :  1.000
             semicore corrections included  :  1.000 (radius)  0.769 (charge)
             cutoff =   1.869   1.551

      2: H   valence charge:  1.0000  lmax=  1
             comment    : Parameterized (Chem.Phys.Lett., vol 322, page 447) Hamman psp
             pseudpotential type            :   0
             highest angular component      :   1
             local potential used           :   1
             number of non-local projections:   1
             aperiodic cutoff radius        :  1.000
             cutoff =   0.800   0.800


 total charge:   0.000

 atomic composition:
     Li  :    1     H   :    1

 number of electrons: spin up=     1 (   1 per task)  down=     1 (   1 per task) (Fourier space)
 number of orbitals : spin up=     1 (   1 per task)  down=     1 (   1 per task) (Fourier space)

 supercell:
      cell_name:  cell_default                                      
      lattice:    a1=<  28.346   0.000   0.000 >
                  a2=<   0.000  28.346   0.000 >
                  a3=<   0.000   0.000  28.346 >
      reciprocal: b1=<   0.222   0.000   0.000 >
                  b2=<   0.000   0.222   0.000 >
                  b3=<   0.000   0.000   0.222 >
      lattice:    a=      28.346 b=     28.346 c=      28.346
                  alpha=  90.000 beta=  90.000 gamma=  90.000
                  omega=     22775.6

      density cutoff=100.000  fft=140x140x140(   544264 waves    22677 per task)
      wavefnc cutoff= 50.000  fft=140x140x140(   192294 waves     8012 per task)

 technical parameters:
      time step=      5.80     fictitious mass=  400000.0
      tolerance=0.100E-08 (energy)   0.100E-08 (density)
      maximum iterations =      1000 (   10 inner    100 outer )





== Energy Calculation ==


          ============ Grassmann lmbfgs iteration ============
     >>>  ITERATION STARTED AT Sun May  4 22:41:47 2025  <<<
    iter.           Energy         DeltaE       DeltaRho 
    ------------------------------------------------------
      10   -0.5577200272E+00   -0.53266E-02    0.35902E-01
     -  10 steepest descent iterations performed
      20   -0.5776139847E+00   -0.71886E-03    0.38259E-03
      30   -0.5794598747E+00   -0.79008E-04    0.39896E-04
      40   -0.5798228317E+00   -0.14300E-04    0.41546E-05
      50   -0.5799160113E+00   -0.56371E-05    0.60274E-06
      60   -0.5799421316E+00   -0.16820E-05    0.13998E-06
      70   -0.5799479536E+00   -0.17139E-06    0.33668E-07
      80   -0.5799486164E+00   -0.22887E-07    0.29089E-08
      90   -0.5799487126E+00   -0.36406E-08    0.32976E-09
     100   -0.5799487248E+00   -0.89572E-09    0.20934E-10
  *** tolerance ok. iteration terminated
     >>>  ITERATION ENDED   AT Sun May  4 22:43:46 2025  <<<


==  Summary Of Results  ==

 number of electrons: spin up=    1.00000  down=    1.00000 (real space)

 total     energy    :  -0.5799487248E+00 (   -0.28997E+00/ion)
 total orbital energy:  -0.3381372308E+00 (   -0.33814E+00/electron)
 hartree   energy    :   0.6348164877E+00 (    0.63482E+00/electron)
 exc-corr  energy    :   0.0000000000E+00 (    0.00000E+00/electron)
 HF exchange energy  :  -0.3174082438E+00 (   -0.31741E+00/electron)
 ion-ion   energy    :   0.7559674986E-01 (    0.37798E-01/ion)

 kinetic (planewave) :   0.4528243252E+00 (    0.45282E+00/electron)
 V_local (planewave) :  -0.1339352953E+01 (   -0.13394E+01/electron)
 V_nl    (planewave) :  -0.8642509077E-01 (   -0.86425E-01/electron)
 V_Coul  (planewave) :   0.1269632975E+01 (    0.12696E+01/electron)
 V_xc.   (planewave) :   0.0000000000E+00 (    0.00000E+00/electron)
 K.S. HFX energy     :  -0.6348164877E+00 (   -0.63482E+00/electron)
 Virial Coefficient  :  -0.3448248241E+00

 orbital energies:
    -0.1690686E+00 (  -4.601eV)


== Virtual Orbital Calculation ==


 input epsi filename:./pspw_hf_LiH.emovecs
     orbital   1 current e=-0.894E-01 (error=0.991E-09) iterations 100(  68 preconditioned, Ep,Sp= 20.0  200.0)
     orbital   2 current e=-0.192E-01 (error=0.828E-09) iterations  97(  47 preconditioned, Ep,Sp= 20.0  200.0)
     orbital   3 current e=-0.192E-01 (error=0.827E-09) iterations  97(  47 preconditioned, Ep,Sp= 20.0  200.0)
     orbital   4 current e=-0.152E-01 (error=0.107E-06) iterations 121( 113 preconditioned, Ep,Sp= 20.0  200.0)
     orbital   4 current e=-0.152E-01 (error=0.935E-09) iterations  57(   1 preconditioned, Ep,Sp= 20.0  200.0)
     orbital   5 current e=-0.416E-02 (error=0.417E-08) iterations 121(  79 preconditioned, Ep,Sp= 20.0  200.0)
     orbital   5 current e=-0.416E-02 (error=0.892E-09) iterations  19(   1 preconditioned, Ep,Sp= 20.0  200.0)
     orbital   6 current e= 0.117E-01 (error=0.920E-09) iterations  85(  30 preconditioned, Ep,Sp= 20.0  200.0)
     orbital   7 current e= 0.233E-01 (error=0.569E-08) iterations 121(  76 preconditioned, Ep,Sp= 20.0  200.0)
     orbital   7 current e= 0.233E-01 (error=0.995E-09) iterations  21(   1 preconditioned, Ep,Sp= 20.0  200.0)
     orbital   8 current e= 0.233E-01 (error=0.569E-08) iterations 121(  76 preconditioned, Ep,Sp= 20.0  200.0)
     orbital   8 current e= 0.233E-01 (error=0.994E-09) iterations  21(   1 preconditioned, Ep,Sp= 20.0  200.0)
     orbital   9 current e= 0.236E-01 (error=0.253E-06) iterations 121( 120 preconditioned, Ep,Sp= 20.0  200.0)
     orbital   9 current e= 0.235E-01 (error=0.181E-07) iterations 121(  45 preconditioned, Ep,Sp= 20.0  200.0)
     orbital   9 current e= 0.271E-01 (error=0.332E-04) iterations 121( 120 preconditioned, Ep,Sp= 20.0  200.0)
     orbital   9 current e= 0.237E-01 (error=0.883E-05) iterations 121( 120 preconditioned, Ep,Sp= 20.0  200.0)
     orbital   9 current e= 0.235E-01 (error=0.105E-06) iterations 121( 107 preconditioned, Ep,Sp= 20.0  200.0)
     orbital   9 current e= 0.235E-01 (error=0.989E-09) iterations 114(   1 preconditioned, Ep,Sp= 20.0  200.0)
     orbital  10 current e= 0.273E-01 (error=0.309E-06) iterations 121( 120 preconditioned, Ep,Sp= 20.0  200.0)
     orbital  10 current e= 0.273E-01 (error=0.803E-08) iterations 121(   1 preconditioned, Ep,Sp= 20.0  200.0)
     orbital  10 current e= 0.277E-01 (error=0.293E-04) iterations 121( 120 preconditioned, Ep,Sp= 20.0  200.0)
     orbital  10 current e= 0.273E-01 (error=0.245E-06) iterations 121( 117 preconditioned, Ep,Sp= 20.0  200.0)
     orbital  10 current e= 0.273E-01 (error=0.543E-08) iterations 121(   1 preconditioned, Ep,Sp= 20.0  200.0)
     orbital  10 current e= 0.273E-01 (error=0.946E-09) iterations  31(   1 preconditioned, Ep,Sp= 20.0  200.0)
     orbital  11 current e= 0.299E-01 (error=0.875E-09) iterations  85(  34 preconditioned, Ep,Sp= 20.0  200.0)
     orbital  12 current e= 0.313E-01 (error=0.872E-08) iterations 121(  84 preconditioned, Ep,Sp= 20.0  200.0)
     orbital  12 current e= 0.313E-01 (error=0.996E-09) iterations  37(   1 preconditioned, Ep,Sp= 20.0  200.0)

 virtual orbital energies:
     0.3130025E-01 (   0.852eV)
     0.2988001E-01 (   0.813eV)
     0.2732981E-01 (   0.744eV)
     0.2354034E-01 (   0.641eV)
     0.2325780E-01 (   0.633eV)
     0.2325780E-01 (   0.633eV)
     0.1173525E-01 (   0.319eV)
    -0.4155467E-02 (  -0.113eV)
    -0.1520138E-01 (  -0.414eV)
    -0.1921269E-01 (  -0.523eV)
    -0.1921269E-01 (  -0.523eV)
    -0.8939791E-01 (  -2.433eV)


 == Generating One-Electron and Two-Electron Integrals ==

 begin_one_electron_integrals
    1    1        -0.4864768592
    2    1        -0.1035881626
    3    1         0.0000001170
    4    1         0.0000000209
    5    1        -0.0080902207
    6    1         0.0108323128
    7    1         0.0000000000
    8    1         0.0000002008
    9    1         0.0000000363
   10    1         0.0075549884
   11    1         0.0006332639
   12    1        -0.0000000027
   13    1         0.0231648013
    2    2        -0.3111098931
    3    2        -0.0000003054
    4    2        -0.0000000546
    5    2        -0.0275277907
    6    2         0.0039511312
    7    2         0.0000000000
    8    2         0.0000002208
    9    2         0.0000000400
   10    2         0.0096096609
   11    2        -0.0041183700
   12    2        -0.0000000013
   13    2         0.0110440949
    3    3        -0.1892127980
    4    3         0.0000000000
    5    3         0.0000004486
    6    3         0.0000020126
    7    3         0.0000002235
    8    3         0.0220999045
    9    3         0.0000389597
   10    3        -0.0000003613
   11    3         0.0000000032
   12    3        -0.0000083830
   13    3        -0.0000003975
    4    4        -0.1892127987
    5    4         0.0000000802
    6    4         0.0000003597
    7    4        -0.0000012504
    8    4        -0.0000389597
    9    4         0.0220999026
   10    4        -0.0000000648
   11    4         0.0000000006
   12    4         0.0000010424
   13    4        -0.0000000702
    5    5        -0.1906302417
    6    5         0.0199917310
    7    5         0.0000000000
    8    5         0.0000001739
    9    5         0.0000000316
   10    5         0.0221285970
   11    5         0.0043984985
   12    5        -0.0000000004
   13    5         0.0094622512
    6    6        -0.1301059333
    7    6         0.0000000000
    8    6        -0.0000006233
    9    6        -0.0000001124
   10    6         0.0051792120
   11    6        -0.0096443090
   12    6         0.0000000026
   13    6        -0.0205531175
    7    7        -0.1107097782
    8    7        -0.0000000851
    9    7         0.0000004716
   10    7         0.0000000000
   11    7         0.0000000000
   12    7         0.0000003443
   13    7        -0.0000000000
    8    8        -0.1012037009
    9    8         0.0000000000
   10    8         0.0000000539
   11    8        -0.0000001171
   12    8         0.0000021810
   13    8        -0.0000001594
    9    9        -0.1012036999
   10    9         0.0000000097
   11    9        -0.0000000212
   12    9        -0.0000002727
   13    9        -0.0000000290
   10   10        -0.1047531544
   11   10        -0.0021942648
   12   10        -0.0000000003
   13   10        -0.0016269041
   11   11        -0.0932617155
   12   11        -0.0000000009
   13   11         0.0091275379
   12   12        -0.1038295872
   13   12         0.0000000002
   13   13        -0.1042957033
 end_one_electron_integrals

 begin_two_electron_integrals
    1    1    1    1        0.3174082438
    1    1    2    1        0.1035933762
    1    1    3    1       -0.0000001171
    1    1    4    1       -0.0000000209
    1    1    5    1        0.0080949637
    1    1    6    1       -0.0108309387
    1    1    7    1       -0.0000000000
    1    1    8    1       -0.0000002006
    1    1    9    1       -0.0000000363
    1    1   10    1       -0.0075461020
    1    1   11    1       -0.0006342104
    1    1   12    1        0.0000000027
    1    1   13    1       -0.0231624147
    1    1    2    2        0.1479987927
    1    1    3    2        0.0000001894
    1    1    4    2        0.0000000339
    1    1    5    2        0.0186106865
    1    1    6    2       -0.0032970441
    1    1    7    2       -0.0000000000
    1    1    8    2       -0.0000001761
    1    1    9    2       -0.0000000319
    1    1   10    2       -0.0075773826
    1    1   11    2        0.0033101670
    1    1   12    2        0.0000000013
    1    1   13    2       -0.0104626519
    1    1    3    3        0.0880074170
    1    1    4    3       -0.0000000000
    1    1    5    3       -0.0000001994
    1    1    6    3       -0.0000008476
    1    1    7    3       -0.0000000663
    1    1    8    3       -0.0122193146
    1    1    9    3       -0.0000215413
    1    1   10    3        0.0000001165
    1    1   11    3        0.0000000252
    1    1   12    3        0.0000043660
    1    1   13    3        0.0000002356
    1    1    4    4        0.0880074174
    1    1    5    4       -0.0000000356
    1    1    6    4       -0.0000001515
    1    1    7    4        0.0000003710
    1    1    8    4        0.0000215413
    1    1    9    4       -0.0122193140
    1    1   10    4        0.0000000210
    1    1   11    4        0.0000000045
    1    1   12    4       -0.0000005413
    1    1   13    4        0.0000000417
    1    1    5    5        0.0918677308
    1    1    6    5       -0.0110459005
    1    1    7    5       -0.0000000000
    1    1    8    5       -0.0000001075
    1    1    9    5       -0.0000000195
    1    1   10    5       -0.0125738297
    1    1   11    5       -0.0022619035
    1    1   12    5        0.0000000003
    1    1   13    5       -0.0055467232
    1    1    6    6        0.0637030340
    1    1    7    6        0.0000000000
    1    1    8    6        0.0000003314
    1    1    9    6        0.0000000598
    1    1   10    6       -0.0021455048
    1    1   11    6        0.0051321211
    1    1   12    6       -0.0000000013
    1    1   13    6        0.0109959887
    1    1    7    7        0.0613267969
    1    1    8    7        0.0000000398
    1    1    9    7       -0.0000002207
    1    1   10    7        0.0000000000
    1    1   11    7       -0.0000000000
    1    1   12    7       -0.0000001758
    1    1   13    7        0.0000000000
    1    1    8    8        0.0628109744
    1    1    9    8       -0.0000000000
    1    1   10    8       -0.0000000224
    1    1   11    8        0.0000000507
    1    1   12    8       -0.0000011085
    1    1   13    8        0.0000000869
    1    1    9    9        0.0628109738
    1    1   10    9       -0.0000000040
    1    1   11    9        0.0000000092
    1    1   12    9        0.0000001466
    1    1   13    9        0.0000000158
    1    1   10   10        0.0648458466
    1    1   11   10        0.0011165427
    1    1   12   10        0.0000000001
    1    1   13   10        0.0013626883
    1    1   11   11        0.0605826775
    1    1   12   11        0.0000000004
    1    1   13   11       -0.0044552922
    1    1   12   12        0.0670992232
    1    1   13   12       -0.0000000003
    1    1   13   13        0.0691591476
    2    1    2    1        0.0742856025
    2    1    3    1        0.0000000737
    2    1    4    1        0.0000000132
    2    1    5    1        0.0096980300
    2    1    6    1       -0.0026251998
    2    1    7    1       -0.0000000000
    2    1    8    1       -0.0000001314
    2    1    9    1       -0.0000000238
    2    1   10    1       -0.0055442080
    2    1   11    1        0.0025022228
    2    1   12    1        0.0000000012
    2    1   13    1       -0.0098883140
    2    1    2    2       -0.0192640829
    2    1    3    2       -0.0000001189
    2    1    4    2       -0.0000000212
    2    1    5    2        0.0061532762
    2    1    6    2       -0.0102404335
    2    1    7    2       -0.0000000000
    2    1    8    2       -0.0000000930
    2    1    9    2       -0.0000000168
    2    1   10    2       -0.0030984477
    2    1   11    2       -0.0058226235
    2    1   12    2        0.0000000009
    2    1   13    2       -0.0093976189
    2    1    3    3       -0.0398484039
    2    1    4    3        0.0000000000
    2    1    5    3        0.0000002096
    2    1    6    3        0.0000009083
    2    1    7    3        0.0000000856
    2    1    8    3        0.0109522485
    2    1    9    3        0.0000193076
    2    1   10    3       -0.0000003579
    2    1   11    3       -0.0000001899
    2    1   12    3        0.0000012756
    2    1   13    3        0.0000001577
    2    1    4    4       -0.0398484040
    2    1    5    4        0.0000000375
    2    1    6    4        0.0000001623
    2    1    7    4       -0.0000004792
    2    1    8    4       -0.0000193076
    2    1    9    4        0.0109522479
    2    1   10    4       -0.0000000641
    2    1   11    4       -0.0000000339
    2    1   12    4       -0.0000001837
    2    1   13    4        0.0000000280
    2    1    5    5       -0.0353594235
    2    1    6    5        0.0062129193
    2    1    7    5        0.0000000000
    2    1    8    5        0.0000000301
    2    1    9    5        0.0000000055
    2    1   10    5        0.0092876538
    2    1   11    5        0.0011071525
    2    1   12    5        0.0000000003
    2    1   13    5       -0.0009892835
    2    1    6    6       -0.0125048813
    2    1    7    6       -0.0000000000
    2    1    8    6       -0.0000004312
    2    1    9    6       -0.0000000779
    2    1   10    6       -0.0039409902
    2    1   11    6       -0.0084606526
    2    1   12    6       -0.0000000007
    2    1   13    6        0.0018920844
    2    1    7    7       -0.0117468947
    2    1    8    7       -0.0000000318
    2    1    9    7        0.0000001761
    2    1   10    7        0.0000000000
    2    1   11    7       -0.0000000000
    2    1   12    7       -0.0000000119
    2    1   13    7        0.0000000000
    2    1    8    8       -0.0151040780
    2    1    9    8        0.0000000000
    2    1   10    8        0.0000001539
    2    1   11    8       -0.0000000816
    2    1   12    8        0.0000024336
    2    1   13    8        0.0000000240
    2    1    9    9       -0.0151040774
    2    1   10    9        0.0000000279
    2    1   11    9       -0.0000000147
    2    1   12    9       -0.0000003195
    2    1   13    9        0.0000000041
    2    1   10   10       -0.0096804267
    2    1   11   10       -0.0012091539
    2    1   12   10       -0.0000000000
    2    1   13   10       -0.0009679049
    2    1   11   11       -0.0074569513
    2    1   12   11        0.0000000010
    2    1   13   11       -0.0052826881
    2    1   12   12       -0.0170307382
    2    1   13   12       -0.0000000024
    2    1   13   13       -0.0014293954
    3    1    3    1        0.0060147298
    3    1    4    1        0.0000000000
    3    1    5    1        0.0000000607
    3    1    6    1        0.0000003071
    3    1    7    1        0.0000000907
    3    1    8    1       -0.0023476653
    3    1    9    1       -0.0000041387
    3    1   10    1       -0.0000001282
    3    1   11    1        0.0000000536
    3    1   12    1        0.0000003528
    3    1   13    1        0.0000000738
    3    1    2    2       -0.0000002067
    3    1    3    2       -0.0130304170
    3    1    4    2       -0.0000000000
    3    1    5    2       -0.0000001485
    3    1    6    2       -0.0000008602
    3    1    7    2       -0.0000002383
    3    1    8    2        0.0049554482
    3    1    9    2        0.0000087359
    3    1   10    2        0.0000001744
    3    1   11    2       -0.0000004068
    3    1   12    2       -0.0000002270
    3    1   13    2        0.0000003097
    3    1    3    3        0.0000002167
    3    1    4    3        0.0000000520
    3    1    5    3       -0.0008018679
    3    1    6    3        0.0013109683
    3    1    7    3        0.0012618795
    3    1    8    3        0.0000030550
    3    1    9    3        0.0000004683
    3    1   10    3       -0.0003464662
    3    1   11    3        0.0012503269
    3    1   12    3        0.0053706780
    3    1   13    3       -0.0005748269
    3    1    4    4        0.0000002416
    3    1    5    4        0.0000000000
    3    1    6    4        0.0000000001
    3    1    7    4       -0.0034179994
    3    1    8    4        0.0000005530
    3    1    9    4        0.0000031271
    3    1   10    4       -0.0000000001
    3    1   11    4       -0.0000000001
    3    1   12    4        0.0019828162
    3    1   13    4        0.0000000002
    3    1    5    5        0.0000020031
    3    1    6    5        0.0000074634
    3    1    7    5        0.0000014278
    3    1    8    5        0.0033973375
    3    1    9    5        0.0000059892
    3    1   10    5        0.0000037677
    3    1   11    5       -0.0000007047
    3    1   12    5       -0.0000032657
    3    1   13    5       -0.0000036109
    3    1    6    6        0.0000398111
    3    1    7    6        0.0000069613
    3    1    8    6        0.0027552114
    3    1    9    6        0.0000048572
    3    1   10    6       -0.0000074497
    3    1   11    6       -0.0000099286
    3    1   12    6        0.0000008821
    3    1   13    6       -0.0000135047
    3    1    7    7        0.0000510294
    3    1    8    7       -0.0001483116
    3    1    9    7        0.0003995537
    3    1   10    7       -0.0000008388
    3    1   11    7        0.0000018994
    3    1   12    7       -0.0000003451
    3    1   13    7       -0.0000002524
    3    1    8    8        0.0000221952
    3    1    9    8        0.0000039801
    3    1   10    8        0.0000419389
    3    1   11    8        0.0008219345
    3    1   12    8        0.0021860124
    3    1   13    8        0.0001730908
    3    1    9    9        0.0000248508
    3    1   10    9        0.0000000739
    3    1   11    9        0.0000014488
    3    1   12    9        0.0008114003
    3    1   13    9        0.0000003051
    3    1   10   10        0.0000400233
    3    1   11   10        0.0000021418
    3    1   12   10       -0.0000011400
    3    1   13   10       -0.0000045615
    3    1   11   11        0.0000454335
    3    1   12   11       -0.0000003685
    3    1   13   11        0.0000068100
    3    1   12   12        0.0000013317
    3    1   13   12       -0.0000001161
    3    1   13   13        0.0000422795
    4    1    4    1        0.0060147298
    4    1    5    1        0.0000000108
    4    1    6    1        0.0000000549
    4    1    7    1       -0.0000005074
    4    1    8    1        0.0000041387
    4    1    9    1       -0.0023476651
    4    1   10    1       -0.0000000229
    4    1   11    1        0.0000000096
    4    1   12    1       -0.0000000406
    4    1   13    1        0.0000000132
    4    1    2    2       -0.0000000369
    4    1    3    2       -0.0000000000
    4    1    4    2       -0.0130304171
    4    1    5    2       -0.0000000265
    4    1    6    2       -0.0000001537
    4    1    7    2        0.0000013333
    4    1    8    2       -0.0000087359
    4    1    9    2        0.0049554479
    4    1   10    2        0.0000000311
    4    1   11    2       -0.0000000727
    4    1   12    2        0.0000000197
    4    1   13    2        0.0000000554
    4    1    3    3        0.0000001450
    4    1    4    3       -0.0000002786
    4    1    5    3        0.0000000000
    4    1    6    3        0.0000000001
    4    1    7    3       -0.0034180000
    4    1    8    3        0.0000015748
    4    1    9    3       -0.0000025333
    4    1   10    3       -0.0000000001
    4    1   11    3       -0.0000000001
    4    1   12    3        0.0019828170
    4    1   13    3        0.0000000002
    4    1    4    4       -0.0000000631
    4    1    5    4       -0.0008018681
    4    1    6    4        0.0013109676
    4    1    7    4       -0.0012618796
    4    1    8    4       -0.0000028367
    4    1    9    4       -0.0000004289
    4    1   10    4       -0.0003464659
    4    1   11    4        0.0012503277
    4    1   12    4       -0.0053706778
    4    1   13    4       -0.0005748279
    4    1    5    5        0.0000003579
    4    1    6    5        0.0000013337
    4    1    7    5       -0.0000079898
    4    1    8    5       -0.0000059891
    4    1    9    5        0.0033973374
    4    1   10    5        0.0000006732
    4    1   11    5       -0.0000001259
    4    1   12    5        0.0000003932
    4    1   13    5       -0.0000006449
    4    1    6    6        0.0000071142
    4    1    7    6       -0.0000389552
    4    1    8    6       -0.0000048571
    4    1    9    6        0.0027552111
    4    1   10    6       -0.0000013313
    4    1   11    6       -0.0000017742
    4    1   12    6       -0.0000001443
    4    1   13    6       -0.0000024134
    4    1    7    7        0.0000091189
    4    1    8    7        0.0003995532
    4    1    9    7        0.0001483115
    4    1   10    7        0.0000046940
    4    1   11    7       -0.0000106290
    4    1   12    7        0.0000006011
    4    1   13    7        0.0000014121
    4    1    8    8        0.0000124670
    4    1    9    8       -0.0000220698
    4    1   10    8       -0.0000000740
    4    1   11    8       -0.0000014491
    4    1   12    8        0.0008114059
    4    1   13    8       -0.0000003051
    4    1    9    9       -0.0000040259
    4    1   10    9        0.0000419391
    4    1   11    9        0.0008219353
    4    1   12    9       -0.0021860124
    4    1   13    9        0.0001730908
    4    1   10   10        0.0000071521
    4    1   11   10        0.0000003827
    4    1   12   10        0.0000001325
    4    1   13   10       -0.0000008150
    4    1   11   11        0.0000081189
    4    1   12   11        0.0000000488
    4    1   13   11        0.0000012170
    4    1   12   12        0.0000007067
    4    1   13   12        0.0000000070
    4    1   13   13        0.0000075553
    5    1    5    1        0.0083066006
    5    1    6    1       -0.0020837116
    5    1    7    1       -0.0000000000
    5    1    8    1       -0.0000000411
    5    1    9    1       -0.0000000075
    5    1   10    1       -0.0030213358
    5    1   11    1       -0.0001256540
    5    1   12    1        0.0000000001
    5    1   13    1       -0.0016262643
    5    1    2    2       -0.0044632486
    5    1    3    2       -0.0000000941
    5    1    4    2       -0.0000000168
    5    1    5    2       -0.0118172815
    5    1    6    2        0.0021635470
    5    1    7    2        0.0000000000
    5    1    8    2        0.0000000347
    5    1    9    2        0.0000000063
    5    1   10    2        0.0041216786
    5    1   11    2        0.0004566470
    5    1   12    2        0.0000000002
    5    1   13    2       -0.0005331736
    5    1    3    3       -0.0073255985
    5    1    4    3        0.0000000000
    5    1    5    3        0.0000000852
    5    1    6    3        0.0000003235
    5    1    7    3        0.0000000317
    5    1    8    3        0.0046232246
    5    1    9    3        0.0000081503
    5    1   10    3       -0.0000000206
    5    1   11    3        0.0000001049
    5    1   12    3       -0.0000031221
    5    1   13    3       -0.0000000156
    5    1    4    4       -0.0073255987
    5    1    5    4        0.0000000152
    5    1    6    4        0.0000000578
    5    1    7    4       -0.0000001775
    5    1    8    4       -0.0000081502
    5    1    9    4        0.0046232244
    5    1   10    4       -0.0000000037
    5    1   11    4        0.0000000188
    5    1   12    4        0.0000004252
    5    1   13    4       -0.0000000025
    5    1    5    5       -0.0078667811
    5    1    6    5        0.0011789800
    5    1    7    5        0.0000000000
    5    1    8    5        0.0000001362
    5    1    9    5        0.0000000246
    5    1   10    5        0.0047728220
    5    1   11    5       -0.0001593323
    5    1   12    5       -0.0000000002
    5    1   13    5        0.0025796733
    5    1    6    6       -0.0010326147
    5    1    7    6        0.0000000000
    5    1    8    6        0.0000001436
    5    1    9    6        0.0000000259
    5    1   10    6        0.0014684671
    5    1   11    6       -0.0000357839
    5    1   12    6        0.0000000003
    5    1   13    6       -0.0008139852
    5    1    7    7       -0.0010994411
    5    1    8    7        0.0000000022
    5    1    9    7       -0.0000000123
    5    1   10    7       -0.0000000000
    5    1   11    7        0.0000000000
    5    1   12    7        0.0000000550
    5    1   13    7       -0.0000000000
    5    1    8    8       -0.0020608558
    5    1    9    8        0.0000000000
    5    1   10    8        0.0000000925
    5    1   11    8       -0.0000000247
    5    1   12    8        0.0000001425
    5    1   13    8       -0.0000000630
    5    1    9    9       -0.0020608558
    5    1   10    9        0.0000000167
    5    1   11    9       -0.0000000044
    5    1   12    9        0.0000000677
    5    1   13    9       -0.0000000114
    5    1   10   10       -0.0031052313
    5    1   11   10        0.0006631934
    5    1   12   10       -0.0000000003
    5    1   13   10        0.0006437918
    5    1   11   11       -0.0009023716
    5    1   12   11       -0.0000000001
    5    1   13   11        0.0003439659
    5    1   12   12       -0.0016174041
    5    1   13   12       -0.0000000001
    5    1   13   13       -0.0008400816
    6    1    6    1        0.0014556015
    6    1    7    1        0.0000000000
    6    1    8    1        0.0000000400
    6    1    9    1        0.0000000072
    6    1   10    1        0.0008929454
    6    1   11    1        0.0006173068
    6    1   12    1       -0.0000000001
    6    1   13    1        0.0014341713
    6    1    2    2       -0.0078458683
    6    1    3    2       -0.0000006276
    6    1    4    2       -0.0000001121
    6    1    5    2        0.0027599635
    6    1    6    2       -0.0020633222
    6    1    7    2       -0.0000000000
    6    1    8    2       -0.0000000341
    6    1    9    2       -0.0000000062
    6    1   10    2       -0.0009948262
    6    1   11    2       -0.0016310051
    6    1   12    2       -0.0000000001
    6    1   13    2       -0.0003036113
    6    1    3    3       -0.0032774632
    6    1    4    3        0.0000000001
    6    1    5    3        0.0000002771
    6    1    6    3        0.0000010749
    6    1    7    3        0.0000001721
    6    1    8    3        0.0011363053
    6    1    9    3        0.0000020032
    6    1   10    3       -0.0000002481
    6    1   11    3        0.0000005791
    6    1   12    3        0.0000016796
    6    1   13    3        0.0000000738
    6    1    4    4       -0.0032774636
    6    1    5    4        0.0000000495
    6    1    6    4        0.0000001921
    6    1    7    4       -0.0000009629
    6    1    8    4       -0.0000020031
    6    1    9    4        0.0011363048
    6    1   10    4       -0.0000000443
    6    1   11    4        0.0000001035
    6    1   12    4        0.0000000750
    6    1   13    4        0.0000000131
    6    1    5    5       -0.0032304424
    6    1    6    5        0.0013111304
    6    1    7    5       -0.0000000000
    6    1    8    5        0.0000006754
    6    1    9    5        0.0000001219
    6    1   10    5        0.0008786631
    6    1   11    5        0.0006618354
    6    1   12    5       -0.0000000003
    6    1   13    5       -0.0003133685
    6    1    6    6       -0.0007150172
    6    1    7    6        0.0000000000
    6    1    8    6        0.0000014156
    6    1    9    6        0.0000002555
    6    1   10    6       -0.0010190698
    6    1   11    6       -0.0007482883
    6    1   12    6        0.0000000009
    6    1   13    6       -0.0003403744
    6    1    7    7        0.0001274241
    6    1    8    7        0.0000000513
    6    1    9    7       -0.0000002843
    6    1   10    7        0.0000000000
    6    1   11    7        0.0000000000
    6    1   12    7       -0.0000000106
    6    1   13    7        0.0000000000
    6    1    8    8       -0.0006577425
    6    1    9    8        0.0000000003
    6    1   10    8        0.0000002984
    6    1   11    8       -0.0000002722
    6    1   12    8        0.0000019336
    6    1   13    8       -0.0000003763
    6    1    9    9       -0.0006577439
    6    1   10    9        0.0000000539
    6    1   11    9       -0.0000000492
    6    1   12    9        0.0000002702
    6    1   13    9       -0.0000000680
    6    1   10   10       -0.0001483849
    6    1   11   10       -0.0004667497
    6    1   12   10       -0.0000000010
    6    1   13   10       -0.0004306285
    6    1   11   11       -0.0004344382
    6    1   12   11       -0.0000000004
    6    1   13   11       -0.0003467680
    6    1   12   12       -0.0002420874
    6    1   13   12       -0.0000000004
    6    1   13   13       -0.0002439676
    7    1    7    1        0.0002085689
    7    1    8    1       -0.0000000052
    7    1    9    1        0.0000000286
    7    1   10    1        0.0000000000
    7    1   11    1       -0.0000000000
    7    1   12    1       -0.0000000022
    7    1   13    1        0.0000000000
    7    1    2    2        0.0000000000
    7    1    3    2       -0.0000001884
    7    1    4    2        0.0000010542
    7    1    5    2        0.0000000000
    7    1    6    2        0.0000000000
    7    1    7    2       -0.0004544565
    7    1    8    2        0.0000000164
    7    1    9    2       -0.0000000910
    7    1   10    2       -0.0000000000
    7    1   11    2        0.0000000000
    7    1   12    2        0.0000000041
    7    1   13    2        0.0000000000
    7    1    3    3        0.0004207405
    7    1    4    3       -0.0011396421
    7    1    5    3        0.0000000501
    7    1    6    3        0.0000002163
    7    1    7    3        0.0000012552
    7    1    8    3       -0.0001225412
    7    1    9    3        0.0003301294
    7    1   10    3       -0.0000000405
    7    1   11    3        0.0000001424
    7    1   12    3       -0.0000002743
    7    1   13    3        0.0000000148
    7    1    4    4       -0.0004207405
    7    1    5    4       -0.0000002804
    7    1    6    4       -0.0000012106
    7    1    7    4        0.0000002243
    7    1    8    4        0.0003301295
    7    1    9    4        0.0001225412
    7    1   10    4        0.0000002269
    7    1   11    4       -0.0000007969
    7    1   12    4        0.0000013599
    7    1   13    4       -0.0000000826
    7    1    5    5        0.0000000000
    7    1    6    5       -0.0000000000
    7    1    7    5        0.0002522516
    7    1    8    5        0.0000001627
    7    1    9    5       -0.0000009011
    7    1   10    5       -0.0000000000
    7    1   11    5        0.0000000000
    7    1   12    5        0.0000000073
    7    1   13    5       -0.0000000000
    7    1    6    6        0.0000000000
    7    1    7    6        0.0008587779
    7    1    8    6        0.0000003253
    7    1    9    6       -0.0000018020
    7    1   10    6       -0.0000000000
    7    1   11    6        0.0000000000
    7    1   12    6       -0.0000000045
    7    1   13    6        0.0000000000
    7    1    7    7       -0.0000000000
    7    1    8    7        0.0000004298
    7    1    9    7        0.0000000776
    7    1   10    7       -0.0001251489
    7    1   11    7        0.0006887173
    7    1   12    7       -0.0000000004
    7    1   13    7        0.0001510879
    7    1    8    8        0.0000127728
    7    1    9    8       -0.0000342260
    7    1   10    8        0.0000000681
    7    1   11    8       -0.0000000355
    7    1   12    8       -0.0000004841
    7    1   13    8       -0.0000000685
    7    1    9    9       -0.0000127728
    7    1   10    9       -0.0000003772
    7    1   11    9        0.0000001969
    7    1   12    9        0.0000022753
    7    1   13    9        0.0000003792
    7    1   10   10        0.0000000000
    7    1   11   10       -0.0000000000
    7    1   12   10        0.0000000134
    7    1   13   10       -0.0000000000
    7    1   11   11        0.0000000000
    7    1   12   11       -0.0000000031
    7    1   13   11       -0.0000000000
    7    1   12   12       -0.0000000002
    7    1   13   12       -0.0000000020
    7    1   13   13       -0.0000000000
    8    1    8    1        0.0011604486
    8    1    9    1        0.0000000000
    8    1   10    1        0.0000000336
    8    1   11    1       -0.0000000098
    8    1   12    1       -0.0000001916
    8    1   13    1        0.0000000217
    8    1    2    2       -0.0000000161
    8    1    3    2        0.0050189048
    8    1    4    2       -0.0000088478
    8    1    5    2        0.0000000322
    8    1    6    2       -0.0000000321
    8    1    7    2        0.0000000163
    8    1    8    2       -0.0023380959
    8    1    9    2       -0.0000000000
    8    1   10    2       -0.0000000312
    8    1   11    2        0.0000000449
    8    1   12    2        0.0000001800
    8    1   13    2       -0.0000000165
    8    1    3    3        0.0000002769
    8    1    4    3        0.0000000855
    8    1    5    3        0.0013093236
    8    1    6    3        0.0000057354
    8    1    7    3       -0.0003495880
    8    1    8    3       -0.0000001020
    8    1    9    3        0.0000000321
    8    1   10    3       -0.0000616533
    8    1   11    3        0.0000280527
    8    1   12    3       -0.0012919455
    8    1   13    3        0.0003698080
    8    1    4    4       -0.0000002411
    8    1    5    4       -0.0000023082
    8    1    6    4       -0.0000000100
    8    1    7    4        0.0009418008
    8    1    8    4        0.0000000256
    8    1    9    4       -0.0000004706
    8    1   10    4        0.0000001087
    8    1   11    4       -0.0000000495
    8    1   12    4       -0.0004795734
    8    1   13    4       -0.0000006521
    8    1    5    5       -0.0000000818
    8    1    6    5       -0.0000004784
    8    1    7    5       -0.0000000965
    8    1    8    5       -0.0009776180
    8    1    9    5        0.0000000002
    8    1   10    5       -0.0000000587
    8    1   11    5       -0.0000001608
    8    1   12    5        0.0000009524
    8    1   13    5        0.0000002861
    8    1    6    6       -0.0000034105
    8    1    7    6       -0.0000006812
    8    1    8    6       -0.0002007635
    8    1    9    6        0.0000000013
    8    1   10    6        0.0000021475
    8    1   11    6       -0.0000002927
    8    1   12    6        0.0000003711
    8    1   13    6        0.0000006901
    8    1    7    7       -0.0000051006
    8    1    8    7        0.0000857270
    8    1    9    7       -0.0002297068
    8    1   10    7        0.0000003698
    8    1   11    7       -0.0000003059
    8    1   12    7       -0.0000000667
    8    1   13    7        0.0000000104
    8    1    8    8       -0.0000008858
    8    1    9    8       -0.0000000463
    8    1   10    8        0.0004074088
    8    1   11    8       -0.0002799864
    8    1   12    8        0.0001894453
    8    1   13    8       -0.0001089557
    8    1    9    9       -0.0000023680
    8    1   10    9       -0.0000000001
    8    1   11    9       -0.0000000011
    8    1   12    9        0.0000707072
    8    1   13    9       -0.0000000010
    8    1   10   10       -0.0000033727
    8    1   11   10       -0.0000006366
    8    1   12   10       -0.0000001734
    8    1   13   10        0.0000005747
    8    1   11   11       -0.0000026730
    8    1   12   11       -0.0000000180
    8    1   13   11       -0.0000001585
    8    1   12   12       -0.0000006273
    8    1   13   12       -0.0000003830
    8    1   13   13       -0.0000027368
    9    1    9    1        0.0011604484
    9    1   10    1        0.0000000061
    9    1   11    1       -0.0000000018
    9    1   12    1        0.0000000402
    9    1   13    1        0.0000000040
    9    1    2    2       -0.0000000029
    9    1    3    2        0.0000088478
    9    1    4    2        0.0050189045
    9    1    5    2        0.0000000059
    9    1    6    2       -0.0000000058
    9    1    7    2       -0.0000000904
    9    1    8    2       -0.0000000000
    9    1    9    2       -0.0023380956
    9    1   10    2       -0.0000000056
    9    1   11    2        0.0000000081
    9    1   12    2       -0.0000000574
    9    1   13    2       -0.0000000030
    9    1    3    3        0.0000000176
    9    1    4    3        0.0000000611
    9    1    5    3        0.0000023082
    9    1    6    3        0.0000000102
    9    1    7    3        0.0009418002
    9    1    8    3       -0.0000001021
    9    1    9    3        0.0000002391
    9    1   10    3       -0.0000001087
    9    1   11    3        0.0000000494
    9    1   12    3       -0.0004795734
    9    1   13    3        0.0000006518
    9    1    4    4       -0.0000000111
    9    1    5    4        0.0013093234
    9    1    6    4        0.0000057347
    9    1    7    4        0.0003495880
    9    1    8    4        0.0000002252
    9    1    9    4       -0.0000000113
    9    1   10    4       -0.0000616532
    9    1   11    4        0.0000280532
    9    1   12    4        0.0012919454
    9    1   13    4        0.0003698089
    9    1    5    5       -0.0000000147
    9    1    6    5       -0.0000000864
    9    1    7    5        0.0000005346
    9    1    8    5        0.0000000002
    9    1    9    5       -0.0009776192
    9    1   10    5       -0.0000000106
    9    1   11    5       -0.0000000290
    9    1   12    5       -0.0000000625
    9    1   13    5        0.0000000516
    9    1    6    6       -0.0000006157
    9    1    7    6        0.0000037736
    9    1    8    6        0.0000000013
    9    1    9    6       -0.0002007704
    9    1   10    6        0.0000003877
    9    1   11    6       -0.0000000528
    9    1   12    6        0.0000001611
    9    1   13    6        0.0000001246
    9    1    7    7       -0.0000009207
    9    1    8    7       -0.0002297112
    9    1    9    7       -0.0000857271
    9    1   10    7       -0.0000020484
    9    1   11    7        0.0000016946
    9    1   12    7        0.0000002720
    9    1   13    7       -0.0000000574
    9    1    8    8       -0.0000007692
    9    1    9    8        0.0000016020
    9    1   10    8       -0.0000000001
    9    1   11    8       -0.0000000011
    9    1   12    8        0.0000707066
    9    1   13    8       -0.0000000010
    9    1    9    9        0.0000001848
    9    1   10    9        0.0004074092
    9    1   11    9       -0.0002799806
    9    1   12    9       -0.0001894453
    9    1   13    9       -0.0001089503
    9    1   10   10       -0.0000006088
    9    1   11   10       -0.0000001149
    9    1   12   10       -0.0000000059
    9    1   13   10        0.0000001037
    9    1   11   11       -0.0000004825
    9    1   12   11        0.0000000163
    9    1   13   11       -0.0000000286
    9    1   12   12       -0.0000003309
    9    1   13   12       -0.0000000135
    9    1   13   13       -0.0000004940
   10    1   10    1        0.0013981951
   10    1   11    1        0.0000441576
   10    1   12    1       -0.0000000002
   10    1   13    1        0.0010996192
   10    1    2    2        0.0002953344
   10    1    3    2        0.0000002282
   10    1    4    2        0.0000000407
   10    1    5    2        0.0038155358
   10    1    6    2       -0.0006357919
   10    1    7    2       -0.0000000000
   10    1    8    2       -0.0000000486
   10    1    9    2       -0.0000000088
   10    1   10    2       -0.0015598961
   10    1   11    2       -0.0001836241
   10    1   12    2        0.0000000000
   10    1   13    2        0.0002866605
   10    1    3    3        0.0021723296
   10    1    4    3       -0.0000000000
   10    1    5    3        0.0000000678
   10    1    6    3       -0.0000004108
   10    1    7    3       -0.0000000545
   10    1    8    3       -0.0012422746
   10    1    9    3       -0.0000021900
   10    1   10    3        0.0000002383
   10    1   11    3       -0.0000001907
   10    1   12    3        0.0000003278
   10    1   13    3       -0.0000000553
   10    1    4    4        0.0021723298
   10    1    5    4        0.0000000121
   10    1    6    4       -0.0000000734
   10    1    7    4        0.0000003049
   10    1    8    4        0.0000021900
   10    1    9    4       -0.0012422744
   10    1   10    4        0.0000000426
   10    1   11    4       -0.0000000341
   10    1   12    4       -0.0000001365
   10    1   13    4       -0.0000000099
   10    1    5    5        0.0036065530
   10    1    6    5       -0.0001646221
   10    1    7    5       -0.0000000000
   10    1    8    5       -0.0000001229
   10    1    9    5       -0.0000000222
   10    1   10    5       -0.0016031518
   10    1   11    5        0.0003414936
   10    1   12    5        0.0000000001
   10    1   13    5       -0.0002978534
   10    1    6    6        0.0000781921
   10    1    7    6       -0.0000000000
   10    1    8    6       -0.0000003151
   10    1    9    6       -0.0000000569
   10    1   10    6        0.0001335194
   10    1   11    6       -0.0000001839
   10    1   12    6       -0.0000000007
   10    1   13    6        0.0000010452
   10    1    7    7        0.0002902531
   10    1    8    7        0.0000000089
   10    1    9    7       -0.0000000493
   10    1   10    7        0.0000000000
   10    1   11    7       -0.0000000000
   10    1   12    7       -0.0000000006
   10    1   13    7       -0.0000000000
   10    1    8    8        0.0009462810
   10    1    9    8       -0.0000000001
   10    1   10    8        0.0000002184
   10    1   11    8        0.0000001451
   10    1   12    8       -0.0000007684
   10    1   13    8        0.0000000861
   10    1    9    9        0.0009462815
   10    1   10    9        0.0000000394
   10    1   11    9        0.0000000262
   10    1   12    9       -0.0000000337
   10    1   13    9        0.0000000156
   10    1   10   10        0.0009473634
   10    1   11   10       -0.0002302512
   10    1   12   10        0.0000000006
   10    1   13   10        0.0000526014
   10    1   11   11        0.0000051601
   10    1   12   11        0.0000000001
   10    1   13   11        0.0001274282
   10    1   12   12        0.0004566431
   10    1   13   12        0.0000000000
   10    1   13   13       -0.0000110704
   11    1   11    1        0.0005738310
   11    1   12    1       -0.0000000001
   11    1   13    1        0.0002228384
   11    1    2    2       -0.0052834646
   11    1    3    2       -0.0000001417
   11    1    4    2       -0.0000000253
   11    1    5    2        0.0009773769
   11    1    6    2       -0.0016972479
   11    1    7    2        0.0000000000
   11    1    8    2       -0.0000000118
   11    1    9    2       -0.0000000021
   11    1   10    2       -0.0004473718
   11    1   11    2       -0.0014118442
   11    1   12    2        0.0000000003
   11    1   13    2       -0.0007442178
   11    1    3    3       -0.0032218125
   11    1    4    3       -0.0000000001
   11    1    5    3        0.0000001168
   11    1    6    3        0.0000002022
   11    1    7    3        0.0000000474
   11    1    8    3        0.0015350174
   11    1    9    3        0.0000027059
   11    1   10    3       -0.0000000405
   11    1   11    3        0.0000001660
   11    1   12    3        0.0000002021
   11    1   13    3       -0.0000000184
   11    1    4    4       -0.0032218117
   11    1    5    4        0.0000000209
   11    1    6    4        0.0000000361
   11    1    7    4       -0.0000002651
   11    1    8    4       -0.0000027062
   11    1    9    4        0.0015350181
   11    1   10    4       -0.0000000073
   11    1   11    4        0.0000000297
   11    1   12    4       -0.0000000036
   11    1   13    4       -0.0000000033
   11    1    5    5       -0.0033572526
   11    1    6    5        0.0012312119
   11    1    7    5        0.0000000000
   11    1    8    5        0.0000000649
   11    1    9    5        0.0000000117
   11    1   10    5        0.0013556142
   11    1   11    5        0.0006118587
   11    1   12    5       -0.0000000003
   11    1   13    5        0.0001027123
   11    1    6    6       -0.0006505788
   11    1    7    6       -0.0000000000
   11    1    8    6       -0.0000000667
   11    1    9    6       -0.0000000121
   11    1   10    6       -0.0006047818
   11    1   11    6       -0.0004952474
   11    1   12    6       -0.0000000014
   11    1   13    6       -0.0003652499
   11    1    7    7        0.0001911545
   11    1    8    7        0.0000000216
   11    1    9    7       -0.0000001194
   11    1   10    7       -0.0000000000
   11    1   11    7       -0.0000000000
   11    1   12    7       -0.0000000011
   11    1   13    7       -0.0000000000
   11    1    8    8       -0.0007053458
   11    1    9    8       -0.0000000005
   11    1   10    8        0.0000000941
   11    1   11    8        0.0000002377
   11    1   12    8        0.0000002132
   11    1   13    8       -0.0000000551
   11    1    9    9       -0.0007053432
   11    1   10    9        0.0000000170
   11    1   11    9        0.0000000429
   11    1   12    9        0.0000000038
   11    1   13    9       -0.0000000100
   11    1   10   10       -0.0005241017
   11    1   11   10       -0.0003489567
   11    1   12   10        0.0000000003
   11    1   13   10       -0.0001816268
   11    1   11   11       -0.0004565533
   11    1   12   11        0.0000000002
   11    1   13   11       -0.0002043604
   11    1   12   12       -0.0001020866
   11    1   13   12        0.0000000003
   11    1   13   13       -0.0002206577
   12    1   12    1        0.0004888523
   12    1   13    1       -0.0000000003
   12    1    2    2        0.0000000008
   12    1    3    2       -0.0000005342
   12    1    4    2        0.0000000573
   12    1    5    2        0.0000000001
   12    1    6    2       -0.0000000003
   12    1    7    2        0.0000000044
   12    1    8    2        0.0000002597
   12    1    9    2       -0.0000000783
   12    1   10    2        0.0000000001
   12    1   11    2        0.0000000004
   12    1   12    2       -0.0010721162
   12    1   13    2        0.0000000000
   12    1    3    3        0.0018729221
   12    1    4    3        0.0006914719
   12    1    5    3       -0.0000011427
   12    1    6    3        0.0000010536
   12    1    7    3       -0.0000000876
   12    1    8    3       -0.0000282700
   12    1    9    3       -0.0000104999
   12    1   10    3       -0.0000001314
   12    1   11    3       -0.0000002712
   12    1   12    3        0.0000003817
   12    1   13    3       -0.0000004931
   12    1    4    4       -0.0018729218
   12    1    5    4        0.0000001777
   12    1    6    4        0.0000000874
   12    1    7    4        0.0000005513
   12    1    8    4       -0.0000104999
   12    1    9    4        0.0000282701
   12    1   10    4       -0.0000000413
   12    1   11    4       -0.0000000661
   12    1   12    4        0.0000001860
   12    1   13    4       -0.0000000945
   12    1    5    5        0.0000000007
   12    1    6    5        0.0000000036
   12    1    7    5        0.0000000027
   12    1    8    5        0.0000014521
   12    1    9    5        0.0000001932
   12    1   10    5        0.0000000004
   12    1   11    5       -0.0000000067
   12    1   12    5        0.0003646652
   12    1   13    5       -0.0000000061
   12    1    6    6        0.0000000272
   12    1    7    6       -0.0000000065
   12    1    8    6        0.0000062846
   12    1    9    6        0.0000011568
   12    1   10    6       -0.0000000104
   12    1   11    6       -0.0000000468
   12    1   12    6        0.0011713328
   12    1   13    6       -0.0000000351
   12    1    7    7        0.0000000013
   12    1    8    7       -0.0000009699
   12    1    9    7        0.0000050116
   12    1   10    7        0.0000000056
   12    1   11    7       -0.0000000050
   12    1   12    7       -0.0000000005
   12    1   13    7       -0.0000000012
   12    1    8    8        0.0009921978
   12    1    9    8        0.0003702881
   12    1   10    8       -0.0000010229
   12    1   11    8       -0.0000035649
   12    1   12    8       -0.0000002876
   12    1   13    8       -0.0000042634
   12    1    9    9       -0.0009921966
   12    1   10    9       -0.0000000497
   12    1   11    9       -0.0000005998
   12    1   12    9       -0.0000001493
   12    1   13    9       -0.0000007259
   12    1   10   10        0.0000000347
   12    1   11   10        0.0000000133
   12    1   12   10       -0.0002372029
   12    1   13   10        0.0000000004
   12    1   11   11        0.0000000962
   12    1   12   11        0.0006602832
   12    1   13   11        0.0000000474
   12    1   12   12        0.0000000011
   12    1   13   12       -0.0001354332
   12    1   13   13        0.0000000755
   13    1   13    1        0.0027223371
   13    1    2    2       -0.0076983898
   13    1    3    2       -0.0000001022
   13    1    4    2       -0.0000000182
   13    1    5    2       -0.0005079697
   13    1    6    2       -0.0002235005
   13    1    7    2        0.0000000000
   13    1    8    2        0.0000000542
   13    1    9    2        0.0000000097
   13    1   10    2        0.0001892334
   13    1   11    2       -0.0006915092
   13    1   12    2       -0.0000000001
   13    1   13    2        0.0006737191
   13    1    3    3       -0.0016011315
   13    1    4    3        0.0000000000
   13    1    5    3       -0.0000000791
   13    1    6    3        0.0000001468
   13    1    7    3        0.0000000209
   13    1    8    3        0.0009298514
   13    1    9    3        0.0000016391
   13    1   10    3       -0.0000001031
   13    1   11    3        0.0000000304
   13    1   12    3       -0.0000000384
   13    1   13    3        0.0000001156
   13    1    4    4       -0.0016011316
   13    1    5    4       -0.0000000140
   13    1    6    4        0.0000000262
   13    1    7    4       -0.0000001169
   13    1    8    4       -0.0000016393
   13    1    9    4        0.0009298519
   13    1   10    4       -0.0000000184
   13    1   11    4        0.0000000054
   13    1   12    4        0.0000000240
   13    1   13    4        0.0000000207
   13    1    5    5       -0.0004349232
   13    1    6    5        0.0004868648
   13    1    7    5        0.0000000000
   13    1    8    5        0.0000000236
   13    1    9    5        0.0000000043
   13    1   10    5        0.0006058453
   13    1   11    5        0.0003171115
   13    1   12    5       -0.0000000003
   13    1   13    5        0.0004994925
   13    1    6    6       -0.0002120026
   13    1    7    6        0.0000000000
   13    1    8    6       -0.0000000280
   13    1    9    6       -0.0000000051
   13    1   10    6       -0.0001414382
   13    1   11    6       -0.0001999225
   13    1   12    6       -0.0000000005
   13    1   13    6       -0.0003267512
   13    1    7    7        0.0002241798
   13    1    8    7       -0.0000000034
   13    1    9    7        0.0000000188
   13    1   10    7       -0.0000000000
   13    1   11    7       -0.0000000000
   13    1   12    7        0.0000000039
   13    1   13    7        0.0000000000
   13    1    8    8       -0.0001253996
   13    1    9    8       -0.0000000003
   13    1   10    8       -0.0000000770
   13    1   11    8       -0.0000001274
   13    1   12    8       -0.0000001346
   13    1   13    8        0.0000002374
   13    1    9    9       -0.0001253980
   13    1   10    9       -0.0000000138
   13    1   11    9       -0.0000000230
   13    1   12    9        0.0000000181
   13    1   13    9        0.0000000429
   13    1   10   10        0.0000069440
   13    1   11   10       -0.0000733045
   13    1   12   10       -0.0000000001
   13    1   13   10       -0.0001747311
   13    1   11   11       -0.0001998703
   13    1   12   11        0.0000000001
   13    1   13   11        0.0000631923
   13    1   12   12        0.0000532328
   13    1   13   12        0.0000000006
   13    1   13   13       -0.0002631832
    2    2    2    2        0.1839472487
    2    2    3    2        0.0000003263
    2    2    4    2        0.0000000583
    2    2    5    2        0.0024031598
    2    2    6    2        0.0160888477
    2    2    7    2       -0.0000000000
    2    2    8    2        0.0000000348
    2    2    9    2        0.0000000063
    2    2   10    2       -0.0001204194
    2    2   11    2        0.0142585390
    2    2   12    2       -0.0000000002
    2    2   13    2        0.0058027411
    2    2    3    3        0.1563090677
    2    2    4    3       -0.0000000000
    2    2    5    3       -0.0000005815
    2    2    6    3       -0.0000023808
    2    2    7    3       -0.0000002112
    2    2    8    3       -0.0301576051
    2    2    9    3       -0.0000531645
    2    2   10    3        0.0000007534
    2    2   11    3        0.0000003835
    2    2   12    3        0.0000008027
    2    2   13    3       -0.0000000560
    2    2    4    4        0.1563090683
    2    2    5    4       -0.0000001039
    2    2    6    4       -0.0000004255
    2    2    7    4        0.0000011819
    2    2    8    4        0.0000531645
    2    2    9    4       -0.0301576033
    2    2   10    4        0.0000001350
    2    2   11    4        0.0000000685
    2    2   12    4       -0.0000000424
    2    2   13    4       -0.0000000100
    2    2    5    5        0.1505760537
    2    2    6    5       -0.0217811442
    2    2    7    5       -0.0000000000
    2    2    8    5       -0.0000001192
    2    2    9    5       -0.0000000218
    2    2   10    5       -0.0271244930
    2    2   11    5       -0.0045530372
    2    2   12    5       -0.0000000003
    2    2   13    5       -0.0030248495
    2    2    6    6        0.0855219582
    2    2    7    6        0.0000000000
    2    2    8    6        0.0000011089
    2    2    9    6        0.0000002002
    2    2   10    6        0.0054108620
    2    2   11    6        0.0202099342
    2    2   12    6       -0.0000000000
    2    2   13    6        0.0075478996
    2    2    7    7        0.0815156257
    2    2    8    7        0.0000000949
    2    2    9    7       -0.0000005257
    2    2   10    7       -0.0000000000
    2    2   11    7       -0.0000000000
    2    2   12    7       -0.0000001363
    2    2   13    7        0.0000000000
    2    2    8    8        0.0885899268
    2    2    9    8       -0.0000000000
    2    2   10    8       -0.0000002880
    2    2   11    8        0.0000002018
    2    2   12    8       -0.0000052324
    2    2   13    8        0.0000000385
    2    2    9    9        0.0885899253
    2    2   10    9       -0.0000000521
    2    2   11    9        0.0000000365
    2    2   12    9        0.0000007033
    2    2   13    9        0.0000000075
    2    2   10   10        0.0805332123
    2    2   11   10        0.0036086056
    2    2   12   10        0.0000000000
    2    2   13   10        0.0033549104
    2    2   11   11        0.0736026040
    2    2   12   11       -0.0000000014
    2    2   13   11        0.0049041924
    2    2   12   12        0.0964845107
    2    2   13   12        0.0000000039
    2    2   13   13        0.0714271395
    3    2    3    2        0.0286920260
    3    2    4    2        0.0000000000
    3    2    5    2        0.0000002758
    3    2    6    2        0.0000018106
    3    2    7    2        0.0000005077
    3    2    8    2       -0.0106364701
    3    2    9    2       -0.0000187509
    3    2   10    2       -0.0000002902
    3    2   11    2        0.0000008815
    3    2   12    2        0.0000000811
    3    2   13    2       -0.0000006942
    3    2    3    3       -0.0000006044
    3    2    4    3       -0.0000001183
    3    2    5    3        0.0002208369
    3    2    6    3       -0.0023736387
    3    2    7    3       -0.0027721481
    3    2    8    3       -0.0000065004
    3    2    9    3       -0.0000010010
    3    2   10    3        0.0010918693
    3    2   11    3       -0.0026369750
    3    2   12    3       -0.0118079920
    3    2   13    3        0.0015454852
    3    2    4    4       -0.0000006009
    3    2    5    4       -0.0000000001
    3    2    6    4       -0.0000000003
    3    2    7    4        0.0075087998
    3    2    8    4       -0.0000011897
    3    2    9    4       -0.0000066085
    3    2   10    4        0.0000000001
    3    2   11    4        0.0000000003
    3    2   12    4       -0.0043594208
    3    2   13    4       -0.0000000004
    3    2    5    5       -0.0000044262
    3    2    6    5       -0.0000161031
    3    2    7    5       -0.0000031055
    3    2    8    5       -0.0069189755
    3    2    9    5       -0.0000121975
    3    2   10    5       -0.0000081393
    3    2   11    5        0.0000012405
    3    2   12    5        0.0000070047
    3    2   13    5        0.0000079160
    3    2    6    6       -0.0000843093
    3    2    7    6       -0.0000148093
    3    2    8    6       -0.0062047156
    3    2    9    6       -0.0000109385
    3    2   10    6        0.0000137052
    3    2   11    6        0.0000191161
    3    2   12    6       -0.0000017205
    3    2   13    6        0.0000307975
    3    2    7    7       -0.0001089314
    3    2    8    7        0.0002935854
    3    2    9    7       -0.0007909235
    3    2   10    7        0.0000014292
    3    2   11    7       -0.0000042934
    3    2   12    7        0.0000008451
    3    2   13    7        0.0000008924
    3    2    8    8       -0.0000473970
    3    2    9    8       -0.0000085025
    3    2   10    8       -0.0004340122
    3    2   11    8       -0.0020774411
    3    2   12    8       -0.0048795363
    3    2   13    8       -0.0003807562
    3    2    9    9       -0.0000528926
    3    2   10    9       -0.0000007651
    3    2   11    9       -0.0000036619
    3    2   12    9       -0.0018111812
    3    2   13    9       -0.0000006711
    3    2   10   10       -0.0000828823
    3    2   11   10       -0.0000034554
    3    2   12   10        0.0000023613
    3    2   13   10        0.0000091155
    3    2   11   11       -0.0000928013
    3    2   12   11        0.0000008645
    3    2   13   11       -0.0000171270
    3    2   12   12       -0.0000023419
    3    2   13   12        0.0000005366
    3    2   13   13       -0.0000873300
    4    2    4    2        0.0286920262
    4    2    5    2        0.0000000493
    4    2    6    2        0.0000003235
    4    2    7    2       -0.0000028409
    4    2    8    2        0.0000187509
    4    2    9    2       -0.0106364694
    4    2   10    2       -0.0000000517
    4    2   11    2        0.0000001575
    4    2   12    2        0.0000000133
    4    2   13    2       -0.0000001240
    4    2    3    3       -0.0000003288
    4    2    4    3        0.0000005770
    4    2    5    3       -0.0000000001
    4    2    6    3       -0.0000000003
    4    2    7    3        0.0075088011
    4    2    8    3       -0.0000033545
    4    2    9    3        0.0000053836
    4    2   10    3        0.0000000001
    4    2   11    3        0.0000000003
    4    2   12    3       -0.0043594225
    4    2   13    3       -0.0000000004
    4    2    4    4        0.0000001133
    4    2    5    4        0.0002208374
    4    2    6    4       -0.0023736370
    4    2    7    4        0.0027721482
    4    2    8    4        0.0000060599
    4    2    9    4        0.0000009215
    4    2   10    4        0.0010918687
    4    2   11    4       -0.0026369766
    4    2   12    4        0.0118079915
    4    2   13    4        0.0015454873
    4    2    5    5       -0.0000007910
    4    2    6    5       -0.0000028776
    4    2    7    5        0.0000173782
    4    2    8    5        0.0000121974
    4    2    9    5       -0.0069189752
    4    2   10    5       -0.0000014544
    4    2   11    5        0.0000002217
    4    2   12    5       -0.0000008488
    4    2   13    5        0.0000014139
    4    2    6    6       -0.0000150660
    4    2    7    6        0.0000828729
    4    2    8    6        0.0000109380
    4    2    9    6       -0.0062047142
    4    2   10    6        0.0000024492
    4    2   11    6        0.0000034160
    4    2   12    6        0.0000002713
    4    2   13    6        0.0000055037
    4    2    7    7       -0.0000194659
    4    2    8    7       -0.0007909221
    4    2    9    7       -0.0002935854
    4    2   10    7       -0.0000079977
    4    2   11    7        0.0000240258
    4    2   12    7       -0.0000014993
    4    2   13    7       -0.0000049926
    4    2    8    8       -0.0000265701
    4    2    9    8        0.0000469879
    4    2   10    8        0.0000007652
    4    2   11    8        0.0000036627
    4    2   12    8       -0.0018111930
    4    2   13    8        0.0000006714
    4    2    9    9        0.0000085725
    4    2   10    9       -0.0004340127
    4    2   11    9       -0.0020774434
    4    2   12    9        0.0048795363
    4    2   13    9       -0.0003807569
    4    2   10   10       -0.0000148110
    4    2   11   10       -0.0000006174
    4    2   12   10       -0.0000002729
    4    2   13   10        0.0000016287
    4    2   11   11       -0.0000165835
    4    2   12   11       -0.0000001183
    4    2   13   11       -0.0000030607
    4    2   12   12       -0.0000012306
    4    2   13   12       -0.0000000388
    4    2   13   13       -0.0000156058
    5    2    5    2        0.0246760621
    5    2    6    2       -0.0073168722
    5    2    7    2       -0.0000000000
    5    2    8    2       -0.0000000926
    5    2    9    2       -0.0000000168
    5    2   10    2       -0.0088599911
    5    2   11    2       -0.0026029046
    5    2   12    2       -0.0000000000
    5    2   13    2       -0.0017649755
    5    2    3    3        0.0009389024
    5    2    4    3       -0.0000000000
    5    2    5    3       -0.0000001671
    5    2    6    3       -0.0000005255
    5    2    7    3       -0.0000000680
    5    2    8    3       -0.0055648512
    5    2    9    3       -0.0000098103
    5    2   10    3       -0.0000000422
    5    2   11    3       -0.0000003886
    5    2   12    3        0.0000059638
    5    2   13    3        0.0000000836
    5    2    4    4        0.0009389029
    5    2    5    4       -0.0000000299
    5    2    6    4       -0.0000000939
    5    2    7    4        0.0000003804
    5    2    8    4        0.0000098102
    5    2    9    4       -0.0055648510
    5    2   10    4       -0.0000000075
    5    2   11    4       -0.0000000694
    5    2   12    4       -0.0000008764
    5    2   13    4        0.0000000143
    5    2    5    5        0.0013904219
    5    2    6    5        0.0005466374
    5    2    7    5       -0.0000000000
    5    2    8    5       -0.0000003815
    5    2    9    5       -0.0000000689
    5    2   10    5       -0.0052898601
    5    2   11    5        0.0009715036
    5    2   12    5        0.0000000004
    5    2   13    5       -0.0044593332
    5    2    6    6       -0.0029659648
    5    2    7    6       -0.0000000000
    5    2    8    6       -0.0000007014
    5    2    9    6       -0.0000001267
    5    2   10    6       -0.0038715449
    5    2   11    6       -0.0028697218
    5    2   12    6       -0.0000000009
    5    2   13    6        0.0019228671
    5    2    7    7       -0.0023880993
    5    2    8    7       -0.0000000287
    5    2    9    7        0.0000001587
    5    2   10    7        0.0000000000
    5    2   11    7       -0.0000000000
    5    2   12    7       -0.0000000974
    5    2   13    7        0.0000000000
    5    2    8    8       -0.0011371044
    5    2    9    8       -0.0000000001
    5    2   10    8       -0.0000002416
    5    2   11    8        0.0000000244
    5    2   12    8        0.0000000090
    5    2   13    8        0.0000002502
    5    2    9    9       -0.0011371039
    5    2   10    9       -0.0000000436
    5    2   11    9        0.0000000044
    5    2   12    9       -0.0000002762
    5    2   13    9        0.0000000451
    5    2   10   10        0.0019069774
    5    2   11   10       -0.0017979852
    5    2   12   10        0.0000000006
    5    2   13   10       -0.0013193994
    5    2   11   11       -0.0012466864
    5    2   12   11        0.0000000005
    5    2   13   11       -0.0022953367
    5    2   12   12       -0.0031820976
    5    2   13   12       -0.0000000004
    5    2   13   13        0.0004691043
    6    2    6    2        0.0061212163
    6    2    7    2        0.0000000000
    6    2    8    2        0.0000000834
    6    2    9    2        0.0000000151
    6    2   10    2        0.0029044144
    6    2   11    2        0.0042811990
    6    2   12    2        0.0000000003
    6    2   13    2        0.0024957428
    6    2    3    3        0.0118072444
    6    2    4    3       -0.0000000003
    6    2    5    3       -0.0000008443
    6    2    6    3       -0.0000029152
    6    2    7    3       -0.0000004730
    6    2    8    3       -0.0037956872
    6    2    9    3       -0.0000066916
    6    2   10    3        0.0000005631
    6    2   11    3       -0.0000015957
    6    2   12    3       -0.0000041785
    6    2   13    3       -0.0000000845
    6    2    4    4        0.0118072458
    6    2    5    4       -0.0000001509
    6    2    6    4       -0.0000005210
    6    2    7    4        0.0000026469
    6    2    8    4        0.0000066911
    6    2    9    4       -0.0037956853
    6    2   10    4        0.0000001007
    6    2   11    4       -0.0000002851
    6    2   12    4       -0.0000002534
    6    2   13    4       -0.0000000149
    6    2    5    5        0.0117323854
    6    2    6    5       -0.0038981756
    6    2    7    5       -0.0000000000
    6    2    8    5       -0.0000018946
    6    2    9    5       -0.0000003420
    6    2   10    5       -0.0031939878
    6    2   11    5       -0.0017825569
    6    2   12    5        0.0000000006
    6    2   13    5        0.0006829551
    6    2    6    6        0.0031954921
    6    2    7    6        0.0000000000
    6    2    8    6       -0.0000038314
    6    2    9    6       -0.0000006916
    6    2   10    6        0.0025322430
    6    2   11    6        0.0026219964
    6    2   12    6       -0.0000000029
    6    2   13    6        0.0006625473
    6    2    7    7        0.0011156640
    6    2    8    7       -0.0000001481
    6    2    9    7        0.0000008206
    6    2   10    7       -0.0000000000
    6    2   11    7       -0.0000000000
    6    2   12    7        0.0000000188
    6    2   13    7       -0.0000000000
    6    2    8    8        0.0031476400
    6    2    9    8       -0.0000000010
    6    2   10    8       -0.0000009480
    6    2   11    8        0.0000005122
    6    2   12    8       -0.0000053712
    6    2   13    8        0.0000012644
    6    2    9    9        0.0031476452
    6    2   10    9       -0.0000001711
    6    2   11    9        0.0000000925
    6    2   12    9       -0.0000007255
    6    2   13    9        0.0000002283
    6    2   10   10        0.0017292761
    6    2   11   10        0.0012477265
    6    2   12   10        0.0000000025
    6    2   13   10        0.0008646979
    6    2   11   11        0.0019707048
    6    2   12   11        0.0000000009
    6    2   13   11        0.0013182473
    6    2   12   12        0.0025282080
    6    2   13   12        0.0000000018
    6    2   13   13        0.0007434484
    7    2    7    2        0.0010461796
    7    2    8    2       -0.0000000389
    7    2    9    2        0.0000002155
    7    2   10    2        0.0000000000
    7    2   11    2       -0.0000000000
    7    2   12    2       -0.0000000083
    7    2   13    2        0.0000000000
    7    2    3    3       -0.0009517116
    7    2    4    3        0.0025778612
    7    2    5    3       -0.0000001624
    7    2    6    3       -0.0000005717
    7    2    7    3       -0.0000033922
    7    2    8    3        0.0002619057
    7    2    9    3       -0.0007055808
    7    2   10    3        0.0000000873
    7    2   11    3       -0.0000003928
[...]
   10    7   10   10        0.0000000000
   10    7   11   10        0.0000000000
   10    7   12   10       -0.0000000043
   10    7   13   10        0.0000000000
   10    7   11   11       -0.0000000000
   10    7   12   11        0.0000000290
   10    7   13   11       -0.0000000000
   10    7   12   12        0.0000000103
   10    7   13   12        0.0000000366
   10    7   13   13       -0.0000000000
   11    7   11    7        0.0053336549
   11    7   12    7       -0.0000000107
   11    7   13    7        0.0002250655
   11    7    8    8       -0.0003251460
   11    7    9    8        0.0008712398
   11    7   10    8        0.0000014906
   11    7   11    8        0.0000021153
   11    7   12    8       -0.0000063313
   11    7   13    8       -0.0000010722
   11    7    9    9        0.0003251455
   11    7   10    9       -0.0000082575
   11    7   11    9       -0.0000117182
   11    7   12    9        0.0000327524
   11    7   13    9        0.0000059388
   11    7   10   10        0.0000000000
   11    7   11   10       -0.0000000000
   11    7   12   10        0.0000000826
   11    7   13   10       -0.0000000000
   11    7   11   11       -0.0000000000
   11    7   12   11       -0.0000000102
   11    7   13   11       -0.0000000000
   11    7   12   12       -0.0000000032
   11    7   13   12       -0.0000000034
   11    7   13   13       -0.0000000000
   12    7   12    7        0.0020662294
   12    7   13    7        0.0000000059
   12    7    8    8        0.0000000181
   12    7    9    8       -0.0000000229
   12    7   10    8       -0.0000006043
   12    7   11    8        0.0000003593
   12    7   12    8       -0.0000004348
   12    7   13    8        0.0000021894
   12    7    9    9        0.0000000149
   12    7   10    9        0.0000016763
   12    7   11    9       -0.0000027548
   12    7   12    9       -0.0000029279
   12    7   13    9       -0.0000115176
   12    7   10   10       -0.0000000698
   12    7   11   10        0.0000000071
   12    7   12   10        0.0000000042
   12    7   13   10        0.0000000508
   12    7   11   11       -0.0000000734
   12    7   12   11        0.0000000001
   12    7   13   11        0.0000000415
   12    7   12   12       -0.0000000416
   12    7   13   12        0.0000000037
   12    7   13   13       -0.0000000768
   13    7   13    7        0.0013536231
   13    7    8    8        0.0001052555
   13    7    9    8       -0.0002820346
   13    7   10    8       -0.0000012602
   13    7   11    8       -0.0000004149
   13    7   12    8        0.0000036342
   13    7   13    8        0.0000033531
   13    7    9    9       -0.0001052553
   13    7   10    9        0.0000069804
   13    7   11    9        0.0000022980
   13    7   12    9       -0.0000205696
   13    7   13    9       -0.0000185748
   13    7   10   10       -0.0000000000
   13    7   11   10        0.0000000000
   13    7   12   10        0.0000000373
   13    7   13   10       -0.0000000000
   13    7   11   11       -0.0000000000
   13    7   12   11        0.0000000004
   13    7   13   11       -0.0000000000
   13    7   12   12        0.0000000001
   13    7   13   12       -0.0000000057
   13    7   13   13       -0.0000000000
    8    8    8    8        0.0842880127
    8    8    9    8        0.0022757630
    8    8   10    8        0.0000364129
    8    8   11    8       -0.0000639546
    8    8   12    8        0.0001118885
    8    8   13    8       -0.0000908973
    8    8    9    9        0.0687546725
    8    8   10    9        0.0000159184
    8    8   11    9       -0.0000182668
    8    8   12    9       -0.0000182969
    8    8   13    9       -0.0000281888
    8    8   10   10        0.0683948808
    8    8   11   10        0.0005357601
    8    8   12   10        0.0010741937
    8    8   13   10        0.0012472388
    8    8   11   11        0.0634307641
    8    8   12   11        0.0015904158
    8    8   13   11        0.0049675480
    8    8   12   12        0.0811992108
    8    8   13   12       -0.0019986194
    8    8   13   13        0.0641011262
    9    8    9    8        0.0025179855
    9    8   10    8        0.0000088878
    9    8   11    8       -0.0000205396
    9    8   12    8       -0.0000186471
    9    8   13    8       -0.0000279889
    9    8    9    9       -0.0022757634
    9    8   10    9       -0.0000234651
    9    8   11    9        0.0000142684
    9    8   12    9        0.0001012516
    9    8   13    9        0.0000265620
    9    8   10   10        0.0000001434
    9    8   11   10        0.0000000085
    9    8   12   10        0.0004009339
    9    8   13   10       -0.0000000169
    9    8   11   11        0.0000004353
    9    8   12   11        0.0005935386
    9    8   13   11        0.0000002760
    9    8   12   12       -0.0000000116
    9    8   13   12       -0.0007458891
    9    8   13   13        0.0000003809
   10    8   10    8        0.0046428772
   10    8   11    8       -0.0000010317
   10    8   12    8        0.0034338212
   10    8   13    8       -0.0003372479
   10    8    9    9        0.0000153801
   10    8   10    9        0.0000000462
   10    8   11    9       -0.0000000019
   10    8   12    9        0.0012815056
   10    8   13    9       -0.0000000161
   10    8   10   10        0.0000236951
   10    8   11   10       -0.0000274936
   10    8   12   10        0.0000226281
   10    8   13   10       -0.0000105563
   10    8   11   11        0.0000305895
   10    8   12   11       -0.0000013368
   10    8   13   11        0.0000244515
   10    8   12   12       -0.0000034126
   10    8   13   12       -0.0000045130
   10    8   13   13        0.0000329182
   11    8   11    8        0.0025615150
   11    8   12    8       -0.0000799170
   11    8   13    8        0.0006145873
   11    8    9    9        0.0000269307
   11    8   10    9       -0.0000000019
   11    8   11    9        0.0000001470
   11    8   12    9       -0.0000298309
   11    8   13    9        0.0000001184
   11    8   10   10       -0.0000417936
   11    8   11   10       -0.0000030133
   11    8   12   10        0.0000022491
   11    8   13   10        0.0000071731
   11    8   11   11       -0.0000822347
   11    8   12   11        0.0000087107
   11    8   13   11       -0.0000112677
   11    8   12   12       -0.0000011256
   11    8   13   12        0.0000130762
   11    8   13   13       -0.0000626438
   12    8   12    8        0.0129560548
   12    8   13    8       -0.0028926538
   12    8    9    9        0.0000986511
   12    8   10    9        0.0012815099
   12    8   11    9       -0.0000298339
   12    8   12    9       -0.0000000216
   12    8   13    9       -0.0010795456
   12    8   10   10        0.0001611792
   12    8   11   10       -0.0000006060
   12    8   12   10       -0.0000057397
   12    8   13   10       -0.0000181571
   12    8   11   11        0.0001937390
   12    8   12   11       -0.0000019908
   12    8   13   11        0.0000574770
   12    8   12   12       -0.0000015563
   12    8   13   12       -0.0000016299
   12    8   13   13        0.0001931665
   13    8   13    8        0.0039438360
   13    8    9    9        0.0000254915
   13    8   10    9       -0.0000000161
   13    8   11    9        0.0000001186
   13    8   12    9       -0.0010795404
   13    8   13    9        0.0000001675
   13    8   10   10       -0.0000398928
   13    8   11   10        0.0000049815
   13    8   12   10       -0.0000018418
   13    8   13   10        0.0000045319
   13    8   11   11       -0.0000488189
   13    8   12   11       -0.0000034073
   13    8   13   11       -0.0000554382
   13    8   12   12       -0.0000011734
   13    8   13   12        0.0000337504
   13    8   13   13       -0.0000777222
    9    9    9    9        0.0842879959
    9    9   10    9       -0.0000065154
    9    9   11    9        0.0000115821
    9    9   12    9        0.0000577579
    9    9   13    9        0.0000163374
    9    9   10   10        0.0683941055
    9    9   11   10        0.0005357146
    9    9   12   10       -0.0010742957
    9    9   13   10        0.0012473300
    9    9   11   11        0.0634284232
    9    9   12   11       -0.0015904574
    9    9   13   11        0.0049660667
    9    9   12   12        0.0811991975
    9    9   13   12        0.0019986061
    9    9   13   13        0.0640990769
   10    9   10    9        0.0046426289
   10    9   11    9       -0.0000010217
   10    9   12    9       -0.0034338340
   10    9   13    9       -0.0003371615
   10    9   10   10        0.0000042773
   10    9   11   10       -0.0000049631
   10    9   12   10        0.0000041673
   10    9   13   10       -0.0000019056
   10    9   11   11        0.0000055220
   10    9   12   11       -0.0000001172
   10    9   13   11        0.0000044140
   10    9   12   12       -0.0000017055
   10    9   13   12       -0.0000004786
   10    9   13   13        0.0000059425
   11    9   11    9        0.0025607270
   11    9   12    9        0.0000799120
   11    9   13    9        0.0006139521
   11    9   10   10       -0.0000075445
   11    9   11   10       -0.0000005440
   11    9   12   10        0.0000002349
   11    9   13   10        0.0000012948
   11    9   11   11       -0.0000148449
   11    9   12   11        0.0000014613
   11    9   13   11       -0.0000020341
   11    9   12   12       -0.0000006266
   11    9   13   12        0.0000025048
   11    9   13   13       -0.0000113083
   12    9   12    9        0.0129560355
   12    9   13    9        0.0028926564
   12    9   10   10        0.0000293119
   12    9   11   10       -0.0000001630
   12    9   12   10       -0.0000029298
   12    9   13   10       -0.0000029903
   12    9   11   11        0.0000350091
   12    9   12   11       -0.0000010496
   12    9   13   11        0.0000106796
   12    9   12   12        0.0000001828
   12    9   13   12       -0.0000008534
   12    9   13   13        0.0000348249
   13    9   13    9        0.0039429369
   13    9   10   10       -0.0000072013
   13    9   11   10        0.0000008992
   13    9   12   10       -0.0000005253
   13    9   13   10        0.0000008181
   13    9   11   11       -0.0000088127
   13    9   12   11       -0.0000006023
   13    9   13   11       -0.0000100075
   13    9   12   12       -0.0000006109
   13    9   13   12        0.0000058748
   13    9   13   13       -0.0000140305
   10   10   10   10        0.0674097409
   10   10   11   10        0.0015918259
   10   10   12   10       -0.0000001776
   10   10   13   10       -0.0000218762
   10   10   11   11        0.0619976148
   10   10   12   11       -0.0000000910
   10   10   13   11        0.0021070467
   10   10   12   12        0.0722833713
   10   10   13   12       -0.0000001351
   10   10   13   13        0.0623242412
   11   10   11   10        0.0027327823
   11   10   12   10       -0.0000001899
   11   10   13   10        0.0004840347
   11   10   11   11        0.0012036353
   11   10   12   11       -0.0000000227
   11   10   13   11       -0.0006731074
   11   10   12   12        0.0008366733
   11   10   13   12        0.0000000109
   11   10   13   13        0.0010822127
   12   10   12   10        0.0027672630
   12   10   13   10       -0.0000000687
   12   10   11   11       -0.0000002669
   12   10   12   11       -0.0003636348
   12   10   13   11        0.0000000075
   12   10   12   12       -0.0000000026
   12   10   13   12        0.0000776338
   12   10   13   13       -0.0000001476
   13   10   13   10        0.0021261612
   13   10   11   11       -0.0004668949
   13   10   12   11        0.0000000105
   13   10   13   11        0.0007170317
   13   10   12   12        0.0012648528
   13   10   13   12        0.0000000041
   13   10   13   13       -0.0005270069
   11   11   11   11        0.0630421923
   11   11   12   11       -0.0000002521
   11   11   13   11        0.0002025521
   11   11   12   12        0.0674200526
   11   11   13   12       -0.0000003447
   11   11   13   13        0.0602026357
   12   11   12   11        0.0022179269
   12   11   13   11       -0.0000000407
   12   11   12   12       -0.0000000009
   12   11   13   12       -0.0005211481
   12   11   13   13       -0.0000001218
   13   11   13   11        0.0052045717
   13   11   12   12        0.0045045811
   13   11   13   12       -0.0000003971
   13   11   13   13        0.0013831683
   12   12   12   12        0.0945169235
   12   12   13   12        0.0000000048
   12   12   13   13        0.0668589266
   13   12   13   12        0.0018505557
   13   12   13   13       -0.0000004860
   13   13   13   13        0.0647496380
 end_two_electron_integrals


 output epsi filename:./pspw_hf_LiH.emovecs

 Total PSPW energy     :  -0.5799487248E+00


=== Spin Contamination ===

 <Sexact^2> =    0.0000000000000000     
 <S^2>      =    0.0000000000000000     



== Center of Charge ==

spin up     (    0.0000,    0.0000,    7.2552 )
spin down   (    0.0000,    0.0000,    7.2552 )
     total  (    0.0000,    0.0000,    7.2552 )
ionic       (    0.0000,    0.0000,    3.3070 )


== Molecular Dipole wrt Center of Mass ==

mu   =  (   -0.0000,   -0.0000,   -7.8963 ) au
|mu| =     7.8963 au,      20.0693 Debye

 output psi filename:./pspw_hf_LiH.movecs

 Writing Crystallographic Information File:./LiH.cif
   - cell not shifted (nwpw:cif_shift_cell .false.)


== Timing ==

cputime in seconds
  prologue    :   0.893909E+02
  main loop   :   0.155904E+04
  epilogue    :   0.792174E-01
  total       :   0.164851E+04
  cputime/step:   0.686802E+01       (     227 evalulations,      97 linesearches)


Time spent doing                        total          step       percent
  total time                 :   0.164854E+04  0.726228E+01       100.0 %
  i/o time                   :   0.170437E+01  0.750825E-02         0.1 %
  FFTs                       :   0.128752E+04  0.567191E+01        78.1 %
  dot products               :   0.931313E+01  0.410270E-01         0.6 %
  geodesic                   :   0.167985E+00  0.740021E-03         0.0 %
  ffm_dgemm                  :   0.419785E-01  0.184927E-03         0.0 %
  fmf_dgemm                  :   0.680860E-01  0.299938E-03         0.0 %
  mmm_dgemm                  :   0.545529E-02  0.240321E-04         0.0 %
  m_diagonalize              :   0.224562E-02  0.989261E-05         0.0 %
  local pseudopotentials     :   0.590451E-02  0.260111E-04         0.0 %
  non-local pseudopotentials :   0.498251E+01  0.219494E-01         0.3 %
  structure factors          :   0.924939E+00  0.407462E-02         0.1 %
  phase factors              :   0.239360E-04  0.105445E-06         0.0 %
  masking and packing        :   0.262770E+02  0.115758E+00         1.6 %
  queue fft                  :   0.262599E+01  0.115683E-01         0.2 %
  queue fft (serial)         :   0.966551E+00  0.425793E-02         0.1 %
  queue fft (message passing):   0.155333E+01  0.684288E-02         0.1 %
  HFX potential              :   0.130544E+04  0.575086E+01        79.2 %
  non-local psp FFM          :   0.394691E+01  0.173873E-01         0.2 %
  non-local psp FMF          :   0.261211E+00  0.115071E-02         0.0 %
  non-local psp FFM A        :   0.465605E+00  0.205113E-02         0.0 %
  non-local psp FFM B        :   0.429144E+00  0.189050E-02         0.0 %

== HFX Counters ==
  HFX Evalulations         =   227
  Lin ACE HFX Evalulations =     0


     >>>  JOB COMPLETED     AT Sun May  4 23:07:46 2025  <<<

 Task  times  cpu:     1543.5s     wall:     1648.6s


                                NWChem Input Module
                                -------------------


 Summary of allocated global arrays
-----------------------------------
  No active global arrays


MA_summarize_allocated_blocks: starting scan ...
MA_summarize_allocated_blocks: scan completed: 0 heap blocks, 0 stack blocks
MA usage statistics:

	allocation statistics:
					      heap	     stack
					      ----	     -----
	current number of blocks	         0	         0
	maximum number of blocks	       315	        19
	current total bytes		         0	         0
	maximum total bytes		 125579648	  29398984
	maximum total K-bytes		    125580	     29399
	maximum total M-bytes		       126	        30


                                     CITATION
                                     --------
                Please cite the following reference when publishing
                           results obtained with NWChem:

          E. Apra, E. J. Bylaska, W. A. de Jong, N. Govind, K. Kowalski,
       T. P. Straatsma, M. Valiev, H. J. J. van Dam, Y. Alexeev, J. Anchell,
       V. Anisimov, F. W. Aquino, R. Atta-Fynn, J. Autschbach, N. P. Bauman,
     J. C. Becca, D. E. Bernholdt, K. Bhaskaran-Nair, S. Bogatko, P. Borowski,
         J. Boschen, J. Brabec, A. Bruner, E. Cauet, Y. Chen, G. N. Chuev,
      C. J. Cramer, J. Daily, M. J. O. Deegan, T. H. Dunning Jr., M. Dupuis,
   K. G. Dyall, G. I. Fann, S. A. Fischer, A. Fonari, H. Fruchtl, L. Gagliardi,
      J. Garza, N. Gawande, S. Ghosh, K. Glaesemann, A. W. Gotz, J. Hammond,
       V. Helms, E. D. Hermes, K. Hirao, S. Hirata, M. Jacquelin, L. Jensen,
   B. G. Johnson, H. Jonsson, R. A. Kendall, M. Klemm, R. Kobayashi, V. Konkov,
      S. Krishnamoorthy, M. Krishnan, Z. Lin, R. D. Lins, R. J. Littlefield,
      A. J. Logsdail, K. Lopata, W. Ma, A. V. Marenich, J. Martin del Campo,
   D. Mejia-Rodriguez, J. E. Moore, J. M. Mullin, T. Nakajima, D. R. Nascimento,
    J. A. Nichols, P. J. Nichols, J. Nieplocha, A. Otero-de-la-Roza, B. Palmer,
    A. Panyala, T. Pirojsirikul, B. Peng, R. Peverati, J. Pittner, L. Pollack,
   R. M. Richard, P. Sadayappan, G. C. Schatz, W. A. Shelton, D. W. Silverstein,
   D. M. A. Smith, T. A. Soares, D. Song, M. Swart, H. L. Taylor, G. S. Thomas,
            V. Tipparaju, D. G. Truhlar, K. Tsemekhman, T. Van Voorhis,
      A. Vazquez-Mayagoitia, P. Verma, O. Villa, A. Vishnu, K. D. Vogiatzis,
        D. Wang, J. H. Weare, M. J. Williamson, T. L. Windus, K. Wolinski,
        A. T. Wong, Q. Wu, C. Yang, Q. Yu, M. Zacharias, Z. Zhang, Y. Zhao,
                                and R. J. Harrison
                        "NWChem: Past, present, and future
                         J. Chem. Phys. 152, 184102 (2020)
                               doi:10.1063/5.0004997

                                      AUTHORS
                                      -------
  E. Apra, E. J. Bylaska, N. Govind, K. Kowalski, M. Valiev, D. Mejia-Rodriguez,
       A. Kunitsa, N. P. Bauman, A. Panyala, W. A. de Jong, T. P. Straatsma,
   H. J. J. van Dam, D. Wang, T. L. Windus, J. Hammond, J. Autschbach, A. Woods,
    K. Bhaskaran-Nair, J. Brabec, K. Lopata, S. A. Fischer, S. Krishnamoorthy,
     M. Jacquelin, W. Ma, M. Klemm, O. Villa, Y. Chen, V. Anisimov, F. Aquino,
     S. Hirata, M. T. Hackler, E. Hermes, L. Jensen, J. E. Moore, J. C. Becca,
      V. Konjkov, T. Risthaus, M. Malagoli, A. Marenich, A. Otero-de-la-Roza,
        J. Mullin, P. Nichols, R. Peverati, J. Pittner, Y. Zhao, P.-D. Fan,
        A. Fonari, M. J. Williamson, R. J. Harrison, J. R. Rehr, M. Dupuis,
     D. Silverstein, D. M. A. Smith, J. Nieplocha, V. Tipparaju, M. Krishnan,
     B. E. Van Kuiken, A. Vazquez-Mayagoitia, M. Swart, Q. Wu, T. Van Voorhis,
     A. A. Auer, M. Nooijen, L. D. Crosby, E. Brown, G. Cisneros, G. I. Fann,
   H. Fruchtl, J. Garza, K. Hirao, R. A. Kendall, J. A. Nichols, K. Tsemekhman,
    K. Wolinski, J. Anchell, D. E. Bernholdt, P. Borowski, T. Clark, D. Clerc,
   H. Dachsel, M. J. O. Deegan, K. Dyall, D. Elwood, E. Glendening, M. Gutowski,
   A. C. Hess, J. Jaffe, B. G. Johnson, J. Ju, R. Kobayashi, R. Kutteh, Z. Lin,
   R. Littlefield, X. Long, B. Meng, T. Nakajima, S. Niu, L. Pollack, M. Rosing,
   K. Glaesemann, G. Sandrone, M. Stave, H. Taylor, G. Thomas, J. H. van Lenthe,
                               A. T. Wong, Z. Zhang.

 Total times  cpu:     1543.5s     wall:     1648.6s
