 argument  1 = ../data/PW_LiH_data/3x3_aperiodic/NWChem/12nocovo/H1Li1-1.3.nw



============================== echo of input deck ==============================
title "swnc: e theory=pspw4 xc=pbe formula=LiH charge=0 mult=1"
#machinejob:expert

echo

start pspw_hf_LiH

memory heap 1200 mb stack 2400 mb global 400 mb

charge 0

geometry
Li    0.00000    0.00000   -0.65000
H     0.00000    0.00000    0.65000
end

nwpw
  ### pseudopotential block begin ###
  ### pseudopotential block end   ###
  simulation_cell
     SC 28.345889835
     boundary_conditions aperiodic
  end

  cutoff 50.0
  mult 1
  xc hf
  lmbfgs
  tolerances 1.0e-9 1.0e-9

  virtual 12
end
set nwpw:cif_filename LiH

#set nwpw:CI_maxit_orb 15
#set nwpw:CI_maxit_linesearch 15

set nwpw:2qintegrals .true.
#set nwpw:3x3_virtual .true.

task pspw energy
================================================================================


                                         
                                         


             Northwest Computational Chemistry Package (NWChem) 7.2.3
             --------------------------------------------------------


                    Environmental Molecular Sciences Laboratory
                       Pacific Northwest National Laboratory
                                Richland, WA 99352

                              Copyright (c) 1994-2022
                       Pacific Northwest National Laboratory
                            Battelle Memorial Institute

             NWChem is an open-source computational chemistry package
                        distributed under the terms of the
                      Educational Community License (ECL) 2.0
             A copy of the license is included with this distribution
                              in the LICENSE.TXT file

                                  ACKNOWLEDGMENT
                                  --------------

            This software and its documentation were developed at the
            EMSL at Pacific Northwest National Laboratory, a multiprogram
            national laboratory, operated for the U.S. Department of Energy
            by Battelle under Contract Number DE-AC05-76RL01830. Support
            for this work was provided by the Department of Energy Office
            of Biological and Environmental Research, Office of Basic
            Energy Sciences, and the Office of Advanced Scientific Computing.


           Job information
           ---------------

    hostname        = mqs-al
    program         = nwchem
    date            = Sun May  4 16:26:41 2025

    compiled        = Thu_Oct_31_08:55:15_2024
    source          = /home/conda/feedstock_root/build_artifacts/nwchem_1730356057992/work
    nwchem branch   = 7.2.3
    nwchem revision = c400b04
    ga revision     = 5.8.0
    use scalapack   = T
    input           = ../data/PW_LiH_data/3x3_aperiodic/NWChem/12nocovo/H1Li1-1.3.nw
    prefix          = pspw_hf_LiH.
    data base       = ./pspw_hf_LiH.db
    status          = startup
    nproc           =       24
    time left       =     -1s



           Memory information
           ------------------

    heap     =  157286396 doubles =   1200.0 Mbytes
    stack    =  314572801 doubles =   2400.0 Mbytes
    global   =   52428800 doubles =    400.0 Mbytes (distinct from heap & stack)
    total    =  524287997 doubles =   4000.0 Mbytes
    verify   = yes
    hardfail = no 


           Directory information
           ---------------------

  0 permanent = .
  0 scratch   = .




                                NWChem Input Module
                                -------------------


              swnc: e theory=pspw4 xc=pbe formula=LiH charge=0 mult=1
              -------------------------------------------------------

 Scaling coordinates for geometry "geometry" by  1.889725989
 (inverse scale =  0.529177249)

  zeroes
  zeroes
  zeroes
  zeroes
  zeroes
  zeroes
  zeroes
  zeroes
  zeroes
  zeroes
  zeroes
  zeroes
  zeroes
  zeroes
  zeroes
  zeroes
  zeroes
  zeroes
  zeroes
  zeroes
  zeroes
  zeroes
  zeroes
  zeroes
  zeroes
  zeroes
  zeroes
  zeroes
  zeroes
  zeroes
  zeroes
  zeroes
  zeroes
  zeroes
  zeroes
  zeroes
  zeroes
  zeroes
  zeroes
  zeroes
  zeroes
  zeroes
  zeroes
  zeroes
  zeroes
  zeroes
  zeroes
  zeroes
 ORDER OF PRIMARY AXIS IS BEING SET TO 4
 C4V symmetry detected

          ------
          auto-z
          ------
  no constraints, skipping    0.0000000000000000     
  no constraints, skipping    0.0000000000000000     


                             Geometry "geometry" -> ""
                             -------------------------

 Output coordinates in angstroms (scale by  1.889725989 to convert to a.u.)

  No.       Tag          Charge          X              Y              Z
 ---- ---------------- ---------- -------------- -------------- --------------
    1 Li                   3.0000     0.00000000     0.00000000    -0.32500000
    2 H                    1.0000     0.00000000     0.00000000     0.97500000

      Atomic Mass 
      ----------- 

      Li                 7.016000
      H                  1.007825


 Effective nuclear repulsion energy (a.u.)       1.2211782669

            Nuclear Dipole moment (a.u.) 
            ----------------------------
        X                 Y               Z
 ---------------- ---------------- ----------------
     0.0000000000     0.0000000000     0.0000000000

      Symmetry information
      --------------------

 Group name             C4v       
 Group number             18
 Group order               8
 No. of unique centers     2

      Symmetry unique atoms

     1    2



                                Z-matrix (autoz)
                                -------- 

 Units are Angstrom for bonds and degrees for angles

      Type          Name      I     J     K     L     M      Value
      ----------- --------  ----- ----- ----- ----- ----- ----------
    1 Stretch                  1     2                       1.30000


            XYZ format geometry
            -------------------
     2
 geometry
 Li                    0.00000000     0.00000000    -0.32500000
 H                     0.00000000     0.00000000     0.97500000

 ==============================================================================
                                internuclear distances
 ------------------------------------------------------------------------------
       center one      |      center two      | atomic units |  angstroms
 ------------------------------------------------------------------------------
    2 H                |   1 Li               |     2.45664  |     1.30000
 ------------------------------------------------------------------------------
                         number of included internuclear distances:          1
 ==============================================================================



          ****************************************************
          *                                                  *
          *               NWPW PSPW Calculation              *
          *                                                  *
          * [ (Grassmann/Stiefel manifold implementation)  ] *
          *                                                  *
          *      [ NorthWest Chemistry implementation ]      *
          *                                                  *
          *            version #5.10   06/12/02              *
          *                                                  *
          *    This code was developed by Eric J. Bylaska,   *
          *    and was based upon algorithms and code        *
          *    developed by the group of Prof. John H. Weare *
          *                                                  *
          ****************************************************
     >>>  JOB STARTED       AT Sun May  4 16:26:41 2025  <<<
          ================ input data ========================

 input psi filename:./pspw_hf_LiH.movecs

 number of processors used:        24
 processor grid           :  24 x   1
 parallel mapping         :2d-hilbert
 parallel mapping         :  balanced
 number of threads        :         1
 parallel io              :       off

 options:
      boundary conditions  = aperiodic   (version4)
      electron spin        = restricted
      exchange-correlation = Hartree-Fock
      - HFX relaxed
      - HFX restricted orbitals :    1
      - HFX free-space coulomb solver


 elements involved in the cluster:
      1: Li  valence charge:  1.0000  lmax=  1
             comment    : Hamann pseudopotential
             pseudpotential type            :   0
             highest angular component      :   1
             local potential used           :   1
             number of non-local projections:   1
             aperiodic cutoff radius        :  1.000
             semicore corrections included  :  1.000 (radius)  0.769 (charge)
             cutoff =   1.869   1.551

      2: H   valence charge:  1.0000  lmax=  1
             comment    : Parameterized (Chem.Phys.Lett., vol 322, page 447) Hamman psp
             pseudpotential type            :   0
             highest angular component      :   1
             local potential used           :   1
             number of non-local projections:   1
             aperiodic cutoff radius        :  1.000
             cutoff =   0.800   0.800


 total charge:   0.000

 atomic composition:
     Li  :    1     H   :    1

 number of electrons: spin up=     1 (   1 per task)  down=     1 (   1 per task) (Fourier space)
 number of orbitals : spin up=     1 (   1 per task)  down=     1 (   1 per task) (Fourier space)

 supercell:
      cell_name:  cell_default                                      
      lattice:    a1=<  28.346   0.000   0.000 >
                  a2=<   0.000  28.346   0.000 >
                  a3=<   0.000   0.000  28.346 >
      reciprocal: b1=<   0.222   0.000   0.000 >
                  b2=<   0.000   0.222   0.000 >
                  b3=<   0.000   0.000   0.222 >
      lattice:    a=      28.346 b=     28.346 c=      28.346
                  alpha=  90.000 beta=  90.000 gamma=  90.000
                  omega=     22775.6

      density cutoff=100.000  fft=140x140x140(   544264 waves    22677 per task)
      wavefnc cutoff= 50.000  fft=140x140x140(   192294 waves     8012 per task)

 technical parameters:
      time step=      5.80     fictitious mass=  400000.0
      tolerance=0.100E-08 (energy)   0.100E-08 (density)
      maximum iterations =      1000 (   10 inner    100 outer )





== Energy Calculation ==


          ============ Grassmann lmbfgs iteration ============
     >>>  ITERATION STARTED AT Sun May  4 16:28:10 2025  <<<
    iter.           Energy         DeltaE       DeltaRho 
    ------------------------------------------------------
      10   -0.3343105282E+00   -0.67706E-01    0.52494E-01
     -  10 steepest descent iterations performed
      20   -0.6992410527E+00   -0.67965E-02    0.26187E-01
      30   -0.7244049154E+00   -0.44420E-03    0.32895E-03
      40   -0.7260600986E+00   -0.52792E-04    0.32231E-05
      50   -0.7262667533E+00   -0.56012E-05    0.11432E-05
      60   -0.7262848439E+00   -0.39994E-06    0.15781E-06
      70   -0.7262863809E+00   -0.40219E-07    0.16296E-07
      80   -0.7262865530E+00   -0.56882E-08    0.13055E-08
      90   -0.7262865715E+00   -0.91244E-09    0.57222E-10
  *** tolerance ok. iteration terminated
     >>>  ITERATION ENDED   AT Sun May  4 16:30:00 2025  <<<


==  Summary Of Results  ==

 number of electrons: spin up=    1.00000  down=    1.00000 (real space)

 total     energy    :  -0.7262865715E+00 (   -0.36314E+00/ion)
 total orbital energy:  -0.6211679140E+00 (   -0.62117E+00/electron)
 hartree   energy    :   0.1024356160E+01 (    0.10244E+01/electron)
 exc-corr  energy    :   0.0000000000E+00 (    0.00000E+00/electron)
 HF exchange energy  :  -0.5121780798E+00 (   -0.51218E+00/electron)
 ion-ion   energy    :   0.4070594223E+00 (    0.20353E+00/ion)

 kinetic (planewave) :   0.7037334826E+00 (    0.70373E+00/electron)
 V_local (planewave) :  -0.2271232205E+01 (   -0.22712E+01/electron)
 V_nl    (planewave) :  -0.7802535161E-01 (   -0.78025E-01/electron)
 V_Coul  (planewave) :   0.2048712319E+01 (    0.20487E+01/electron)
 V_xc.   (planewave) :   0.0000000000E+00 (    0.00000E+00/electron)
 K.S. HFX energy     :  -0.1024356160E+01 (   -0.10244E+01/electron)
 Virial Coefficient  :  -0.4270725273E+00

 orbital energies:
    -0.3105840E+00 (  -8.451eV)


== Virtual Orbital Calculation ==

 wavefunction adjust, new psi:pspw_hf_LiH.emovecs                               
 -   spin, nalpha, nbeta:                    1                   12                    0

 input epsi filename:./pspw_hf_LiH.emovecs
     orbital   1 current e=-0.729E-02 (error=0.227E-06) iterations 121( 120 preconditioned, Ep,Sp= 20.0  200.0)
     orbital   1 current e=-0.730E-02 (error=0.997E-09) iterations  82(   1 preconditioned, Ep,Sp= 20.0  200.0)
     orbital   2 current e= 0.108E-01 (error=0.276E-04) iterations 121( 120 preconditioned, Ep,Sp= 20.0  200.0)
     orbital   2 current e= 0.103E-01 (error=0.177E-08) iterations 121(  63 preconditioned, Ep,Sp= 20.0  200.0)
     orbital   2 current e= 0.103E-01 (error=0.954E-07) iterations 121( 110 preconditioned, Ep,Sp= 20.0  200.0)
     orbital   2 current e= 0.103E-01 (error=0.986E-09) iterations  80(   1 preconditioned, Ep,Sp= 20.0  200.0)
     orbital   3 current e= 0.232E-01 (error=0.997E-09) iterations 111(  75 preconditioned, Ep,Sp= 20.0  200.0)
     orbital   4 current e= 0.240E-01 (error=0.899E-05) iterations 121( 120 preconditioned, Ep,Sp= 20.0  200.0)
     orbital   4 current e= 0.235E-01 (error=0.141E-06) iterations 121( 110 preconditioned, Ep,Sp= 20.0  200.0)
     orbital   4 current e= 0.288E-01 (error=0.207E-04) iterations 121( 120 preconditioned, Ep,Sp= 20.0  200.0)
     orbital   4 current e= 0.236E-01 (error=0.625E-05) iterations 121( 120 preconditioned, Ep,Sp= 20.0  200.0)
     orbital   4 current e= 0.235E-01 (error=0.112E-06) iterations 121( 106 preconditioned, Ep,Sp= 20.0  200.0)
     orbital   4 current e= 0.235E-01 (error=0.945E-09) iterations 100(   1 preconditioned, Ep,Sp= 20.0  200.0)
     orbital   5 current e= 0.203E-01 (error=0.130E-06) iterations 121( 117 preconditioned, Ep,Sp= 20.0  200.0)
     orbital   5 current e= 0.203E-01 (error=0.954E-09) iterations  58(   1 preconditioned, Ep,Sp= 20.0  200.0)
     orbital   6 current e= 0.203E-01 (error=0.119E-06) iterations 121( 117 preconditioned, Ep,Sp= 20.0  200.0)
     orbital   6 current e= 0.203E-01 (error=0.954E-09) iterations  57(   1 preconditioned, Ep,Sp= 20.0  200.0)
     orbital   7 current e= 0.302E-01 (error=0.428E-04) iterations 121( 120 preconditioned, Ep,Sp= 20.0  200.0)
     orbital   7 current e= 0.293E-01 (error=0.178E-06) iterations 121( 114 preconditioned, Ep,Sp= 20.0  200.0)
     orbital   7 current e= 0.293E-01 (error=0.523E-05) iterations 121( 120 preconditioned, Ep,Sp= 20.0  200.0)
     orbital   7 current e= 0.293E-01 (error=0.152E-07) iterations 121(  55 preconditioned, Ep,Sp= 20.0  200.0)
     orbital   7 current e= 0.293E-01 (error=0.953E-09) iterations  36(   1 preconditioned, Ep,Sp= 20.0  200.0)
     orbital   8 current e= 0.398E-01 (error=0.849E-04) iterations 121( 120 preconditioned, Ep,Sp= 20.0  200.0)
     orbital   8 current e= 0.384E-01 (error=0.206E-06) iterations 121( 120 preconditioned, Ep,Sp= 20.0  200.0)
     orbital   8 current e= 0.384E-01 (error=0.108E-05) iterations 121( 120 preconditioned, Ep,Sp= 20.0  200.0)
     orbital   8 current e= 0.384E-01 (error=0.350E-08) iterations 121(  45 preconditioned, Ep,Sp= 20.0  200.0)
     orbital   8 current e= 0.384E-01 (error=0.925E-09) iterations   7(   1 preconditioned, Ep,Sp= 20.0  200.0)
     orbital   9 current e= 0.491E-01 (error=0.193E-04) iterations 121( 120 preconditioned, Ep,Sp= 20.0  200.0)
     orbital   9 current e= 0.444E-01 (error=0.574E-04) iterations 121( 120 preconditioned, Ep,Sp= 20.0  200.0)
     orbital   9 current e= 0.531E-01 (error=0.254E-03) iterations 121( 120 preconditioned, Ep,Sp= 20.0  200.0)
     orbital   9 current e= 0.474E-01 (error=0.664E-06) iterations 121( 120 preconditioned, Ep,Sp= 20.0  200.0)
     orbital   9 current e= 0.474E-01 (error=0.913E-09) iterations 117(  19 preconditioned, Ep,Sp= 20.0  200.0)
     orbital  10 current e= 0.483E-01 (error=0.404E-04) iterations 121( 120 preconditioned, Ep,Sp= 20.0  200.0)
     orbital  10 current e= 0.429E-01 (error=0.107E-04) iterations 121( 120 preconditioned, Ep,Sp= 20.0  200.0)
     orbital  10 current e= 0.591E-01 (error=0.242E-05) iterations 121( 120 preconditioned, Ep,Sp= 20.0  200.0)
     orbital  10 current e= 0.591E-01 (error=0.108E-07) iterations 121(  67 preconditioned, Ep,Sp= 20.0  200.0)
     orbital  10 current e= 0.591E-01 (error=0.981E-09) iterations  73(   4 preconditioned, Ep,Sp= 20.0  200.0)
     orbital  11 current e= 0.496E-01 (error=0.461E-04) iterations 121( 120 preconditioned, Ep,Sp= 20.0  200.0)
     orbital  11 current e= 0.444E-01 (error=0.344E-04) iterations 121( 120 preconditioned, Ep,Sp= 20.0  200.0)
     orbital  11 current e= 0.693E-01 (error=0.364E-04) iterations 121( 120 preconditioned, Ep,Sp= 20.0  200.0)
     orbital  11 current e= 0.541E-01 (error=0.211E-03) iterations 121( 120 preconditioned, Ep,Sp= 20.0  200.0)
     orbital  11 current e= 0.424E-01 (error=0.213E-08) iterations 121(  61 preconditioned, Ep,Sp= 20.0  200.0)
     orbital  11 current e= 0.424E-01 (error=0.906E-09) iterations   2(   1 preconditioned, Ep,Sp= 20.0  200.0)
     orbital  12 current e= 0.488E-01 (error=0.440E-04) iterations 121( 120 preconditioned, Ep,Sp= 20.0  200.0)
     orbital  12 current e= 0.440E-01 (error=0.369E-04) iterations 121( 120 preconditioned, Ep,Sp= 20.0  200.0)
     orbital  12 current e= 0.693E-01 (error=0.363E-04) iterations 121( 120 preconditioned, Ep,Sp= 20.0  200.0)
     orbital  12 current e= 0.689E-01 (error=0.349E-07) iterations 121(  95 preconditioned, Ep,Sp= 20.0  200.0)
     orbital  12 current e= 0.689E-01 (error=0.925E-07) iterations 121(  13 preconditioned, Ep,Sp= 20.0  200.0)
     orbital  12 current e= 0.689E-01 (error=0.544E-04) iterations 121(  97 preconditioned, Ep,Sp= 20.0  200.0)
     orbital  12 current e= 0.686E-01 (error=0.207E-05) iterations 121( 120 preconditioned, Ep,Sp= 20.0  200.0)

 virtual orbital energies:
     0.6858667E-01 (   1.866eV)
     0.5905461E-01 (   1.607eV)
     0.4738284E-01 (   1.289eV)
     0.4238293E-01 (   1.153eV)
     0.3842211E-01 (   1.046eV)
     0.2928078E-01 (   0.797eV)
     0.2348889E-01 (   0.639eV)
     0.2315716E-01 (   0.630eV)
     0.2030310E-01 (   0.552eV)
     0.2030310E-01 (   0.552eV)
     0.1034738E-01 (   0.282eV)
    -0.7295811E-02 (  -0.199eV)


 == Generating One-Electron and Two-Electron Integrals ==

 begin_one_electron_integrals
    1    1        -0.8227620368
    2    1        -0.0294453800
    3    1         0.0181136892
    4    1        -0.0000005686
    5    1         0.0000022642
    6    1         0.0000000240
    7    1        -0.0152971766
    8    1        -0.0158601735
    9    1         0.0060841720
   10    1        -0.0000041749
   11    1        -0.0154609715
   12    1        -0.0255864977
   13    1         0.0046366194
    2    2        -0.2238308933
    3    2         0.0669026399
    4    2        -0.0000005255
    5    2         0.0000041966
    6    2        -0.0000002649
    7    2        -0.0284457146
    8    2        -0.0241817334
    9    2         0.0276028677
   10    2         0.0000015141
   11    2        -0.0218133919
   12    2        -0.0238086827
   13    2         0.0187913611
    3    3        -0.1762049941
    4    3        -0.0000010094
    5    3        -0.0000018871
    6    3         0.0000008080
    7    3         0.0125622194
    8    3         0.0038355222
    9    3        -0.0533380633
   10    3        -0.0000032280
   11    3         0.0176078082
   12    3         0.0109001345
   13    3        -0.0296959518
    4    4        -0.1578116265
    5    4         0.0000000043
    6    4         0.0000098843
    7    4         0.0000017002
    8    4        -0.0000011056
    9    4         0.0000018689
   10    4        -0.0409600123
   11    4         0.0000051727
   12    4         0.0000046158
   13    4         0.0008502929
    5    5        -0.1578103460
    6    5         0.0000021028
    7    5        -0.0000033370
    8    5         0.0000003347
    9    5        -0.0000009963
   10    5         0.0224832375
   11    5         0.0000008616
   12    5        -0.0000006756
   13    5        -0.0013858815
    6    6        -0.1209477750
    7    6        -0.0000002598
    8    6        -0.0000003060
    9    6         0.0000003262
   10    6         0.0000742047
   11    6        -0.0000006265
   12    6         0.0000008939
   13    6        -0.0034866868
    7    7        -0.1309840079
    8    7        -0.0069906839
    9    7         0.0085879207
   10    7        -0.0000005582
   11    7        -0.0289535915
   12    7        -0.0105058439
   13    7         0.0044714427
    8    8        -0.1202430630
    9    8         0.0031093416
   10    8        -0.0000010412
   11    8        -0.0066123558
   12    8        -0.0354010204
   13    8         0.0050165910
    9    9        -0.1198746351
   10    9        -0.0000054030
   11    9         0.0092739676
   12    9        -0.0022719117
   13    9        -0.0406919399
   10   10        -0.1340608132
   11   10         0.0000031711
   12   10         0.0000118105
   13   10         0.0006361434
   11   11        -0.1034814825
   12   11        -0.0114048144
   13   11         0.0120099241
   12   12        -0.1018239603
   13   12         0.0059099503
   13   13        -0.0817303581
 end_one_electron_integrals

 begin_two_electron_integrals
    1    1    1    1        0.5121780798
    1    1    2    1        0.0294356502
    1    1    3    1       -0.0181093037
    1    1    4    1        0.0000005688
    1    1    5    1       -0.0000022640
    1    1    6    1       -0.0000000239
    1    1    7    1        0.0152968968
    1    1    8    1        0.0158551465
    1    1    9    1       -0.0060827814
    1    1   10    1        0.0000041747
    1    1   11    1        0.0154593554
    1    1   12    1        0.0255848009
    1    1   13    1       -0.0046344593
    1    1    2    2        0.1097014163
    1    1    3    2       -0.0344351272
    1    1    4    2        0.0000002886
    1    1    5    2       -0.0000022127
    1    1    6    2        0.0000001367
    1    1    7    2        0.0149768295
    1    1    8    2        0.0127863861
    1    1    9    2       -0.0142398129
    1    1   10    2       -0.0000005644
    1    1   11    2        0.0116896600
    1    1   12    2        0.0130340300
    1    1   13    2       -0.0097530943
    1    1    3    3        0.0939785505
    1    1    4    3        0.0000004910
    1    1    5    3        0.0000010162
    1    1    6    3       -0.0000004079
    1    1    7    3       -0.0067846707
    1    1    8    3       -0.0023644240
    1    1    9    3        0.0270234929
    1    1   10    3        0.0000014916
    1    1   11    3       -0.0093425585
    1    1   12    3       -0.0061701981
    1    1   13    3        0.0151360991
    1    1    4    4        0.0893698833
    1    1    5    4       -0.0000000022
    1    1    6    4       -0.0000046816
    1    1    7    4       -0.0000007601
    1    1    8    4        0.0000004866
    1    1    9    4       -0.0000006329
    1    1   10    4        0.0208193391
    1    1   11    4       -0.0000024804
    1    1   12    4       -0.0000023212
    1    1   13    4       -0.0004345691
    1    1    5    5        0.0893692269
    1    1    6    5       -0.0000009870
    1    1    7    5        0.0000014430
    1    1    8    5       -0.0000002867
    1    1    9    5        0.0000005635
    1    1   10    5       -0.0114279079
    1    1   11    5       -0.0000004700
    1    1   12    5        0.0000002728
    1    1   13    5        0.0007061710
    1    1    6    6        0.0720589742
    1    1    7    6        0.0000001359
    1    1    8    6        0.0000000404
    1    1    9    6       -0.0000002227
    1    1   10    6       -0.0000373505
    1    1   11    6        0.0000003886
    1    1   12    6       -0.0000004379
    1    1   13    6        0.0017454368
    1    1    7    7        0.0776318793
    1    1    8    7        0.0038567971
    1    1    9    7       -0.0045176806
    1    1   10    7        0.0000003450
    1    1   11    7        0.0148873809
    1    1   12    7        0.0058492523
    1    1   13    7       -0.0024164205
    1    1    8    8        0.0751406039
    1    1    9    8       -0.0017182033
    1    1   10    8        0.0000006271
    1    1   11    8        0.0036888801
    1    1   12    8        0.0183250942
    1    1   13    8       -0.0026427838
    1    1    9    9        0.0793574818
    1    1   10    9        0.0000026444
    1    1   11    9       -0.0048836709
    1    1   12    9        0.0008658701
    1    1   13    9        0.0205215565
    1    1   10   10        0.0886935163
    1    1   11   10       -0.0000011986
    1    1   12   10       -0.0000048375
    1    1   13   10       -0.0003370292
    1    1   11   11        0.0758662780
    1    1   12   11        0.0063186319
    1    1   13   11       -0.0062102445
    1    1   12   12        0.0814578913
    1    1   13   12       -0.0031672669
    1    1   13   13        0.0753073651
    2    1    2    1        0.0028677500
    2    1    3    1       -0.0019623100
    2    1    4    1        0.0000000512
    2    1    5    1       -0.0000002227
    2    1    6    1        0.0000000068
    2    1    7    1        0.0014958315
    2    1    8    1        0.0013981196
    2    1    9    1       -0.0008835000
    2    1   10    1        0.0000003881
    2    1   11    1        0.0015633152
    2    1   12    1        0.0022624793
    2    1   13    1       -0.0007175019
    2    1    2    2       -0.0010269733
    2    1    3    2        0.0006957269
    2    1    4    2       -0.0000000119
    2    1    5    2        0.0000000058
    2    1    6    2       -0.0000000079
    2    1    7    2        0.0001304434
    2    1    8    2        0.0002843419
    2    1    9    2        0.0002704427
    2    1   10    2        0.0000000620
    2    1   11    2        0.0001855547
    2    1   12    2        0.0004105067
    2    1   13    2        0.0000354348
    2    1    3    3       -0.0005817317
    2    1    4    3       -0.0000000354
    2    1    5    3        0.0000000110
    2    1    6    3       -0.0000000143
    2    1    7    3       -0.0000535832
    2    1    8    3        0.0004152489
    2    1    9    3       -0.0003361699
    2    1   10    3       -0.0000000897
    2    1   11    3       -0.0001123118
    2    1   12    3        0.0000149692
    2    1   13    3       -0.0001261535
    2    1    4    4       -0.0005849477
    2    1    5    4       -0.0000000001
    2    1    6    4        0.0000000607
    2    1    7    4        0.0000000177
    2    1    8    4       -0.0000000042
    2    1    9    4        0.0000000002
    2    1   10    4       -0.0004056913
    2    1   11    4        0.0000000460
    2    1   12    4        0.0000000466
    2    1   13    4       -0.0000221367
    2    1    5    5       -0.0005849684
    2    1    6    5        0.0000000020
    2    1    7    5       -0.0000000495
    2    1    8    5       -0.0000000138
    2    1    9    5        0.0000000046
    2    1   10    5        0.0002224984
    2    1   11    5       -0.0000000195
    2    1   12    5       -0.0000000123
    2    1   13    5        0.0000102673
    2    1    6    6       -0.0002847989
    2    1    7    6        0.0000000028
    2    1    8    6       -0.0000000211
    2    1    9    6       -0.0000000082
    2    1   10    6        0.0000003970
    2    1   11    6       -0.0000000065
    2    1   12    6       -0.0000000240
    2    1   13    6       -0.0000184148
    2    1    7    7       -0.0001387801
    2    1    8    7       -0.0000039468
    2    1    9    7        0.0000078766
    2    1   10    7        0.0000001783
    2    1   11    7       -0.0000833379
    2    1   12    7       -0.0001395802
    2    1   13    7        0.0000580704
    2    1    8    8        0.0002618056
    2    1    9    8        0.0002415423
    2    1   10    8       -0.0000000057
    2    1   11    8        0.0001295039
    2    1   12    8        0.0004436896
    2    1   13    8        0.0000671706
    2    1    9    9       -0.0002329677
    2    1   10    9       -0.0000000956
    2    1   11    9       -0.0000437250
    2    1   12    9        0.0004920184
    2    1   13    9       -0.0001998191
    2    1   10   10       -0.0004226184
    2    1   11   10        0.0000002296
    2    1   12   10        0.0000000012
    2    1   13   10        0.0000009153
    2    1   11   11       -0.0002090844
    2    1   12   11        0.0000440528
    2    1   13   11        0.0000225743
    2    1   12   12        0.0005660006
    2    1   13   12        0.0001252238
    2    1   13   13       -0.0001645123
    3    1    3    1        0.0014047288
    3    1    4    1       -0.0000000281
    3    1    5    1        0.0000001464
    3    1    6    1       -0.0000000079
    3    1    7    1       -0.0010189357
    3    1    8    1       -0.0008945794
    3    1    9    1        0.0006994180
    3    1   10    1       -0.0000002434
    3    1   11    1       -0.0010779317
    3    1   12    1       -0.0014386587
    3    1   13    1        0.0005744182
    3    1    2    2        0.0015636126
    3    1    3    2       -0.0011558560
    3    1    4    2       -0.0000000482
    3    1    5    2        0.0000000296
    3    1    6    2        0.0000000105
    3    1    7    2        0.0000263689
    3    1    8    2       -0.0001319891
    3    1    9    2       -0.0005635904
    3    1   10    2       -0.0000001079
    3    1   11    2       -0.0000181022
    3    1   12    2       -0.0002061056
    3    1   13    2       -0.0002663792
    3    1    3    3        0.0010015388
    3    1    4    3        0.0000000103
    3    1    5    3        0.0000000399
    3    1    6    3        0.0000000112
    3    1    7    3       -0.0000990787
    3    1    8    3       -0.0005500535
    3    1    9    3        0.0006326360
    3    1   10    3        0.0000001669
    3    1   11    3       -0.0000360284
    3    1   12    3       -0.0001738032
    3    1   13    3        0.0003652753
    3    1    4    4        0.0007568724
    3    1    5    4        0.0000000001
    3    1    6    4       -0.0000001359
    3    1    7    4       -0.0000000451
    3    1    8    4        0.0000000103
    3    1    9    4       -0.0000000214
    3    1   10    4        0.0005773647
    3    1   11    4       -0.0000000762
    3    1   12    4       -0.0000000652
    3    1   13    4        0.0000200483
    3    1    5    5        0.0007568892
    3    1    6    5       -0.0000000457
    3    1    7    5        0.0000000773
    3    1    8    5        0.0000000050
    3    1    9    5        0.0000000281
    3    1   10    5       -0.0003166995
    3    1   11    5        0.0000000232
    3    1   12    5        0.0000000080
    3    1   13    5       -0.0000066964
    3    1    6    6        0.0003028605
    3    1    7    6       -0.0000000009
    3    1    8    6        0.0000000220
    3    1    9    6        0.0000000050
    3    1   10    6       -0.0000004607
    3    1   11    6        0.0000000095
    3    1   12    6        0.0000000243
    3    1   13    6        0.0000190472
    3    1    7    7        0.0002400115
    3    1    8    7        0.0000628097
    3    1    9    7       -0.0001165320
    3    1   10    7       -0.0000002133
    3    1   11    7        0.0002014510
    3    1   12    7        0.0002429280
    3    1   13    7       -0.0001515206
    3    1    8    8       -0.0001929035
    3    1    9    8       -0.0003154497
    3    1   10    8        0.0000000165
    3    1   11    8       -0.0000726263
    3    1   12    8       -0.0003320958
    3    1   13    8       -0.0001299729
    3    1    9    9        0.0004626022
    3    1   10    9        0.0000000839
    3    1   11    9       -0.0000722090
    3    1   12    9       -0.0005918116
    3    1   13    9        0.0003969433
    3    1   10   10        0.0006610797
    3    1   11   10       -0.0000002894
    3    1   12   10       -0.0000000240
    3    1   13   10       -0.0000063533
    3    1   11   11        0.0003405736
    3    1   12   11        0.0000580423
    3    1   13   11       -0.0001359314
    3    1   12   12       -0.0003884345
    3    1   13   12       -0.0002087681
    3    1   13   13        0.0003455786
    4    1    4    1        0.0006250417
    4    1    5    1       -0.0000000001
    4    1    6    1       -0.0000001538
    4    1    7    1       -0.0000000071
    4    1    8    1        0.0000000392
    4    1    9    1       -0.0000000297
    4    1   10    1        0.0006694940
    4    1   11    1       -0.0000000744
    4    1   12    1       -0.0000000364
    4    1   13    1       -0.0000186866
    4    1    2    2       -0.0000021317
    4    1    3    2       -0.0000033405
    4    1    4    2       -0.0014083264
    4    1    5    2        0.0000000001
    4    1    6    2       -0.0000039048
    4    1    7    2       -0.0000015584
    4    1    8    2        0.0000009873
    4    1    9    2       -0.0000004266
    4    1   10    2       -0.0009170698
    4    1   11    2       -0.0000002385
    4    1   12    2        0.0000008365
    4    1   13    2        0.0000074026
    4    1    3    3       -0.0000061932
    4    1    4    3        0.0002335530
    4    1    5    3        0.0000000001
    4    1    6    3       -0.0000057633
    4    1    7    3       -0.0000026675
    4    1    8    3        0.0000003405
    4    1    9    3        0.0000018849
    4    1   10    3        0.0008247347
    4    1   11    3        0.0000005853
    4    1   12    3        0.0000009525
    4    1   13    3        0.0000071152
    4    1    4    4       -0.0000002735
    4    1    5    4        0.0000000278
    4    1    6    4       -0.0004701798
    4    1    7    4       -0.0005435059
    4    1    8    4       -0.0001646073
    4    1    9    4       -0.0000643564
    4    1   10    4        0.0000005917
    4    1   11    4       -0.0003792806
    4    1   12    4       -0.0002696499
    4    1   13    4       -0.0001543869
    4    1    5    5       -0.0000035336
    4    1    6    5        0.0000073520
    4    1    7    5        0.0000000001
    4    1    8    5        0.0000000005
    4    1    9    5       -0.0000000000
    4    1   10    5       -0.0000025351
    4    1   11    5       -0.0000000004
    4    1   12    5        0.0000000003
    4    1   13    5        0.0000008107
    4    1    6    6       -0.0000095734
    4    1    7    6       -0.0000023642
    4    1    8    6        0.0000007253
    4    1    9    6       -0.0000038443
    4    1   10    6       -0.0005125729
    4    1   11    6       -0.0000035930
    4    1   12    6        0.0000024424
    4    1   13    6        0.0000113624
    4    1    7    7       -0.0000057309
    4    1    8    7       -0.0000003874
    4    1    9    7       -0.0000015089
    4    1   10    7       -0.0004216285
    4    1   11    7        0.0000040102
    4    1   12    7        0.0000010026
    4    1   13    7        0.0000125699
    4    1    8    8       -0.0000075628
    4    1    9    8        0.0000005157
    4    1   10    8       -0.0000633434
    4    1   11    8       -0.0000006858
    4    1   12    8        0.0000033416
    4    1   13    8        0.0000331545
    4    1    9    9       -0.0000083480
    4    1   10    9        0.0000436424
    4    1   11    9       -0.0000029377
    4    1   12    9        0.0000005516
    4    1   13    9        0.0000050845
    4    1   10   10        0.0000002151
    4    1   11   10       -0.0004666932
    4    1   12   10       -0.0001777105
    4    1   13   10       -0.0000695400
    4    1   11   11       -0.0000083047
    4    1   12   11        0.0000002457
    4    1   13   11        0.0000069927
    4    1   12   12       -0.0000082620
    4    1   13   12        0.0000174063
    4    1   13   13       -0.0000038382
    5    1    5    1        0.0006250094
    5    1    6    1       -0.0000000296
    5    1    7    1       -0.0000000385
    5    1    8    1       -0.0000001004
    5    1    9    1        0.0000000598
    5    1   10    1       -0.0003675230
    5    1   11    1       -0.0000000738
    5    1   12    1       -0.0000001333
    5    1   13    1        0.0000268334
    5    1    2    2        0.0000022270
    5    1    3    2        0.0000033499
    5    1    4    2       -0.0000000008
    5    1    5    2       -0.0014082888
    5    1    6    2       -0.0000040933
    5    1    7    2        0.0000014843
    5    1    8    2       -0.0000010660
    5    1    9    2        0.0000004694
    5    1   10    2        0.0005032867
    5    1   11    2        0.0000003159
    5    1   12    2       -0.0000008191
    5    1   13    2       -0.0000211542
    5    1    3    3        0.0000063291
    5    1    4    3       -0.0000000012
    5    1    5    3        0.0002335504
    5    1    6    3       -0.0000056144
    5    1    7    3        0.0000027280
    5    1    8    3       -0.0000003618
    5    1    9    3       -0.0000019006
    5    1   10    3       -0.0004524236
    5    1   11    3       -0.0000006484
    5    1   12    3       -0.0000010155
    5    1   13    3        0.0000020141
    5    1    4    4        0.0000035858
    5    1    5    4        0.0000000370
    5    1    6    4        0.0000073531
    5    1    7    4       -0.0000000004
    5    1    8    4        0.0000000005
    5    1    9    4       -0.0000000005
    5    1   10    4       -0.0000047761
    5    1   11    4       -0.0000000003
    5    1   12    4        0.0000000012
    5    1   13    4        0.0000010265
    5    1    5    5        0.0000002667
    5    1    6    5        0.0004701486
    5    1    7    5       -0.0005434978
    5    1    8    5       -0.0001645555
    5    1    9    5       -0.0000643435
    5    1   10    5       -0.0000010093
    5    1   11    5       -0.0003792622
    5    1   12    5       -0.0002696297
    5    1   13    5       -0.0000562560
    5    1    6    6        0.0000099332
    5    1    7    6       -0.0000023871
    5    1    8    6        0.0000006973
    5    1    9    6       -0.0000038023
    5    1   10    6       -0.0002706317
    5    1   11    6       -0.0000036397
    5    1   12    6        0.0000023239
    5    1   13    6       -0.0000002530
    5    1    7    7        0.0000057545
    5    1    8    7        0.0000003659
    5    1    9    7        0.0000015504
    5    1   10    7        0.0002321229
    5    1   11    7       -0.0000040531
    5    1   12    7       -0.0000010047
    5    1   13    7       -0.0000496954
    5    1    8    8        0.0000076572
    5    1    9    8       -0.0000005347
    5    1   10    8        0.0000347087
    5    1   11    8        0.0000006884
    5    1   12    8       -0.0000034230
    5    1   13    8       -0.0000149515
    5    1    9    9        0.0000085012
    5    1   10    9       -0.0000239388
    5    1   11    9        0.0000029999
    5    1   12    9       -0.0000005804
    5    1   13    9       -0.0000029291
    5    1   10   10        0.0000085700
    5    1   11   10        0.0002560943
    5    1   12   10        0.0000976395
    5    1   13   10       -0.0000338311
    5    1   11   11        0.0000085204
    5    1   12   11       -0.0000002048
    5    1   13   11       -0.0000092392
    5    1   12   12        0.0000083813
    5    1   13   12       -0.0000174108
    5    1   13   13        0.0000065154
    6    1    6    1        0.0000130124
    6    1    7    1        0.0000000033
    6    1    8    1        0.0000000000
    6    1    9    1       -0.0000000071
    6    1   10    1       -0.0000002004
    6    1   11    1        0.0000000045
    6    1   12    1       -0.0000000013
    6    1   13    1        0.0000026724
    6    1    2    2       -0.0000000426
    6    1    3    2        0.0000000319
    6    1    4    2        0.0000002758
    6    1    5    2        0.0000000120
    6    1    6    2       -0.0000998837
    6    1    7    2       -0.0000000045
    6    1    8    2       -0.0000000031
    6    1    9    2        0.0000000151
    6    1   10    2        0.0000004167
    6    1   11    2       -0.0000000059
    6    1   12    2       -0.0000000012
    6    1   13    2       -0.0000117332
    6    1    3    3       -0.0000000264
    6    1    4    3       -0.0000000964
    6    1    5    3       -0.0000000433
    6    1    6    3       -0.0000290728
    6    1    7    3        0.0000000059
    6    1    8    3        0.0000000147
    6    1    9    3       -0.0000000184
    6    1   10    3       -0.0000001822
    6    1   11    3        0.0000000054
    6    1   12    3        0.0000000085
    6    1   13    3        0.0000005664
    6    1    4    4       -0.0000758091
    6    1    5    4        0.0000011851
    6    1    6    4        0.0000000953
    6    1    7    4        0.0000001115
    6    1    8    4        0.0000000418
    6    1    9    4       -0.0000000181
    6    1   10    4       -0.0001019993
    6    1   11    4        0.0000000877
    6    1   12    4        0.0000000822
    6    1   13    4        0.0000017316
    6    1    5    5        0.0000757660
    6    1    6    5        0.0000000139
    6    1    7    5        0.0000000170
    6    1    8    5        0.0000000134
    6    1    9    5       -0.0000000208
    6    1   10    5       -0.0000538589
    6    1   11    5        0.0000000157
    6    1   12    5        0.0000000219
    6    1   13    5        0.0000005668
    6    1    6    6       -0.0000000083
    6    1    7    6       -0.0000584320
    6    1    8    6       -0.0000157835
    6    1    9    6       -0.0000739555
    6    1   10    6        0.0000001037
    6    1   11    6       -0.0000696651
    6    1   12    6       -0.0000009000
    6    1   13    6       -0.0000348509
    6    1    7    7       -0.0000000041
    6    1    8    7       -0.0000000062
    6    1    9    7        0.0000000044
    6    1   10    7        0.0000004059
    6    1   11    7       -0.0000000048
    6    1   12    7       -0.0000000103
    6    1   13    7       -0.0000169184
    6    1    8    8        0.0000000031
    6    1    9    8        0.0000000061
    6    1   10    8        0.0000000520
    6    1   11    8       -0.0000000037
    6    1   12    8        0.0000000054
    6    1   13    8       -0.0000017074
    6    1    9    9       -0.0000000129
    6    1   10    9        0.0000001591
    6    1   11    9        0.0000000024
    6    1   12    9        0.0000000166
    6    1   13    9       -0.0000095456
    6    1   10   10       -0.0000503578
    6    1   11   10        0.0000002670
    6    1   12   10        0.0000001030
    6    1   13   10        0.0000000752
    6    1   11   11       -0.0000000077
    6    1   12   11       -0.0000000057
    6    1   13   11       -0.0000086012
    6    1   12   12        0.0000000068
    6    1   13   12       -0.0000027589
    6    1   13   13       -0.0000254022
    7    1    7    1        0.0007908587
    7    1    8    1        0.0007337710
    7    1    9    1       -0.0004548016
    7    1   10    1        0.0000001304
    7    1   11    1        0.0008269002
    7    1   12    1        0.0011890331
    7    1   13    1       -0.0003690429
    7    1    2    2       -0.0003006339
    7    1    3    2        0.0001614425
    7    1    4    2        0.0000000448
    7    1    5    2       -0.0000001480
    7    1    6    2       -0.0000000035
    7    1    7    2        0.0000009066
    7    1    8    2        0.0001650147
    7    1    9    2        0.0000340728
    7    1   10    2        0.0000001142
    7    1   11    2        0.0000439778
    7    1   12    2        0.0002023716
    7    1   13    2       -0.0000382067
    7    1    3    3       -0.0001438074
    7    1    4    3       -0.0000000411
    7    1    5    3        0.0000000544
    7    1    6    3       -0.0000000068
    7    1    7    3       -0.0000712153
    7    1    8    3        0.0001538000
    7    1    9    3       -0.0000719179
    7    1   10    3       -0.0000001192
    7    1   11    3       -0.0000421394
    7    1   12    3       -0.0000018704
    7    1   13    3       -0.0000104131
    7    1    4    4       -0.0002604115
    7    1    5    4       -0.0000000001
    7    1    6    4        0.0000000338
    7    1    7    4        0.0000000269
    7    1    8    4        0.0000000057
    7    1    9    4       -0.0000000072
    7    1   10    4       -0.0001735691
    7    1   11    4        0.0000000419
    7    1   12    4        0.0000000329
    7    1   13    4       -0.0000086672
    7    1    5    5       -0.0002604206
    7    1    6    5        0.0000000448
    7    1    7    5       -0.0000000810
    7    1    8    5       -0.0000000241
    7    1    9    5        0.0000000115
    7    1   10    5        0.0000952825
    7    1   11    5       -0.0000000613
    7    1   12    5       -0.0000000382
    7    1   13    5       -0.0000003326
    7    1    6    6       -0.0001573480
    7    1    7    6        0.0000000056
    7    1    8    6       -0.0000000110
    7    1    9    6       -0.0000000046
    7    1   10    6        0.0000003787
    7    1   11    6        0.0000000019
    7    1   12    6       -0.0000000127
    7    1   13    6       -0.0000196437
    7    1    7    7       -0.0000575042
    7    1    8    7       -0.0000314039
    7    1    9    7       -0.0000674548
    7    1   10    7        0.0000001220
    7    1   11    7        0.0000181081
    7    1   12    7       -0.0000762070
    7    1   13    7       -0.0000270385
    7    1    8    8        0.0001212676
    7    1    9    8        0.0000989321
    7    1   10    8       -0.0000000127
    7    1   11    8        0.0000304619
    7    1   12    8        0.0002432741
    7    1   13    8        0.0000153081
    7    1    9    9       -0.0000531026
    7    1   10    9       -0.0000000715
    7    1   11    9       -0.0000803874
    7    1   12    9        0.0002132074
    7    1   13    9       -0.0000564243
    7    1   10   10       -0.0001858884
    7    1   11   10        0.0000001371
    7    1   12   10       -0.0000000126
    7    1   13   10        0.0000015951
    7    1   11   11       -0.0000473093
    7    1   12   11       -0.0000015259
    7    1   13   11       -0.0000726886
    7    1   12   12        0.0003050403
    7    1   13   12        0.0000458048
    7    1   13   13       -0.0000391002
    8    1    8    1        0.0007573678
    8    1    9    1       -0.0003350034
    8    1   10    1        0.0000002125
    8    1   11    1        0.0007561885
    8    1   12    1        0.0012404138
    8    1   13    1       -0.0002706976
    8    1    2    2        0.0004418861
    8    1    3    2       -0.0003427887
    8    1    4    2       -0.0000000320
    8    1    5    2       -0.0000000376
    8    1    6    2       -0.0000000008
    8    1    7    2        0.0001562345
    8    1    8    2        0.0001147323
    8    1    9    2       -0.0001983791
    8    1   10    2       -0.0000000043
    8    1   11    2        0.0001672907
    8    1   12    2        0.0001953049
    8    1   13    2       -0.0001629823
    8    1    3    3        0.0003005118
    8    1    4    3       -0.0000000013
    8    1    5    3        0.0000000301
    8    1    6    3       -0.0000000023
    8    1    7    3       -0.0001268542
    8    1    8    3       -0.0001468900
    8    1    9    3        0.0002063044
    8    1   10    3        0.0000000285
    8    1   11    3       -0.0001372646
    8    1   12    3       -0.0001579415
    8    1   13    3        0.0001712536
    8    1    4    4        0.0001569496
    8    1    5    4        0.0000000000
    8    1    6    4       -0.0000000443
    8    1    7    4       -0.0000000220
    8    1    8    4       -0.0000000085
    8    1    9    4       -0.0000000067
    8    1   10    4        0.0001428061
    8    1   11    4       -0.0000000276
    8    1   12    4       -0.0000000221
    8    1   13    4       -0.0000006045
    8    1    5    5        0.0001569520
    8    1    6    5       -0.0000000037
    8    1    7    5        0.0000000029
    8    1    8    5       -0.0000000006
    8    1    9    5        0.0000000116
    8    1   10    5       -0.0000783811
    8    1   11    5       -0.0000000079
    8    1   12    5       -0.0000000101
    8    1   13    5        0.0000032280
    8    1    6    6        0.0000374959
    8    1    7    6       -0.0000000015
    8    1    8    6        0.0000000015
    8    1    9    6       -0.0000000043
    8    1   10    6       -0.0000001074
    8    1   11    6       -0.0000000008
    8    1   12    6        0.0000000016
    8    1   13    6        0.0000033733
    8    1    7    7        0.0001015957
    8    1    8    7        0.0000682990
    8    1    9    7       -0.0000775233
    8    1   10    7       -0.0000000207
    8    1   11    7        0.0001009923
    8    1   12    7        0.0001243912
    8    1   13    7       -0.0000718192
    8    1    8    8        0.0000595520
    8    1    9    8       -0.0000707863
    8    1   10    8        0.0000000177
    8    1   11    8        0.0000608815
    8    1   12    8        0.0000974063
    8    1   13    8       -0.0000513428
    8    1    9    9        0.0001611962
    8    1   10    9        0.0000000037
    8    1   11    9       -0.0000846844
    8    1   12    9       -0.0001177311
    8    1   13    9        0.0001471559
    8    1   10   10        0.0001909312
    8    1   11   10       -0.0000000354
    8    1   12   10       -0.0000000067
    8    1   13   10       -0.0000054850
    8    1   11   11        0.0001211007
    8    1   12   11        0.0001085774
    8    1   13   11       -0.0000776168
    8    1   12   12        0.0001784393
    8    1   13   12       -0.0000748766
    8    1   13   13        0.0001329089
    9    1    9    1        0.0004182228
    9    1   10    1       -0.0000001120
    9    1   11    1       -0.0004952993
    9    1   12    1       -0.0005272483
    9    1   13    1        0.0003497460
    9    1    2    2        0.0015374007
    9    1    3    2       -0.0011874414
    9    1    4    2       -0.0000000022
    9    1    5    2        0.0000000245
    9    1    6    2        0.0000000096
    9    1    7    2        0.0001367321
    9    1    8    2        0.0000060547
    9    1    9    2       -0.0006383025
    9    1   10    2       -0.0000000802
    9    1   11    2        0.0001084147
    9    1   12    2       -0.0000129026
    9    1   13    2       -0.0003738035
    9    1    3    3        0.0010491214
    9    1    4    3       -0.0000000017
    9    1    5    3        0.0000000478
    9    1    6    3        0.0000000062
    9    1    7    3       -0.0001779977
    9    1    8    3       -0.0005077648
    9    1    9    3        0.0006836308
    9    1   10    3        0.0000001301
    9    1   11    3       -0.0001362000
    9    1   12    3       -0.0002501960
    9    1   13    3        0.0004480444
    9    1    4    4        0.0006770510
    9    1    5    4        0.0000000000
    9    1    6    4       -0.0000001225
    9    1    7    4       -0.0000000251
    9    1    8    4        0.0000000193
    9    1    9    4       -0.0000000223
    9    1   10    4        0.0005444762
    9    1   11    4       -0.0000000632
    9    1   12    4       -0.0000000501
    9    1   13    4        0.0000136607
    9    1    5    5        0.0006770621
    9    1    6    5       -0.0000000526
    9    1    7    5        0.0000000702
    9    1    8    5       -0.0000000044
    9    1    9    5        0.0000000382
    9    1   10    5       -0.0002986916
    9    1   11    5        0.0000000213
    9    1   12    5        0.0000000022
    9    1   13    5       -0.0000022127
    9    1    6    6        0.0002334362
    9    1    7    6       -0.0000000000
    9    1    8    6        0.0000000171
    9    1    9    6        0.0000000015
    9    1   10    6       -0.0000003605
    9    1   11    6        0.0000000082
    9    1   12    6        0.0000000193
    9    1   13    6        0.0000145568
    9    1    7    7        0.0002423827
    9    1    8    7        0.0000941213
    9    1    9    7       -0.0001601808
    9    1   10    7       -0.0000001695
    9    1   11    7        0.0002176065
    9    1   12    7        0.0002575444
    9    1   13    7       -0.0001796415
    9    1    8    8       -0.0001017564
    9    1    9    8       -0.0002969423
    9    1   10    8        0.0000000155
    9    1   11    8       -0.0000085699
    9    1   12    8       -0.0001892703
    9    1   13    8       -0.0001467316
    9    1    9    9        0.0005069420
    9    1   10    9        0.0000000780
    9    1   11    9       -0.0001324661
    9    1   12    9       -0.0005239451
    9    1   13    9        0.0004353694
    9    1   10   10        0.0006566014
    9    1   11   10       -0.0000002357
    9    1   12   10       -0.0000000215
    9    1   13   10       -0.0000082901
    9    1   11   11        0.0003349454
    9    1   12   11        0.0001226484
    9    1   13   11       -0.0001758428
    9    1   12   12       -0.0001908197
    9    1   13   12       -0.0002245968
    9    1   13   13        0.0003857876
   10    1   10    1        0.0009432903
   10    1   11    1        0.0000000826
   10    1   12    1        0.0000002225
   10    1   13    1       -0.0000354036
   10    1    2    2       -0.0000029596
   10    1    3    2       -0.0000049502
   10    1    4    2       -0.0014098127
   10    1    5    2        0.0007739181
   10    1    6    2       -0.0000011753
   10    1    7    2       -0.0000021790
   10    1    8    2        0.0000016211
   10    1    9    2       -0.0000008479
   10    1   10    2       -0.0012661404
   10    1   11    2       -0.0000003991
   10    1   12    2        0.0000012532
   10    1   13    2        0.0000185283
   10    1    3    3       -0.0000086860
   10    1    4    3        0.0003093651
   10    1    5    3       -0.0001697853
   10    1    6    3       -0.0000024158
   10    1    7    3       -0.0000038924
   10    1    8    3        0.0000006834
   10    1    9    3        0.0000026196
   10    1   10    3        0.0010929080
   10    1   11    3        0.0000007553
   10    1   12    3        0.0000012370
   10    1   13    3        0.0000030095
   10    1    4    4       -0.0000018017
   10    1    5    4       -0.0000000182
   10    1    6    4       -0.0004772450
   10    1    7    4       -0.0005394459
   10    1    8    4       -0.0001476356
   10    1    9    4       -0.0000198358
   10    1   10    4        0.0000034572
   10    1   11    4       -0.0003963947
   10    1   12    4       -0.0002589059
   10    1   13    4       -0.0001284798
   10    1    5    5       -0.0000036888
   10    1    6    5       -0.0002523308
   10    1    7    5        0.0002961783
   10    1    8    5        0.0000810296
   10    1    9    5        0.0000109064
   10    1   10    5       -0.0000015506
   10    1   11    5        0.0002176074
   10    1   12    5        0.0001421383
   10    1   13    5        0.0000147420
   10    1    6    6       -0.0000140780
   10    1    7    6       -0.0000007419
   10    1    8    6        0.0000004418
   10    1    9    6       -0.0000014242
   10    1   10    6       -0.0003571752
   10    1   11    6       -0.0000012297
   10    1   12    6        0.0000011196
   10    1   13    6        0.0000103408
   10    1    7    7       -0.0000081707
   10    1    8    7       -0.0000005265
   10    1    9    7       -0.0000023154
   10    1   10    7       -0.0005702013
   10    1   11    7        0.0000056951
   10    1   12    7        0.0000013734
   10    1   13    7        0.0000379121
   10    1    8    8       -0.0000107969
   10    1    9    8        0.0000006720
   10    1   10    8       -0.0001176564
   10    1   11    8       -0.0000009028
   10    1   12    8        0.0000047156
   10    1   13    8        0.0000373778
   10    1    9    9       -0.0000118457
   10    1   10    9        0.0001130899
   10    1   11    9       -0.0000043357
   10    1   12    9        0.0000010554
   10    1   13    9        0.0000047787
   10    1   10   10       -0.0000037245
   10    1   11   10       -0.0006264456
   10    1   12   10       -0.0002452028
   10    1   13   10       -0.0000157248
   10    1   11   11       -0.0000118278
   10    1   12   11        0.0000005117
   10    1   13   11        0.0000128102
   10    1   12   12       -0.0000117120
   10    1   13   12        0.0000255105
   10    1   13   13       -0.0000083212
   11    1   11    1        0.0008682372
   11    1   12    1        0.0012247115
   11    1   13    1       -0.0004042939
   11    1    2    2       -0.0004400431
   11    1    3    2        0.0002763143
   11    1    4    2        0.0000001979
   11    1    5    2       -0.0000000838
   11    1    6    2       -0.0000000065
   11    1    7    2       -0.0000247755
   11    1    8    2        0.0001507300
   11    1    9    2        0.0001018785
   11    1   10    2        0.0000001973
   11    1   11    2        0.0000093724
   11    1   12    2        0.0001844739
   11    1   13    2        0.0000105023
   11    1    3    3       -0.0002470515
   11    1    4    3       -0.0000000649
   11    1    5    3        0.0000000323
   11    1    6    3       -0.0000000062
   11    1    7    3       -0.0000364470
   11    1    8    3        0.0001910593
   11    1    9    3       -0.0001448885
   11    1   10    3       -0.0000002038
   11    1   11    3       -0.0000174409
   11    1   12    3        0.0000263540
   11    1   13    3       -0.0000646223
   11    1    4    4       -0.0003230477
   11    1    5    4       -0.0000000000
   11    1    6    4        0.0000000979
   11    1    7    4        0.0000000931
   11    1    8    4        0.0000000172
   11    1    9    4       -0.0000000012
   11    1   10    4       -0.0002322147
   11    1   11    4        0.0000000880
   11    1   12    4        0.0000000652
   11    1   13    4       -0.0000089847
   11    1    5    5       -0.0003230525
   11    1    6    5        0.0000000285
   11    1    7    5       -0.0000000668
   11    1    8    5       -0.0000000118
   11    1    9    5        0.0000000109
   11    1   10    5        0.0001274517
   11    1   11    5       -0.0000000416
   11    1   12    5       -0.0000000235
   11    1   13    5       -0.0000006150
   11    1    6    6       -0.0001782453
   11    1    7    6        0.0000000045
   11    1    8    6       -0.0000000128
   11    1    9    6       -0.0000000056
   11    1   10    6        0.0000004740
   11    1   11    6        0.0000000000
   11    1   12    6       -0.0000000141
   11    1   13    6       -0.0000205023
   11    1    7    7       -0.0000761218
   11    1    8    7       -0.0000413178
   11    1    9    7       -0.0000454566
   11    1   10    7        0.0000001660
   11    1   11    7       -0.0000082558
   11    1   12    7       -0.0000998524
   11    1   13    7       -0.0000118411
   11    1    8    8        0.0001197852
   11    1    9    8        0.0001224299
   11    1   10    8       -0.0000000072
   11    1   11    8        0.0000233617
   11    1   12    8        0.0002390807
   11    1   13    8        0.0000332443
   11    1    9    9       -0.0001094255
   11    1   10    9       -0.0000000797
   11    1   11    9       -0.0000599329
   11    1   12    9        0.0002527467
   11    1   13    9       -0.0001036136
   11    1   10   10       -0.0002624954
   11    1   11   10        0.0000001995
   11    1   12   10        0.0000000093
   11    1   13   10        0.0000029836
   11    1   11   11       -0.0000725652
   11    1   12   11       -0.0000170110
   11    1   13   11       -0.0000494662
   11    1   12   12        0.0003020014
   11    1   13   12        0.0000684602
   11    1   13   13       -0.0000835210
   12    1   12    1        0.0020372170
   12    1   13    1       -0.0004268021
   12    1    2    2        0.0008288931
   12    1    3    2       -0.0006475479
   12    1    4    2        0.0000001750
   12    1    5    2       -0.0000001356
   12    1    6    2        0.0000000047
   12    1    7    2        0.0002436234
   12    1    8    2        0.0001897771
   12    1    9    2       -0.0003717431
   12    1   10    2        0.0000001534
   12    1   11    2        0.0002555545
   12    1   12    2        0.0003025465
   12    1   13    2       -0.0002885247
   12    1    3    3        0.0005649148
   12    1    4    3       -0.0000000281
   12    1    5    3        0.0000000482
   12    1    6    3       -0.0000000004
   12    1    7    3       -0.0002047712
   12    1    8    3       -0.0002734914
   12    1    9    3        0.0003776757
   12    1   10    3       -0.0000001060
   12    1   11    3       -0.0002134582
   12    1   12    3       -0.0002783470
   12    1   13    3        0.0003020510
   12    1    4    4        0.0002789601
   12    1    5    4        0.0000000000
   12    1    6    4        0.0000000082
   12    1    7    4        0.0000000537
   12    1    8    4        0.0000000218
   12    1    9    4       -0.0000000008
   12    1   10    4        0.0002510565
   12    1   11    4        0.0000000151
   12    1   12    4        0.0000000044
   12    1   13    4        0.0000004991
   12    1    5    5        0.0002789578
   12    1    6    5        0.0000000233
   12    1    7    5       -0.0000000250
   12    1    8    5       -0.0000000200
   12    1    9    5        0.0000000152
   12    1   10    5       -0.0001377673
   12    1   11    5       -0.0000000320
   12    1   12    5       -0.0000000308
   12    1   13    5        0.0000038512
   12    1    6    6        0.0000714291
   12    1    7    6        0.0000000007
   12    1    8    6        0.0000000049
   12    1    9    6       -0.0000000018
   12    1   10    6       -0.0000001027
   12    1   11    6        0.0000000035
   12    1   12    6        0.0000000048
   12    1   13    6        0.0000052005
   12    1    7    7        0.0001735918
   12    1    8    7        0.0001236884
   12    1    9    7       -0.0001332048
   12    1   10    7        0.0000000306
   12    1   11    7        0.0001736377
   12    1   12    7        0.0002256578
   12    1   13    7       -0.0001303971
   12    1    8    8        0.0000799683
   12    1    9    8       -0.0001440027
   12    1   10    8        0.0000000345
   12    1   11    8        0.0000987377
   12    1   12    8        0.0001256470
   12    1   13    8       -0.0000972295
   12    1    9    9        0.0002878910
   12    1   10    9        0.0000000243
   12    1   11    9       -0.0001385562
   12    1   12    9       -0.0002378878
   12    1   13    9        0.0002587600
   12    1   10   10        0.0003312485
   12    1   11   10        0.0000000130
   12    1   12   10        0.0000000350
   12    1   13   10       -0.0000082141
   12    1   11   11        0.0002174363
   12    1   12   11        0.0001957848
   12    1   13   11       -0.0001399867
   12    1   12   12        0.0002454923
   12    1   13   12       -0.0001464631
   12    1   13   13        0.0002353178
   13    1   13    1        0.0002977013
   13    1    2    2        0.0012167406
   13    1    3    2       -0.0009670966
   13    1    4    2        0.0000330667
   13    1    5    2       -0.0000523028
   13    1    6    2       -0.0000182618
   13    1    7    2        0.0001287246
   13    1    8    2        0.0000345476
   13    1    9    2       -0.0005468651
   13    1   10    2        0.0000373932
   13    1   11    2        0.0001130724
   13    1   12    2        0.0000239057
   13    1   13    2       -0.0003465656
   13    1    3    3        0.0008659203
   13    1    4    3       -0.0000009729
   13    1    5    3        0.0000065010
   13    1    6    3       -0.0000045307
   13    1    7    3       -0.0001642542
   13    1    8    3       -0.0003892295
   13    1    9    3        0.0005754589
   13    1   10    3       -0.0000361665
   13    1   11    3       -0.0001332935
   13    1   12    3       -0.0002125357
   13    1   13    3        0.0003920070
   13    1    4    4        0.0004984225
   13    1    5    4        0.0000002732
   13    1    6    4        0.0000126676
   13    1    7    4        0.0000150616
   13    1    8    4        0.0000084848
   13    1    9    4        0.0000039691
   13    1   10    4        0.0004049823
   13    1   11    4        0.0000100081
   13    1   12    4        0.0000104057
   13    1   13    4        0.0000147135
   13    1    5    5        0.0005273189
   13    1    6    5        0.0000173345
   13    1    7    5       -0.0000232781
   13    1    8    5       -0.0000082956
   13    1    9    5       -0.0000034912
   13    1   10    5       -0.0002432413
   13    1   11    5       -0.0000155591
   13    1   12    5       -0.0000125369
   13    1   13    5       -0.0000033686
   13    1    6    6        0.0001643860
   13    1    7    6       -0.0000121831
   13    1    8    6       -0.0000024264
   13    1    9    6       -0.0000133714
   13    1   10    6        0.0000024846
   13    1   11    6       -0.0000129955
   13    1   12    6       -0.0000003065
   13    1   13    6        0.0000014389
   13    1    7    7        0.0001827084
   13    1    8    7        0.0000743724
   13    1    9    7       -0.0001446573
   13    1   10    7        0.0000201357
   13    1   11    7        0.0001690462
   13    1   12    7        0.0001949962
   13    1   13    7       -0.0001589738
   13    1    8    8       -0.0000658741
   13    1    9    8       -0.0002344437
   13    1   10    8        0.0000014246
   13    1   11    8        0.0000040416
   13    1   12    8       -0.0001269466
   13    1   13    8       -0.0001283483
   13    1    9    9        0.0004276424
   13    1   10    9        0.0000010244
   13    1   11    9       -0.0001256622
   13    1   12    9       -0.0004010400
   13    1   13    9        0.0003633850
   13    1   10   10        0.0005128994
   13    1   11   10        0.0000222815
   13    1   12   10        0.0000102338
   13    1   13   10       -0.0000049822
   13    1   11   11        0.0002550968
   13    1   12   11        0.0001020370
   13    1   13   11       -0.0001578424
   13    1   12   12       -0.0001278403
   13    1   13   12       -0.0001885488
   13    1   13   13        0.0003216484
    2    2    2    2        0.1091967341
    2    2    3    2       -0.0311494375
    2    2    4    2        0.0000357423
    2    2    5    2       -0.0000368717
    2    2    6    2        0.0000000296
    2    2    7    2        0.0017826552
    2    2    8    2        0.0022651699
    2    2    9    2       -0.0091246236
    2    2   10    2        0.0000104213
    2    2   11    2       -0.0006734652
    2    2   12    2        0.0000384759
    2    2   13    2       -0.0032314072
    2    2    3    3        0.0877634176
    2    2    4    3        0.0000188327
    2    2    5    3       -0.0000178162
    2    2    6    3        0.0000001066
    2    2    7    3       -0.0022234825
    2    2    8    3       -0.0098023821
    2    2    9    3        0.0211153933
    2    2   10    3       -0.0000271807
    2    2   11    3       -0.0007169579
    2    2   12    3       -0.0025390265
    2    2   13    3        0.0082504617
    2    2    4    4        0.0885573005
    2    2    5    4       -0.0000000592
    2    2    6    4        0.0000157261
    2    2    7    4        0.0000049654
    2    2    8    4       -0.0000094095
    2    2    9    4        0.0000070241
    2    2   10    4        0.0178269439
    2    2   11    4        0.0000007658
    2    2   12    4       -0.0000033370
    2    2   13    4        0.0002269306
    2    2    5    5        0.0885574955
    2    2    6    5        0.0000184829
    2    2    7    5       -0.0000041972
    2    2    8    5        0.0000100521
    2    2    9    5       -0.0000073369
    2    2   10    5       -0.0097782951
    2    2   11    5       -0.0000030746
    2    2   12    5        0.0000014078
    2    2   13    5       -0.0000335037
    2    2    6    6        0.0736464310
    2    2    7    6        0.0000001194
    2    2    8    6        0.0000003539
    2    2    9    6       -0.0000000459
    2    2   10    6       -0.0000152218
    2    2   11    6        0.0000005168
    2    2   12    6        0.0000000361
    2    2   13    6        0.0010834923
    2    2    7    7        0.0753807496
    2    2    8    7        0.0017181373
    2    2    9    7       -0.0042468855
    2    2   10    7        0.0000048255
    2    2   11    7        0.0141214959
    2    2   12    7        0.0069753997
    2    2   13    7       -0.0034010089
    2    2    8    8        0.0660619021
    2    2    9    8       -0.0040836294
    2    2   10    8       -0.0000017747
    2    2   11    8       -0.0016319820
    2    2   12    8        0.0069166028
    2    2   13    8       -0.0018417579
    2    2    9    9        0.0732933709
    2    2   10    9        0.0000264542
    2    2   11    9       -0.0026846529
    2    2   12    9       -0.0082418644
    2    2   13    9        0.0155345416
    2    2   10   10        0.0811770552
    2    2   11   10        0.0000066552
    2    2   12   10       -0.0000107409
    2    2   13   10       -0.0001532156
    2    2   11   11        0.0766491728
    2    2   12   11        0.0022792607
    2    2   13   11       -0.0068411026
    2    2   12   12        0.0669924745
    2    2   13   12       -0.0028708331
    2    2   13   13        0.0704706439
    3    2    3    2        0.0221697318
    3    2    4    2        0.0000550381
    3    2    5    2       -0.0000553132
    3    2    6    2        0.0000000019
    3    2    7    2       -0.0015411758
    3    2    8    2       -0.0036935734
    3    2    9    2        0.0092652462
    3    2   10    2        0.0000126062
    3    2   11    2       -0.0000532778
    3    2   12    2       -0.0013390185
    3    2   13    2        0.0041278378
    3    2    3    3       -0.0200919137
    3    2    4    3        0.0000306392
    3    2    5    3       -0.0000319888
    3    2    6    3        0.0000000053
    3    2    7    3        0.0025252999
    3    2    8    3        0.0050931838
    3    2    9    3       -0.0133378470
    3    2   10    3       -0.0000523084
    3    2   11    3        0.0008095087
    3    2   12    3        0.0027495232
    3    2   13    3       -0.0069721484
    3    2    4    4       -0.0150282754
    3    2    5    4       -0.0000001632
    3    2    6    4        0.0000295408
    3    2    7    4        0.0000099735
    3    2    8    4       -0.0000125208
    3    2    9    4        0.0000091253
    3    2   10    4       -0.0106547959
    3    2   11    4        0.0000035335
    3    2   12    4        0.0000009949
    3    2   13    4       -0.0000542518
    3    2    5    5       -0.0150283519
    3    2    6    5        0.0000272612
    3    2    7    5       -0.0000105304
    3    2    8    5        0.0000124892
    3    2    9    5       -0.0000093855
    3    2   10    5        0.0058439145
    3    2   11    5       -0.0000021989
    3    2   12    5        0.0000000628
    3    2   13    5       -0.0000010326
    3    2    6    6       -0.0059397704
    3    2    7    6       -0.0000001144
    3    2    8    6       -0.0000001539
    3    2    9    6        0.0000000602
    3    2   10    6        0.0000221533
    3    2   11    6       -0.0000003104
    3    2   12    6       -0.0000000226
    3    2   13    6       -0.0004152006
    3    2    7    7       -0.0083026721
    3    2    8    7       -0.0009390302
    3    2    9    7        0.0031932730
    3    2   10    7        0.0000121835
    3    2   11    7       -0.0081279596
    3    2   12    7       -0.0035208566
    3    2   13    7        0.0028267063
    3    2    8    8       -0.0030456963
    3    2    9    8        0.0029627683
    3    2   10    8       -0.0000049048
    3    2   11    8        0.0005491978
    3    2   12    8       -0.0035802683
    3    2   13    8        0.0016750159
    3    2    9    9       -0.0105917421
    3    2   10    9        0.0000397296
    3    2   11    9        0.0027301434
    3    2   12    9        0.0038700373
    3    2   13    9       -0.0088325212
    3    2   10   10       -0.0132820298
    3    2   11   10        0.0000200481
    3    2   12   10       -0.0000067497
    3    2   13   10        0.0000866465
    3    2   11   11       -0.0101533446
    3    2   12   11       -0.0022227031
    3    2   13   11        0.0048493261
    3    2   12   12       -0.0044633429
    3    2   13   12        0.0024446117
    3    2   13   13       -0.0084507757
    4    2    4    2        0.0161449612
    4    2    5    2       -0.0000000447
    4    2    6    2        0.0000652380
    4    2    7    2        0.0000184478
    4    2    8    2       -0.0000296245
    4    2    9    2        0.0000022396
    4    2   10    2        0.0065878524
    4    2   11    2        0.0000066038
    4    2   12    2       -0.0000078220
    4    2   13    2        0.0000911746
    4    2    3    3        0.0001000900
    4    2    4    3        0.0013704562
    4    2    5    3       -0.0000001111
    4    2    6    3        0.0000887589
    4    2    7    3        0.0000313461
    4    2    8    3       -0.0000323132
    4    2    9    3       -0.0000381730
    4    2   10    3       -0.0079126028
    4    2   11    3       -0.0000091921
    4    2   12    3       -0.0000012683
    4    2   13    3       -0.0000340284
    4    2    4    4        0.0000026593
    4    2    5    4       -0.0000160612
    4    2    6    4        0.0051871657
    4    2    7    4        0.0013874058
    4    2    8    4       -0.0029888237
    4    2    9    4        0.0025835628
    4    2   10    4       -0.0000019440
    4    2   11    4        0.0008027623
    4    2   12    4       -0.0009309701
    4    2   13    4        0.0025515025
    4    2    5    5        0.0000591118
    4    2    6    5       -0.0000811858
    4    2    7    5       -0.0000000491
    4    2    8    5        0.0000000518
    4    2    9    5        0.0000000734
    4    2   10    5        0.0000497635
    4    2   11    5        0.0000000600
    4    2   12    5       -0.0000000358
    4    2   13    5       -0.0000047530
    4    2    6    6        0.0001509757
    4    2    7    6        0.0000223272
    4    2    8    6       -0.0000360488
    4    2    9    6        0.0000551998
    4    2   10    6        0.0066015048
    4    2   11    6        0.0000606900
    4    2   12    6       -0.0000424747
    4    2   13    6       -0.0001107417
    4    2    7    7        0.0000851216
    4    2    8    7        0.0000021066
    4    2    9    7        0.0000192532
    4    2   10    7        0.0021118693
    4    2   11    7       -0.0000684958
    4    2   12    7       -0.0000073665
    4    2   13    7       -0.0000999112
    4    2    8    8        0.0001219165
    4    2    9    8        0.0000014996
    4    2   10    8        0.0002844669
    4    2   11    8        0.0000054740
    4    2   12    8       -0.0000601897
    4    2   13    8       -0.0003656774
    4    2    9    9        0.0001353310
    4    2   10    9        0.0023781279
    4    2   11    9        0.0000426254
    4    2   12    9       -0.0000342875
    4    2   13    9       -0.0000254504
    4    2   10   10        0.0000223369
    4    2   11   10        0.0022345787
    4    2   12   10       -0.0012855314
    4    2   13   10        0.0019724341
    4    2   11   11        0.0001337579
    4    2   12   11       -0.0000170803
    4    2   13   11       -0.0000103798
    4    2   12   12        0.0001452019
    4    2   13   12       -0.0000465944
    4    2   13   13        0.0001713368
    5    2    5    2        0.0161450697
    5    2    6    2        0.0000662876
    5    2    7    2       -0.0000181671
    5    2    8    2        0.0000303219
    5    2    9    2       -0.0000024337
    5    2   10    2       -0.0036128174
    5    2   11    2       -0.0000075880
    5    2   12    2        0.0000072944
    5    2   13    2       -0.0000401311
    5    2    3    3       -0.0001023395
    5    2    4    3       -0.0000000981
    5    2    5    3        0.0013704298
    5    2    6    3        0.0000869578
    5    2    7    3       -0.0000317674
    5    2    8    3        0.0000327278
    5    2    9    3        0.0000383229
    5    2   10    3        0.0043395321
    5    2   11    3        0.0000101498
    5    2   12    3        0.0000019053
    5    2   13    3        0.0000338789
    5    2    4    4       -0.0000591054
    5    2    5    4        0.0000164120
    5    2    6    4       -0.0000810558
    5    2    7    4       -0.0000000463
    5    2    8    4        0.0000000494
    5    2    9    4        0.0000000765
    5    2   10    4        0.0000825575
    5    2   11    4        0.0000000586
    5    2   12    4       -0.0000000477
    5    2   13    4       -0.0000078737
    5    2    5    5       -0.0000018822
    5    2    6    5       -0.0051869852
    5    2    7    5        0.0013874082
    5    2    8    5       -0.0029893508
    5    2    9    5        0.0025834753
    5    2   10    5        0.0000011161
    5    2   11    5        0.0008026631
    5    2   12    5       -0.0009310548
    5    2   13    5        0.0020696758
    5    2    6    6       -0.0001554545
    5    2    7    6        0.0000218340
    5    2    8    6       -0.0000358193
    5    2    9    6        0.0000543032
    5    2   10    6        0.0034832038
    5    2   11    6        0.0000597919
    5    2   12    6       -0.0000411735
    5    2   13    6        0.0001335145
    5    2    7    7       -0.0000863417
    5    2    8    7       -0.0000023800
    5    2    9    7       -0.0000194996
    5    2   10    7       -0.0011704286
    5    2   11    7        0.0000694635
    5    2   12    7        0.0000073741
    5    2   13    7        0.0006488380
    5    2    8    8       -0.0001242847
    5    2    9    8       -0.0000012107
    5    2   10    8       -0.0001546798
    5    2   11    8       -0.0000057375
    5    2   12    8        0.0000609892
    5    2   13    8        0.0001102738
    5    2    9    9       -0.0001380533
    5    2   10    9       -0.0013041852
    5    2   11    9       -0.0000435341
    5    2   12    9        0.0000345241
    5    2   13    9        0.0000207184
    5    2   10   10       -0.0001296424
    5    2   11   10       -0.0012258948
    5    2   12   10        0.0007025940
    5    2   13   10       -0.0005760579
    5    2   11   11       -0.0001362396
    5    2   12   11        0.0000170815
    5    2   13   11       -0.0000023813
    5    2   12   12       -0.0001475918
    5    2   13   12        0.0001414414
    5    2   13   13       -0.0001632342
    6    2    6    2        0.0051525817
    6    2    7    2        0.0000000478
    6    2    8    2        0.0000000870
    6    2    9    2        0.0000000002
    6    2   10    2        0.0000033060
    6    2   11    2        0.0000001118
[...]
   10    7   10   10        0.0000101902
   10    7   11   10        0.0002480511
   10    7   12   10       -0.0000652354
   10    7   13   10        0.0001750482
   10    7   11   11        0.0000066682
   10    7   12   11       -0.0000077538
   10    7   13   11       -0.0000356835
   10    7   12   12        0.0000161119
   10    7   13   12       -0.0000448642
   10    7   13   13       -0.0000041021
   11    7   11    7        0.0095803750
   11    7   12    7        0.0016159049
   11    7   13    7       -0.0007176975
   11    7    8    8        0.0020699170
   11    7    9    8        0.0001331442
   11    7   10    8        0.0000090811
   11    7   11    8       -0.0019102541
   11    7   12    8        0.0041870962
   11    7   13    8       -0.0003215935
   11    7    9    9        0.0047829641
   11    7   10    9       -0.0000519695
   11    7   11    9       -0.0029208418
   11    7   12    9       -0.0012832524
   11    7   13    9        0.0038766109
   11    7   10   10        0.0060173350
   11    7   11   10       -0.0000320303
   11    7   12   10        0.0000002864
   11    7   13   10       -0.0000650260
   11    7   11   11        0.0069513866
   11    7   12   11       -0.0003931015
   11    7   13   11       -0.0060234659
   11    7   12   12        0.0025792605
   11    7   13   12       -0.0001201016
   11    7   13   13        0.0038035370
   12    7   12    7        0.0030626218
   12    7   13    7        0.0000191678
   12    7    8    8        0.0002283592
   12    7    9    8       -0.0005305478
   12    7   10    8        0.0000138374
   12    7   11    8        0.0003497620
   12    7   12    8       -0.0001568701
   12    7   13    8        0.0001126830
   12    7    9    9        0.0014585926
   12    7   10    9       -0.0000131008
   12    7   11    9       -0.0000284898
   12    7   12    9       -0.0037254845
   12    7   13    9        0.0015181296
   12    7   10   10        0.0028375862
   12    7   11   10       -0.0000091291
   12    7   12   10       -0.0000130061
   12    7   13   10       -0.0000825195
   12    7   11   11        0.0019584208
   12    7   12   11       -0.0002835518
   12    7   13   11       -0.0008145619
   12    7   12   12       -0.0002256871
   12    7   13   12       -0.0003350472
   12    7   13   13        0.0016468013
   13    7   13    7        0.0035596429
   13    7    8    8        0.0001435787
   13    7    9    8        0.0000545255
   13    7   10    8        0.0000178640
   13    7   11    8        0.0003654847
   13    7   12    8        0.0013751749
   13    7   13    8       -0.0005893155
   13    7    9    9       -0.0009686708
   13    7   10    9       -0.0001266503
   13    7   11    9        0.0012733891
   13    7   12    9        0.0006465844
   13    7   13    9       -0.0008616044
   13    7   10   10       -0.0004520668
   13    7   11   10       -0.0000853990
   13    7   12   10       -0.0000002530
   13    7   13   10       -0.0000551108
   13    7   11   11       -0.0037784111
   13    7   12   11       -0.0003867869
   13    7   13   11       -0.0001103435
   13    7   12   12       -0.0006622423
   13    7   13   12        0.0005065674
   13    7   13   13       -0.0000885311
    8    8    8    8        0.0654057271
    8    8    9    8        0.0005654453
    8    8   10    8       -0.0000086914
    8    8   11    8        0.0010146325
    8    8   12    8        0.0032012582
    8    8   13    8       -0.0002193593
    8    8    9    9        0.0607204582
    8    8   10    9        0.0000938338
    8    8   11    9        0.0008007626
    8    8   12    9        0.0010590940
    8    8   13    9        0.0042637349
    8    8   10   10        0.0637386805
    8    8   11   10        0.0000395869
    8    8   12   10       -0.0000213777
    8    8   13   10        0.0000466011
    8    8   11   11        0.0614258182
    8    8   12   11        0.0002148653
    8    8   13   11       -0.0000153890
    8    8   12   12        0.0640996003
    8    8   13   12       -0.0006945711
    8    8   13   13        0.0598494520
    9    8    9    8        0.0032110000
    9    8   10    8        0.0000328897
    9    8   11    8        0.0004708448
    9    8   12    8        0.0002995918
    9    8   13    8       -0.0000049994
    9    8    9    9       -0.0018141915
    9    8   10    9       -0.0000068167
    9    8   11    9       -0.0004677366
    9    8   12    9       -0.0003415120
    9    8   13    9       -0.0006557288
    9    8   10   10       -0.0020472215
    9    8   11   10       -0.0000041054
    9    8   12   10       -0.0000245847
    9    8   13   10       -0.0000385846
    9    8   11   11       -0.0007448770
    9    8   12   11       -0.0009571064
    9    8   13   11        0.0000899941
    9    8   12   12        0.0003877913
    9    8   13   12        0.0013668854
    9    8   13   13       -0.0011239817
   10    8   10    8        0.0034415915
   10    8   11    8        0.0000057225
   10    8   12    8       -0.0000012010
   10    8   13    8        0.0000605712
   10    8    9    9       -0.0000283084
   10    8   10    9       -0.0010439907
   10    8   11    9       -0.0000072125
   10    8   12    9       -0.0000494816
   10    8   13    9       -0.0000208344
   10    8   10   10       -0.0000151667
   10    8   11   10       -0.0000632013
   10    8   12   10       -0.0011486980
   10    8   13   10       -0.0000783491
   10    8   11   11       -0.0000182581
   10    8   12   11       -0.0000207407
   10    8   13   11        0.0000002209
   10    8   12   12       -0.0000143009
   10    8   13   12        0.0000159751
   10    8   13   13       -0.0000066115
   11    8   11    8        0.0022599440
   11    8   12    8       -0.0004342406
   11    8   13    8       -0.0002164105
   11    8    9    9       -0.0003181598
   11    8   10    9        0.0000037239
   11    8   11    9        0.0006670037
   11    8   12    9        0.0006291123
   11    8   13    9        0.0000568393
   11    8   10   10       -0.0000190402
   11    8   11   10        0.0000043968
   11    8   12   10       -0.0000031537
   11    8   13   10        0.0000137032
   11    8   11   11       -0.0015304034
   11    8   12   11        0.0002342867
   11    8   13   11        0.0017448162
   11    8   12   12       -0.0001209945
   11    8   13   12       -0.0009103554
   11    8   13   13        0.0002643999
   12    8   12    8        0.0075502752
   12    8   13    8       -0.0007660472
   12    8    9    9        0.0027823262
   12    8   10    9       -0.0000616406
   12    8   11    9       -0.0010154383
   12    8   12    9        0.0021998557
   12    8   13    9        0.0030143166
   12    8   10   10        0.0043805917
   12    8   11   10       -0.0000205415
   12    8   12   10        0.0000038848
   12    8   13   10        0.0000045546
   12    8   11   11        0.0030562178
   12    8   12   11       -0.0004693742
   12    8   13   11       -0.0029237500
   12    8   12   12        0.0031731340
   12    8   13   12        0.0005833738
   12    8   13   13        0.0035809432
   13    8   13    8        0.0015416179
   13    8    9    9       -0.0006078940
   13    8   10    9       -0.0001622667
   13    8   11    9        0.0002348311
   13    8   12    9        0.0006419546
   13    8   13    9       -0.0005272824
   13    8   10   10       -0.0009553514
   13    8   11   10       -0.0000640624
   13    8   12   10        0.0000004326
   13    8   13   10       -0.0000420494
   13    8   11   11        0.0007961891
   13    8   12   11       -0.0006097213
   13    8   13   11        0.0008106169
   13    8   12   12        0.0004157474
   13    8   13   12        0.0001788426
   13    8   13   13       -0.0007545310
    9    9    9    9        0.0646864113
    9    9   10    9        0.0001394222
    9    9   11    9       -0.0009636538
    9    9   12    9       -0.0010927436
    9    9   13    9        0.0049394035
    9    9   10   10        0.0651665926
    9    9   11   10        0.0000330423
    9    9   12   10       -0.0000081037
    9    9   13   10       -0.0000296100
    9    9   11   11        0.0615337131
    9    9   12   11        0.0011778629
    9    9   13   11       -0.0014610322
    9    9   12   12        0.0616508759
    9    9   13   12       -0.0015933566
    9    9   13   13        0.0611890254
   10    9   10    9        0.0039041407
   10    9   11    9        0.0000255615
   10    9   12    9       -0.0000026138
   10    9   13    9       -0.0000550059
   10    9   10   10        0.0000768911
   10    9   11   10        0.0000656057
   10    9   12   10       -0.0003505814
   10    9   13   10        0.0003359222
   10    9   11   11        0.0001005334
   10    9   12   11        0.0000020715
   10    9   13   11        0.0000520219
   10    9   12   12        0.0001290577
   10    9   13   12        0.0000252676
   10    9   13   13        0.0001102333
   11    9   11    9        0.0028032876
   11    9   12    9        0.0000607964
   11    9   13    9       -0.0000650126
   11    9   10   10       -0.0006500103
   11    9   11   10        0.0000260365
   11    9   12   10       -0.0000004010
   11    9   13   10        0.0000355744
   11    9   11   11       -0.0010023827
   11    9   12   11        0.0003661138
   11    9   13   11        0.0028466785
   11    9   12   12        0.0005174660
   11    9   13   12       -0.0001155612
   11    9   13   13       -0.0005138226
   12    9   12    9        0.0091817149
   12    9   13    9       -0.0020608179
   12    9   10   10       -0.0021659142
   12    9   11   10        0.0000011830
   12    9   12   10        0.0000544062
   12    9   13   10        0.0001628809
   12    9   11   11       -0.0018011272
   12    9   12   11        0.0014657348
   12    9   13   11        0.0004595026
   12    9   12   12        0.0013831955
   12    9   13   12       -0.0006385083
   12    9   13   13       -0.0007349095
   13    9   13    9        0.0073126263
   13    9   10   10        0.0075823969
   13    9   11   10       -0.0000020687
   13    9   12   10        0.0000180235
   13    9   13   10       -0.0000413445
   13    9   11   11        0.0076303211
   13    9   12   11        0.0004871489
   13    9   13   11       -0.0009606849
   13    9   12   12        0.0043425449
   13    9   13   12       -0.0007522992
   13    9   13   13        0.0051386770
   10   10   10   10        0.0736561375
   10   10   11   10        0.0000049902
   10   10   12   10        0.0000003077
   10   10   13   10       -0.0000777763
   10   10   11   11        0.0652238427
   10   10   12   11        0.0015854554
   10   10   13   11       -0.0018964899
   10   10   12   12        0.0633320840
   10   10   13   12       -0.0015571955
   10   10   13   13        0.0630800122
   11   10   11   10        0.0022131471
   11   10   12   10        0.0003263484
   11   10   13   10        0.0007413855
   11   10   11   11        0.0000594645
   11   10   12   11        0.0000012647
   11   10   13   11        0.0000345296
   11   10   12   12        0.0000512554
   11   10   13   12       -0.0000154643
   11   10   13   13        0.0000214780
   12   10   12   10        0.0021087091
   12   10   13   10       -0.0004535695
   12   10   11   11       -0.0000085209
   12   10   12   11        0.0000292983
   12   10   13   11        0.0000128721
   12   10   12   12       -0.0000165016
   12   10   13   12        0.0000027404
   12   10   13   13       -0.0000507264
   13   10   13   10        0.0016974998
   13   10   11   11        0.0000250250
   13   10   12   11        0.0000363353
   13   10   13   11        0.0000183040
   13   10   12   12        0.0000260653
   13   10   13   12       -0.0000620328
   13   10   13   13       -0.0000073664
   11   11   11   11        0.0716349923
   11   11   12   11        0.0008488675
   11   11   13   11       -0.0026577890
   11   11   12   12        0.0622987957
   11   11   13   12       -0.0004798753
   11   11   13   13        0.0628722578
   12   11   12   11        0.0030517409
   12   11   13   11        0.0004907295
   12   11   12   12        0.0002804444
   12   11   13   12       -0.0005705548
   12   11   13   13        0.0006536687
   13   11   13   11        0.0067544295
   13   11   12   12       -0.0002153834
   13   11   13   12       -0.0003650315
   13   11   13   13       -0.0021253618
   12   12   12   12        0.0661613247
   12   12   13   12       -0.0002198142
   12   12   13   13        0.0598550660
   13   12   13   12        0.0020294821
   13   12   13   13       -0.0009821602
   13   13   13   13        0.0629712862
 end_two_electron_integrals


 output epsi filename:./pspw_hf_LiH.emovecs

 Total PSPW energy     :  -0.7262865715E+00


=== Spin Contamination ===

 <Sexact^2> =    0.0000000000000000     
 <S^2>      =    0.0000000000000000     



== Center of Charge ==

spin up     (    0.0000,    0.0000,    1.7151 )
spin down   (    0.0000,    0.0000,    1.7151 )
     total  (    0.0000,    0.0000,    1.7151 )
ionic       (    0.0000,    0.0000,    0.6142 )


== Molecular Dipole wrt Center of Mass ==

mu   =  (   -0.0000,   -0.0000,   -2.2019 ) au
|mu| =     2.2019 au,       5.5964 Debye

 output psi filename:./pspw_hf_LiH.movecs

 Writing Crystallographic Information File:./LiH.cif
   - cell not shifted (nwpw:cif_shift_cell .false.)


== Timing ==

cputime in seconds
  prologue    :   0.892879E+02
  main loop   :   0.307872E+04
  epilogue    :   0.952585E-01
  total       :   0.316810E+04
  cputime/step:   0.148015E+02       (     208 evalulations,      88 linesearches)


Time spent doing                        total          step       percent
  total time                 :   0.316812E+04  0.152314E+02       100.0 %
  i/o time                   :   0.171501E+01  0.824523E-02         0.1 %
  FFTs                       :   0.256084E+04  0.123117E+02        80.8 %
  dot products               :   0.157097E+02  0.755276E-01         0.5 %
  geodesic                   :   0.153572E+00  0.738326E-03         0.0 %
  ffm_dgemm                  :   0.374900E-01  0.180240E-03         0.0 %
  fmf_dgemm                  :   0.632412E-01  0.304044E-03         0.0 %
  mmm_dgemm                  :   0.501422E-02  0.241068E-04         0.0 %
  m_diagonalize              :   0.195538E-02  0.940087E-05         0.0 %
  local pseudopotentials     :   0.605838E-02  0.291268E-04         0.0 %
  non-local pseudopotentials :   0.873643E+01  0.420020E-01         0.3 %
  structure factors          :   0.191116E+01  0.918828E-02         0.1 %
  phase factors              :   0.174620E-04  0.839519E-07         0.0 %
  masking and packing        :   0.421558E+02  0.202672E+00         1.3 %
  queue fft                  :   0.243667E+01  0.117147E-01         0.1 %
  queue fft (serial)         :   0.888326E+00  0.427080E-02         0.0 %
  queue fft (message passing):   0.143982E+01  0.692219E-02         0.0 %
  HFX potential              :   0.271077E+04  0.130325E+02        85.6 %
  non-local psp FFM          :   0.666516E+01  0.320440E-01         0.2 %
  non-local psp FMF          :   0.516884E+00  0.248502E-02         0.0 %
  non-local psp FFM A        :   0.976747E+00  0.469590E-02         0.0 %
  non-local psp FFM B        :   0.857950E+00  0.412476E-02         0.0 %

== HFX Counters ==
  HFX Evalulations         =   208
  Lin ACE HFX Evalulations =     0


     >>>  JOB COMPLETED     AT Sun May  4 17:19:29 2025  <<<

 Task  times  cpu:     2964.5s     wall:     3168.2s


                                NWChem Input Module
                                -------------------


 Summary of allocated global arrays
-----------------------------------
  No active global arrays


MA_summarize_allocated_blocks: starting scan ...
MA_summarize_allocated_blocks: scan completed: 0 heap blocks, 0 stack blocks
MA usage statistics:

	allocation statistics:
					      heap	     stack
					      ----	     -----
	current number of blocks	         0	         0
	maximum number of blocks	       315	        19
	current total bytes		         0	         0
	maximum total bytes		 125579680	  44532200
	maximum total K-bytes		    125580	     44533
	maximum total M-bytes		       126	        45


                                     CITATION
                                     --------
                Please cite the following reference when publishing
                           results obtained with NWChem:

          E. Apra, E. J. Bylaska, W. A. de Jong, N. Govind, K. Kowalski,
       T. P. Straatsma, M. Valiev, H. J. J. van Dam, Y. Alexeev, J. Anchell,
       V. Anisimov, F. W. Aquino, R. Atta-Fynn, J. Autschbach, N. P. Bauman,
     J. C. Becca, D. E. Bernholdt, K. Bhaskaran-Nair, S. Bogatko, P. Borowski,
         J. Boschen, J. Brabec, A. Bruner, E. Cauet, Y. Chen, G. N. Chuev,
      C. J. Cramer, J. Daily, M. J. O. Deegan, T. H. Dunning Jr., M. Dupuis,
   K. G. Dyall, G. I. Fann, S. A. Fischer, A. Fonari, H. Fruchtl, L. Gagliardi,
      J. Garza, N. Gawande, S. Ghosh, K. Glaesemann, A. W. Gotz, J. Hammond,
       V. Helms, E. D. Hermes, K. Hirao, S. Hirata, M. Jacquelin, L. Jensen,
   B. G. Johnson, H. Jonsson, R. A. Kendall, M. Klemm, R. Kobayashi, V. Konkov,
      S. Krishnamoorthy, M. Krishnan, Z. Lin, R. D. Lins, R. J. Littlefield,
      A. J. Logsdail, K. Lopata, W. Ma, A. V. Marenich, J. Martin del Campo,
   D. Mejia-Rodriguez, J. E. Moore, J. M. Mullin, T. Nakajima, D. R. Nascimento,
    J. A. Nichols, P. J. Nichols, J. Nieplocha, A. Otero-de-la-Roza, B. Palmer,
    A. Panyala, T. Pirojsirikul, B. Peng, R. Peverati, J. Pittner, L. Pollack,
   R. M. Richard, P. Sadayappan, G. C. Schatz, W. A. Shelton, D. W. Silverstein,
   D. M. A. Smith, T. A. Soares, D. Song, M. Swart, H. L. Taylor, G. S. Thomas,
            V. Tipparaju, D. G. Truhlar, K. Tsemekhman, T. Van Voorhis,
      A. Vazquez-Mayagoitia, P. Verma, O. Villa, A. Vishnu, K. D. Vogiatzis,
        D. Wang, J. H. Weare, M. J. Williamson, T. L. Windus, K. Wolinski,
        A. T. Wong, Q. Wu, C. Yang, Q. Yu, M. Zacharias, Z. Zhang, Y. Zhao,
                                and R. J. Harrison
                        "NWChem: Past, present, and future
                         J. Chem. Phys. 152, 184102 (2020)
                               doi:10.1063/5.0004997

                                      AUTHORS
                                      -------
  E. Apra, E. J. Bylaska, N. Govind, K. Kowalski, M. Valiev, D. Mejia-Rodriguez,
       A. Kunitsa, N. P. Bauman, A. Panyala, W. A. de Jong, T. P. Straatsma,
   H. J. J. van Dam, D. Wang, T. L. Windus, J. Hammond, J. Autschbach, A. Woods,
    K. Bhaskaran-Nair, J. Brabec, K. Lopata, S. A. Fischer, S. Krishnamoorthy,
     M. Jacquelin, W. Ma, M. Klemm, O. Villa, Y. Chen, V. Anisimov, F. Aquino,
     S. Hirata, M. T. Hackler, E. Hermes, L. Jensen, J. E. Moore, J. C. Becca,
      V. Konjkov, T. Risthaus, M. Malagoli, A. Marenich, A. Otero-de-la-Roza,
        J. Mullin, P. Nichols, R. Peverati, J. Pittner, Y. Zhao, P.-D. Fan,
        A. Fonari, M. J. Williamson, R. J. Harrison, J. R. Rehr, M. Dupuis,
     D. Silverstein, D. M. A. Smith, J. Nieplocha, V. Tipparaju, M. Krishnan,
     B. E. Van Kuiken, A. Vazquez-Mayagoitia, M. Swart, Q. Wu, T. Van Voorhis,
     A. A. Auer, M. Nooijen, L. D. Crosby, E. Brown, G. Cisneros, G. I. Fann,
   H. Fruchtl, J. Garza, K. Hirao, R. A. Kendall, J. A. Nichols, K. Tsemekhman,
    K. Wolinski, J. Anchell, D. E. Bernholdt, P. Borowski, T. Clark, D. Clerc,
   H. Dachsel, M. J. O. Deegan, K. Dyall, D. Elwood, E. Glendening, M. Gutowski,
   A. C. Hess, J. Jaffe, B. G. Johnson, J. Ju, R. Kobayashi, R. Kutteh, Z. Lin,
   R. Littlefield, X. Long, B. Meng, T. Nakajima, S. Niu, L. Pollack, M. Rosing,
   K. Glaesemann, G. Sandrone, M. Stave, H. Taylor, G. Thomas, J. H. van Lenthe,
                               A. T. Wong, Z. Zhang.

 Total times  cpu:     2964.5s     wall:     3168.2s
