 argument  1 = ../data/PW_LiH_data/3x3_aperiodic/NWChem/12nocovo/H1Li1-4.0.nw



============================== echo of input deck ==============================
#title "swnc: e theory=pspw4 xc=pbe formula=LiH charge=0 mult=1"
#machinejob:expert

echo

start pspw_hf_LiH

memory heap 1200 mb stack 2400 mb global 400 mb

charge 0

geometry
Li    0.00000    0.00000   -2.00000
H     0.00000    0.00000    2.00000
end

nwpw
  ### pseudopotential block begin ###
  ### pseudopotential block end   ###
  simulation_cell
     SC 28.345889835
     boundary_conditions aperiodic
  end

  cutoff 50.0
  mult 1
  xc hf
  lmbfgs
  tolerances 1.0e-9 1.0e-9

  virtual 12
end
set nwpw:cif_filename LiH

#set nwpw:CI_maxit_orb 15
#set nwpw:CI_maxit_linesearch 15

set nwpw:2qintegrals .true.
#set nwpw:3x3_virtual .true.

task pspw energy
================================================================================


                                         
                                         


             Northwest Computational Chemistry Package (NWChem) 7.2.3
             --------------------------------------------------------


                    Environmental Molecular Sciences Laboratory
                       Pacific Northwest National Laboratory
                                Richland, WA 99352

                              Copyright (c) 1994-2022
                       Pacific Northwest National Laboratory
                            Battelle Memorial Institute

             NWChem is an open-source computational chemistry package
                        distributed under the terms of the
                      Educational Community License (ECL) 2.0
             A copy of the license is included with this distribution
                              in the LICENSE.TXT file

                                  ACKNOWLEDGMENT
                                  --------------

            This software and its documentation were developed at the
            EMSL at Pacific Northwest National Laboratory, a multiprogram
            national laboratory, operated for the U.S. Department of Energy
            by Battelle under Contract Number DE-AC05-76RL01830. Support
            for this work was provided by the Department of Energy Office
            of Biological and Environmental Research, Office of Basic
            Energy Sciences, and the Office of Advanced Scientific Computing.


           Job information
           ---------------

    hostname        = mqs-al
    program         = nwchem
    date            = Sun May  4 20:56:16 2025

    compiled        = Thu_Oct_31_08:55:15_2024
    source          = /home/conda/feedstock_root/build_artifacts/nwchem_1730356057992/work
    nwchem branch   = 7.2.3
    nwchem revision = c400b04
    ga revision     = 5.8.0
    use scalapack   = T
    input           = ../data/PW_LiH_data/3x3_aperiodic/NWChem/12nocovo/H1Li1-4.0.nw
    prefix          = pspw_hf_LiH.
    data base       = ./pspw_hf_LiH.db
    status          = startup
    nproc           =       24
    time left       =     -1s



           Memory information
           ------------------

    heap     =  157286400 doubles =   1200.0 Mbytes
    stack    =  314572797 doubles =   2400.0 Mbytes
    global   =   52428800 doubles =    400.0 Mbytes (distinct from heap & stack)
    total    =  524287997 doubles =   4000.0 Mbytes
    verify   = yes
    hardfail = no 


           Directory information
           ---------------------

  0 permanent = .
  0 scratch   = .




                                NWChem Input Module
                                -------------------



 Scaling coordinates for geometry "geometry" by  1.889725989
 (inverse scale =  0.529177249)

  zeroes
  zeroes
  zeroes
  zeroes
  zeroes
  zeroes
  zeroes
  zeroes
  zeroes
  zeroes
  zeroes
  zeroes
  zeroes
  zeroes
  zeroes
  zeroes
  zeroes
  zeroes
  zeroes
  zeroes
  zeroes
  zeroes
  zeroes
  zeroes
  zeroes
  zeroes
  zeroes
  zeroes
  zeroes
  zeroes
  zeroes
  zeroes
  zeroes
  zeroes
  zeroes
  zeroes
  zeroes
  zeroes
  zeroes
  zeroes
  zeroes
  zeroes
  zeroes
  zeroes
  zeroes
  zeroes
  zeroes
  zeroes
 ORDER OF PRIMARY AXIS IS BEING SET TO 4
 C4V symmetry detected

          ------
          auto-z
          ------
     1 autoz failed with cvr_scaling = 1.2 changing to 1.3
     2 autoz failed with cvr_scaling = 1.3 changing to 1.4
     3 autoz failed with cvr_scaling = 1.4 changing to 1.5
     4 autoz failed with cvr_scaling = 1.5 changing to 1.6
     5 autoz failed with cvr_scaling = 1.6 changing to 1.7

 AUTOZ failed to generate good internal coordinates.
 Cartesian coordinates will be used in optimizations.



                             Geometry "geometry" -> ""
                             -------------------------

 Output coordinates in angstroms (scale by  1.889725989 to convert to a.u.)

  No.       Tag          Charge          X              Y              Z
 ---- ---------------- ---------- -------------- -------------- --------------
    1 Li                   3.0000     0.00000000     0.00000000    -1.00000000
    2 H                    1.0000     0.00000000     0.00000000     3.00000000

      Atomic Mass 
      ----------- 

      Li                 7.016000
      H                  1.007825


 Effective nuclear repulsion energy (a.u.)       0.3968829367

            Nuclear Dipole moment (a.u.) 
            ----------------------------
        X                 Y               Z
 ---------------- ---------------- ----------------
     0.0000000000     0.0000000000     0.0000000000

      Symmetry information
      --------------------

 Group name             C4v       
 Group number             18
 Group order               8
 No. of unique centers     2

      Symmetry unique atoms

     1    2


            XYZ format geometry
            -------------------
     2
 geometry
 Li                    0.00000000     0.00000000    -1.00000000
 H                     0.00000000     0.00000000     3.00000000

          ****************************************************
          *                                                  *
          *               NWPW PSPW Calculation              *
          *                                                  *
          * [ (Grassmann/Stiefel manifold implementation)  ] *
          *                                                  *
          *      [ NorthWest Chemistry implementation ]      *
          *                                                  *
          *            version #5.10   06/12/02              *
          *                                                  *
          *    This code was developed by Eric J. Bylaska,   *
          *    and was based upon algorithms and code        *
          *    developed by the group of Prof. John H. Weare *
          *                                                  *
          ****************************************************
     >>>  JOB STARTED       AT Sun May  4 20:56:16 2025  <<<
          ================ input data ========================

 input psi filename:./pspw_hf_LiH.movecs

 number of processors used:        24
 processor grid           :  24 x   1
 parallel mapping         :2d-hilbert
 parallel mapping         :  balanced
 number of threads        :         1
 parallel io              :       off

 options:
      boundary conditions  = aperiodic   (version4)
      electron spin        = restricted
      exchange-correlation = Hartree-Fock
      - HFX relaxed
      - HFX restricted orbitals :    1
      - HFX free-space coulomb solver


 elements involved in the cluster:
      1: Li  valence charge:  1.0000  lmax=  1
             comment    : Hamann pseudopotential
             pseudpotential type            :   0
             highest angular component      :   1
             local potential used           :   1
             number of non-local projections:   1
             aperiodic cutoff radius        :  1.000
             semicore corrections included  :  1.000 (radius)  0.769 (charge)
             cutoff =   1.869   1.551

      2: H   valence charge:  1.0000  lmax=  1
             comment    : Parameterized (Chem.Phys.Lett., vol 322, page 447) Hamman psp
             pseudpotential type            :   0
             highest angular component      :   1
             local potential used           :   1
             number of non-local projections:   1
             aperiodic cutoff radius        :  1.000
             cutoff =   0.800   0.800


 total charge:   0.000

 atomic composition:
     Li  :    1     H   :    1

 number of electrons: spin up=     1 (   1 per task)  down=     1 (   1 per task) (Fourier space)
 number of orbitals : spin up=     1 (   1 per task)  down=     1 (   1 per task) (Fourier space)

 supercell:
      cell_name:  cell_default                                      
      lattice:    a1=<  28.346   0.000   0.000 >
                  a2=<   0.000  28.346   0.000 >
                  a3=<   0.000   0.000  28.346 >
      reciprocal: b1=<   0.222   0.000   0.000 >
                  b2=<   0.000   0.222   0.000 >
                  b3=<   0.000   0.000   0.222 >
      lattice:    a=      28.346 b=     28.346 c=      28.346
                  alpha=  90.000 beta=  90.000 gamma=  90.000
                  omega=     22775.6

      density cutoff=100.000  fft=140x140x140(   544264 waves    22677 per task)
      wavefnc cutoff= 50.000  fft=140x140x140(   192294 waves     8012 per task)

 technical parameters:
      time step=      5.80     fictitious mass=  400000.0
      tolerance=0.100E-08 (energy)   0.100E-08 (density)
      maximum iterations =      1000 (   10 inner    100 outer )





== Energy Calculation ==


          ============ Grassmann lmbfgs iteration ============
     >>>  ITERATION STARTED AT Sun May  4 20:57:46 2025  <<<
    iter.           Energy         DeltaE       DeltaRho 
    ------------------------------------------------------
      10   -0.6300407496E+00   -0.18664E-02    0.13668E-01
     -  10 steepest descent iterations performed
      20   -0.6358078426E+00   -0.16656E-03    0.12161E-03
      30   -0.6362466968E+00   -0.18134E-04    0.89444E-05
      40   -0.6363181597E+00   -0.26181E-05    0.74082E-06
      50   -0.6363305787E+00   -0.45076E-06    0.73613E-07
      60   -0.6363335694E+00   -0.16689E-06    0.19204E-07
      70   -0.6363344131E+00   -0.41135E-07    0.57502E-08
      80   -0.6363346028E+00   -0.10912E-07    0.13404E-08
      90   -0.6363346470E+00   -0.13460E-08    0.37730E-09
     100   -0.6363346488E+00   -0.77022E-09    0.97670E-12
  *** tolerance ok. iteration terminated
     >>>  ITERATION ENDED   AT Sun May  4 20:59:39 2025  <<<


==  Summary Of Results  ==

 number of electrons: spin up=    1.00000  down=    1.00000 (real space)

 total     energy    :  -0.6363346488E+00 (   -0.31817E+00/ion)
 total orbital energy:  -0.4075277955E+00 (   -0.40753E+00/electron)
 hartree   energy    :   0.7222023311E+00 (    0.72220E+00/electron)
 exc-corr  energy    :   0.0000000000E+00 (    0.00000E+00/electron)
 HF exchange energy  :  -0.3611011656E+00 (   -0.36110E+00/electron)
 ion-ion   energy    :   0.1322943122E+00 (    0.66147E-01/ion)

 kinetic (planewave) :   0.4507282553E+00 (    0.45073E+00/electron)
 V_local (planewave) :  -0.1489057844E+01 (   -0.14891E+01/electron)
 V_nl    (planewave) :  -0.9140053799E-01 (   -0.91401E-01/electron)
 V_Coul  (planewave) :   0.1444404662E+01 (    0.14444E+01/electron)
 V_xc.   (planewave) :   0.0000000000E+00 (    0.00000E+00/electron)
 K.S. HFX energy     :  -0.7222023311E+00 (   -0.72220E+00/electron)
 Virial Coefficient  :  -0.3018530968E+00

 orbital energies:
    -0.2037639E+00 (  -5.545eV)


== Virtual Orbital Calculation ==


 input epsi filename:./pspw_hf_LiH.emovecs
     orbital   1 current e=-0.540E-01 (error=0.992E-09) iterations 102(  59 preconditioned, Ep,Sp= 20.0  200.0)
     orbital   2 current e=-0.132E-02 (error=0.699E-08) iterations 121(  79 preconditioned, Ep,Sp= 20.0  200.0)
     orbital   2 current e=-0.132E-02 (error=0.941E-09) iterations  25(   1 preconditioned, Ep,Sp= 20.0  200.0)
     orbital   3 current e=-0.391E-03 (error=0.927E-09) iterations  99(  41 preconditioned, Ep,Sp= 20.0  200.0)
     orbital   4 current e=-0.391E-03 (error=0.928E-09) iterations  99(  41 preconditioned, Ep,Sp= 20.0  200.0)
     orbital   5 current e= 0.125E-01 (error=0.890E-08) iterations 121(  88 preconditioned, Ep,Sp= 20.0  200.0)
     orbital   5 current e= 0.125E-01 (error=0.955E-09) iterations  48(   1 preconditioned, Ep,Sp= 20.0  200.0)
     orbital   6 current e= 0.175E-01 (error=0.971E-09) iterations  75(  30 preconditioned, Ep,Sp= 20.0  200.0)
     orbital   7 current e= 0.296E-01 (error=0.170E-07) iterations 121(  67 preconditioned, Ep,Sp= 20.0  200.0)
     orbital   7 current e= 0.296E-01 (error=0.949E-09) iterations  41(   1 preconditioned, Ep,Sp= 20.0  200.0)
     orbital   8 current e= 0.296E-01 (error=0.170E-07) iterations 121(  67 preconditioned, Ep,Sp= 20.0  200.0)
     orbital   8 current e= 0.296E-01 (error=0.949E-09) iterations  41(   1 preconditioned, Ep,Sp= 20.0  200.0)
     orbital   9 current e= 0.298E-01 (error=0.517E-07) iterations 121( 102 preconditioned, Ep,Sp= 20.0  200.0)
     orbital   9 current e= 0.298E-01 (error=0.274E-08) iterations 121(   1 preconditioned, Ep,Sp= 20.0  200.0)
     orbital   9 current e= 0.306E-01 (error=0.162E-04) iterations 121( 120 preconditioned, Ep,Sp= 20.0  200.0)
     orbital   9 current e= 0.298E-01 (error=0.131E-05) iterations 121( 120 preconditioned, Ep,Sp= 20.0  200.0)
     orbital   9 current e= 0.298E-01 (error=0.568E-08) iterations 121(  70 preconditioned, Ep,Sp= 20.0  200.0)
     orbital   9 current e= 0.298E-01 (error=0.980E-09) iterations  98(   1 preconditioned, Ep,Sp= 20.0  200.0)
     orbital  10 current e= 0.320E-01 (error=0.503E-07) iterations 121(  59 preconditioned, Ep,Sp= 20.0  200.0)
     orbital  10 current e= 0.320E-01 (error=0.980E-09) iterations  54(   1 preconditioned, Ep,Sp= 20.0  200.0)
     orbital  11 current e= 0.378E-01 (error=0.972E-09) iterations  89(  33 preconditioned, Ep,Sp= 20.0  200.0)
     orbital  12 current e= 0.367E-01 (error=0.123E-07) iterations 121(  81 preconditioned, Ep,Sp= 20.0  200.0)
     orbital  12 current e= 0.367E-01 (error=0.968E-09) iterations  37(   1 preconditioned, Ep,Sp= 20.0  200.0)

 virtual orbital energies:
     0.3779947E-01 (   1.029eV)
     0.3672307E-01 (   0.999eV)
     0.3203894E-01 (   0.872eV)
     0.2977421E-01 (   0.810eV)
     0.2956766E-01 (   0.805eV)
     0.2956766E-01 (   0.805eV)
     0.1752364E-01 (   0.477eV)
     0.1250445E-01 (   0.340eV)
    -0.3913278E-03 (  -0.011eV)
    -0.3913279E-03 (  -0.011eV)
    -0.1320433E-02 (  -0.036eV)
    -0.5398434E-01 (  -1.469eV)


 == Generating One-Electron and Two-Electron Integrals ==

 begin_one_electron_integrals
    1    1        -0.5648650633
    2    1        -0.0679212449
    3    1        -0.0097058063
    4    1         0.0000000589
    5    1         0.0000014489
    6    1         0.0284400893
    7    1         0.0000000001
    8    1         0.0000005378
    9    1         0.0000001660
   10    1        -0.0098932241
   11    1        -0.0014349675
   12    1         0.0268418633
   13    1         0.0000018816
    2    2        -0.2978522895
    3    2        -0.0293481962
    4    2         0.0000001730
    5    2         0.0000042545
    6    2         0.0365290002
    7    2         0.0000000001
    8    2         0.0000011275
    9    2         0.0000003487
   10    2        -0.0176704349
   11    2         0.0113086270
   12    2         0.0233367199
   13    2         0.0000016331
    3    3        -0.1363376359
    4    3        -0.0000003604
    5    3        -0.0000088615
    6    3         0.0138265066
    7    3         0.0000000001
    8    3         0.0000067880
    9    3         0.0000021148
   10    3        -0.0145815027
   11    3         0.0244321929
   12    3         0.0042998439
   13    3         0.0000002407
    4    4        -0.1978429631
    5    4         0.0000000001
    6    4        -0.0000000786
    7    4         0.0000003194
    8    4        -0.0106864839
    9    4         0.0399061736
   10    4         0.0000001684
   11    4        -0.0000001791
   12    4         0.0000000046
   13    4        -0.0000136203
    5    5        -0.1978429541
    6    5        -0.0000019317
    7    5        -0.0000000131
    8    5         0.0399061810
    9    5         0.0106864856
   10    5         0.0000043699
   11    5        -0.0000043195
   12    5        -0.0000005431
   13    5         0.0000504505
    6    6        -0.1627212832
    7    6        -0.0000000001
    8    6        -0.0000004624
    9    6        -0.0000001448
   10    6         0.0035645150
   11    6        -0.0048532462
   12    6        -0.0419012301
   13    6        -0.0000030833
    7    7        -0.1157719659
    8    7         0.0000000650
    9    7        -0.0000002087
   10    7        -0.0000000000
   11    7        -0.0000000009
   12    7         0.0000000037
   13    7         0.0000100781
    8    8        -0.1173886896
    9    8        -0.0000000020
   10    8        -0.0000007738
   11    8         0.0000004389
   12    8        -0.0000006997
   13    8        -0.0000247233
    9    9        -0.1173886819
   10    9        -0.0000002383
   11    9         0.0000001370
   12    9        -0.0000002303
   13    9         0.0000000416
   10   10        -0.1045315125
   11   10        -0.0040184093
   12   10         0.0081716562
   13   10         0.0000005205
   11   11        -0.1073283005
   12   11        -0.0046157506
   13   11        -0.0000003366
   12   12        -0.1167619883
   13   12        -0.0000002859
   13   13        -0.1087889004
 end_one_electron_integrals

 begin_two_electron_integrals
    1    1    1    1        0.3611011656
    1    1    2    1        0.0679220500
    1    1    3    1        0.0097123047
    1    1    4    1       -0.0000000590
    1    1    5    1       -0.0000014498
    1    1    6    1       -0.0284447788
    1    1    7    1       -0.0000000001
    1    1    8    1       -0.0000005376
    1    1    9    1       -0.0000001660
    1    1   10    1        0.0098899906
    1    1   11    1        0.0014337937
    1    1   12    1       -0.0268393026
    1    1   13    1       -0.0000018814
    1    1    2    2        0.1362519334
    1    1    3    2        0.0179500379
    1    1    4    2       -0.0000001063
    1    1    5    2       -0.0000026125
    1    1    6    2       -0.0246602387
    1    1    7    2       -0.0000000001
    1    1    8    2       -0.0000007199
    1    1    9    2       -0.0000002226
    1    1   10    2        0.0113630394
    1    1   11    2       -0.0068106608
    1    1   12    2       -0.0170809958
    1    1   13    2       -0.0000011942
    1    1    3    3        0.0684627570
    1    1    4    3        0.0000001859
    1    1    5    3        0.0000045706
    1    1    6    3       -0.0085797123
    1    1    7    3       -0.0000000000
    1    1    8    3       -0.0000035943
    1    1    9    3       -0.0000011198
    1    1   10    3        0.0079672058
    1    1   11    3       -0.0127297634
    1    1   12    3       -0.0035122665
    1    1   13    3       -0.0000002155
    1    1    4    4        0.1001737736
    1    1    5    4       -0.0000000000
    1    1    6    4        0.0000000505
    1    1    7    4       -0.0000000726
    1    1    8    4        0.0055836499
    1    1    9    4       -0.0208508338
    1    1   10    4       -0.0000000892
    1    1   11    4        0.0000000912
    1    1   12    4        0.0000000057
    1    1   13    4        0.0000071343
    1    1    5    5        0.1001737689
    1    1    6    5        0.0000012415
    1    1    7    5        0.0000000030
    1    1    8    5       -0.0208508362
    1    1    9    5       -0.0055836503
    1    1   10    5       -0.0000023126
    1    1   11    5        0.0000021988
    1    1   12    5        0.0000004844
    1    1   13    5       -0.0000264271
    1    1    6    6        0.0911678814
    1    1    7    6        0.0000000001
    1    1    8    6        0.0000002894
    1    1    9    6        0.0000000904
    1    1   10    6       -0.0030118237
    1    1   11    6        0.0032001808
    1    1   12    6        0.0240287026
    1    1   13    6        0.0000017567
    1    1    7    7        0.0666806024
    1    1    8    7       -0.0000000207
    1    1    9    7        0.0000000666
    1    1   10    7       -0.0000000000
    1    1   11    7        0.0000000004
    1    1   12    7       -0.0000000019
    1    1   13    7       -0.0000050670
    1    1    8    8        0.0741064339
    1    1    9    8        0.0000000010
    1    1   10    8        0.0000003793
    1    1   11    8       -0.0000001841
    1    1   12    8        0.0000004093
    1    1   13    8        0.0000132652
    1    1    9    9        0.0741064298
    1    1   10    9        0.0000001167
    1    1   11    9       -0.0000000575
    1    1   12    9        0.0000001341
    1    1   13    9       -0.0000000249
    1    1   10   10        0.0676674095
    1    1   11   10        0.0017119700
    1    1   12   10       -0.0051319036
    1    1   13   10       -0.0000003329
    1    1   11   11        0.0701028592
    1    1   12   11        0.0028862961
    1    1   13   11        0.0000002096
    1    1   12   12        0.0794771566
    1    1   13   12        0.0000002839
    1    1   13   13        0.0733772021
    2    1    2    1        0.0286359219
    2    1    3    1        0.0065629768
    2    1    4    1       -0.0000000395
    2    1    5    1       -0.0000009721
    2    1    6    1       -0.0127801066
    2    1    7    1       -0.0000000000
    2    1    8    1       -0.0000003122
    2    1    9    1       -0.0000000966
    2    1   10    1        0.0050562210
    2    1   11    1       -0.0023127590
    2    1   12    1       -0.0108326364
    2    1   13    1       -0.0000007554
    2    1    2    2       -0.0188143805
    2    1    3    2       -0.0027352236
    2    1    4    2        0.0000000167
    2    1    5    2        0.0000004103
    2    1    6    2       -0.0053190792
    2    1    7    2       -0.0000000000
    2    1    8    2        0.0000000718
    2    1    9    2        0.0000000218
    2    1   10    2       -0.0018415446
    2    1   11    2        0.0002300586
    2    1   12    2       -0.0065975763
    2    1   13    2       -0.0000004763
    2    1    3    3       -0.0052279273
    2    1    4    3       -0.0000000627
    2    1    5    3       -0.0000015421
    2    1    6    3        0.0017447791
    2    1    7    3        0.0000000000
    2    1    8    3        0.0000009664
    2    1    9    3        0.0000003005
    2    1   10    3       -0.0037698361
    2    1   11    3       -0.0004283176
    2    1   12    3       -0.0004371963
    2    1   13    3       -0.0000000347
    2    1    4    4       -0.0159167395
    2    1    5    4        0.0000000000
    2    1    6    4       -0.0000000089
    2    1    7    4        0.0000000550
    2    1    8    4       -0.0015526198
    2    1    9    4        0.0057978957
    2    1   10    4        0.0000000334
    2    1   11    4       -0.0000000050
    2    1   12    4        0.0000000015
    2    1   13    4        0.0000007784
    2    1    5    5       -0.0159167382
    2    1    6    5       -0.0000002196
    2    1    7    5       -0.0000000022
    2    1    8    5        0.0057978964
    2    1    9    5        0.0015526200
    2    1   10    5        0.0000008557
    2    1   11    5       -0.0000001173
    2    1   12    5        0.0000000758
    2    1   13    5       -0.0000028155
    2    1    6    6       -0.0059132411
    2    1    7    6        0.0000000000
    2    1    8    6       -0.0000000528
    2    1    9    6       -0.0000000168
    2    1   10    6       -0.0003021060
    2    1   11    6       -0.0032751382
    2    1   12    6       -0.0020090742
    2    1   13    6       -0.0000001595
    2    1    7    7       -0.0044218789
    2    1    8    7        0.0000000119
    2    1    9    7       -0.0000000382
    2    1   10    7       -0.0000000000
    2    1   11    7       -0.0000000000
    2    1   12    7       -0.0000000000
    2    1   13    7       -0.0000000824
    2    1    8    8       -0.0070540169
    2    1    9    8       -0.0000000003
    2    1   10    8       -0.0000002394
    2    1   11    8       -0.0000000231
    2    1   12    8        0.0000000590
    2    1   13    8       -0.0000046237
    2    1    9    9       -0.0070540158
    2    1   10    9       -0.0000000734
    2    1   11    9       -0.0000000064
    2    1   12    9        0.0000000154
    2    1   13    9        0.0000000262
    2    1   10   10       -0.0017529038
    2    1   11   10        0.0020745113
    2    1   12   10       -0.0020659563
    2    1   13   10       -0.0000001695
    2    1   11   11       -0.0015694053
    2    1   12   11       -0.0020411948
    2    1   13   11       -0.0000001572
    2    1   12   12       -0.0029862907
    2    1   13   12        0.0000002992
    2    1   13   13       -0.0067590530
    3    1    3    1        0.0019083116
    3    1    4    1        0.0000000104
    3    1    5    1        0.0000002551
    3    1    6    1       -0.0033366200
    3    1    7    1       -0.0000000000
    3    1    8    1       -0.0000003987
    3    1    9    1       -0.0000001241
    3    1   10    1        0.0013413027
    3    1   11    1       -0.0010243933
    3    1   12    1       -0.0027169276
    3    1   13    1       -0.0000001894
    3    1    2    2       -0.0077740017
    3    1    3    2       -0.0017803429
    3    1    4    2       -0.0000000482
    3    1    5    2       -0.0000011844
    3    1    6    2       -0.0000638116
    3    1    7    2        0.0000000000
    3    1    8    2        0.0000006725
    3    1    9    2        0.0000002095
    3    1   10    2       -0.0011956477
    3    1   11    2        0.0006463072
    3    1   12    2       -0.0009378656
    3    1   13    2       -0.0000000694
    3    1    3    3       -0.0016074673
    3    1    4    3       -0.0000000081
    3    1    5    3       -0.0000001995
    3    1    6    3        0.0007203362
    3    1    7    3        0.0000000000
    3    1    8    3        0.0000012351
    3    1    9    3        0.0000003849
    3    1   10    3       -0.0011994113
    3    1   11    3        0.0002671913
    3    1   12    3        0.0002078785
    3    1   13    3        0.0000000126
    3    1    4    4       -0.0056433547
    3    1    5    4        0.0000000000
    3    1    6    4        0.0000000167
    3    1    7    4        0.0000006799
    3    1    8    4       -0.0007186009
    3    1    9    4        0.0026834469
    3    1   10    4        0.0000000247
    3    1   11    4       -0.0000000032
    3    1   12    4        0.0000000140
    3    1   13    4       -0.0000003187
    3    1    5    5       -0.0056433541
    3    1    6    5        0.0000004094
    3    1    7    5       -0.0000000277
    3    1    8    5        0.0026834472
    3    1    9    5        0.0007186009
    3    1   10    5        0.0000006217
    3    1   11    5       -0.0000000740
    3    1   12    5        0.0000003299
    3    1   13    5        0.0000001100
    3    1    6    6       -0.0023053617
    3    1    7    6       -0.0000000000
    3    1    8    6       -0.0000002228
    3    1    9    6       -0.0000000695
    3    1   10    6        0.0001501156
    3    1   11    6       -0.0009770983
    3    1   12    6       -0.0013136741
    3    1   13    6       -0.0000000980
    3    1    7    7       -0.0011269295
    3    1    8    7        0.0000000385
    3    1    9    7       -0.0000001236
    3    1   10    7        0.0000000000
    3    1   11    7       -0.0000000000
    3    1   12    7        0.0000000000
    3    1   13    7        0.0000001156
    3    1    8    8       -0.0025472733
    3    1    9    8       -0.0000000000
    3    1   10    8       -0.0000001364
    3    1   11    8        0.0000000412
    3    1   12    8       -0.0000002850
    3    1   13    8       -0.0000023820
    3    1    9    9       -0.0025472731
    3    1   10    9       -0.0000000421
    3    1   11    9        0.0000000131
    3    1   12    9       -0.0000000900
    3    1   13    9       -0.0000001813
    3    1   10   10       -0.0007394880
    3    1   11   10        0.0006373154
    3    1   12   10       -0.0003415172
    3    1   13   10       -0.0000000306
    3    1   11   11       -0.0007078697
    3    1   12   11       -0.0007252679
    3    1   13   11       -0.0000000520
    3    1   12   12       -0.0015103493
    3    1   13   12        0.0000000312
    3    1   13   13       -0.0018028252
    4    1    4    1        0.0028959119
    4    1    5    1       -0.0000000000
    4    1    6    1        0.0000000242
    4    1    7    1        0.0000001738
    4    1    8    1        0.0004834710
    4    1    9    1       -0.0018054091
    4    1   10    1       -0.0000000101
    4    1   11    1        0.0000000034
    4    1   12    1        0.0000000161
    4    1   13    1        0.0000006482
    4    1    2    2        0.0000000514
    4    1    3    2       -0.0000001008
    4    1    4    2       -0.0074507819
    4    1    5    2        0.0000000000
    4    1    6    2       -0.0000000413
    4    1    7    2       -0.0000022481
    4    1    8    2       -0.0010041090
    4    1    9    2        0.0037496102
    4    1   10    2       -0.0000000161
    4    1   11    2       -0.0000000128
    4    1   12    2        0.0000000035
    4    1   13    2       -0.0000003691
    4    1    3    3        0.0000009550
    4    1    4    3        0.0000598634
    4    1    5    3       -0.0000000001
    4    1    6    3        0.0000005743
    4    1    7    3        0.0000251489
    4    1    8    3       -0.0006394804
    4    1    9    3        0.0023879904
    4    1   10    3       -0.0000000557
    4    1   11    3        0.0000001529
    4    1   12    3       -0.0000002230
    4    1   13    3       -0.0000004278
    4    1    4    4       -0.0000000032
    4    1    5    4       -0.0000009089
    4    1    6    4        0.0022173215
    4    1    7    4        0.0001666505
    4    1    8    4       -0.0000035322
    4    1    9    4       -0.0000011591
    4    1   10    4        0.0005488923
    4    1   11    4        0.0004413913
    4    1   12    4        0.0015729959
    4    1   13    4        0.0034204935
    4    1    5    5        0.0000001455
    4    1    6    5       -0.0000000001
    4    1    7    5        0.0020455402
    4    1    8    5        0.0000014825
    4    1    9    5       -0.0000038429
    4    1   10    5        0.0000000000
    4    1   11    5       -0.0000000001
    4    1   12    5        0.0000000223
    4    1   13    5       -0.0002792510
    4    1    6    6        0.0000006156
    4    1    7    6        0.0000135838
    4    1    8    6        0.0003919826
    4    1    9    6       -0.0014637672
    4    1   10    6        0.0000000419
    4    1   11    6       -0.0000003128
    4    1   12    6       -0.0000004787
    4    1   13    6        0.0000019790
    4    1    7    7        0.0000014871
    4    1    8    7       -0.0006736366
    4    1    9    7       -0.0002405247
    4    1   10    7        0.0000083958
    4    1   11    7       -0.0000004653
    4    1   12    7        0.0000088041
    4    1   13    7        0.0000018045
    4    1    8    8        0.0000099610
    4    1    9    8       -0.0000134363
    4    1   10    8       -0.0001127528
    4    1   11    8        0.0001129319
    4    1   12    8        0.0002999038
    4    1   13    8       -0.0002856952
    4    1    9    9       -0.0000086199
    4    1   10    9        0.0004210488
    4    1   11    9       -0.0004217179
    4    1   12    9       -0.0011198985
    4    1   13    9        0.0008015176
    4    1   10   10        0.0000011756
    4    1   11   10        0.0000000131
    4    1   12   10        0.0000001885
    4    1   13   10       -0.0000001318
    4    1   11   11        0.0000013335
    4    1   12   11       -0.0000000537
    4    1   13   11       -0.0000002547
    4    1   12   12        0.0000014338
    4    1   13   12        0.0000002437
    4    1   13   13        0.0000019826
    5    1    5    1        0.0028959116
    5    1    6    1        0.0000005949
    5    1    7    1       -0.0000000071
    5    1    8    1       -0.0018054093
    5    1    9    1       -0.0004834710
    5    1   10    1       -0.0000002583
    5    1   11    1        0.0000000787
    5    1   12    1        0.0000004267
    5    1   13    1       -0.0000024032
    5    1    2    2        0.0000012648
    5    1    3    2       -0.0000024796
    5    1    4    2        0.0000000000
    5    1    5    2       -0.0074507807
    5    1    6    2       -0.0000010149
    5    1    7    2        0.0000000914
    5    1    8    2        0.0037496106
    5    1    9    2        0.0010041091
    5    1   10    2       -0.0000003733
    5    1   11    2       -0.0000003080
    5    1   12    2        0.0000000682
    5    1   13    2        0.0000013924
    5    1    3    3        0.0000234828
    5    1    4    3       -0.0000000001
    5    1    5    3        0.0000598606
    5    1    6    3        0.0000141212
    5    1    7    3       -0.0000010228
    5    1    8    3        0.0023879917
    5    1    9    3        0.0006394809
    5    1   10    3       -0.0000013566
    5    1   11    3        0.0000037632
    5    1   12    3       -0.0000055032
    5    1   13    3        0.0000009637
    5    1    4    4        0.0000017456
    5    1    5    4        0.0000000375
    5    1    6    4       -0.0000000001
    5    1    7    4        0.0020455437
    5    1    8    4       -0.0000007435
    5    1    9    4        0.0000032951
    5    1   10    4        0.0000000000
    5    1   11    4       -0.0000000001
    5    1   12    4        0.0000000223
    5    1   13    4       -0.0002792459
    5    1    5    5        0.0000017538
    5    1    6    5        0.0022173192
    5    1    7    5       -0.0001666505
    5    1    8    5        0.0000027905
    5    1    9    5        0.0000009282
    5    1   10    5        0.0005488928
    5    1   11    5        0.0004413878
    5    1   12    5        0.0015735484
    5    1   13    5       -0.0034202515
    5    1    6    6        0.0000151370
    5    1    7    6       -0.0000005524
    5    1    8    6       -0.0014637671
    5    1    9    6       -0.0003919826
    5    1   10    6        0.0000010216
    5    1   11    6       -0.0000076990
    5    1   12    6       -0.0000116730
    5    1   13    6       -0.0000073712
    5    1    7    7        0.0000365673
    5    1    8    7        0.0002405246
    5    1    9    7       -0.0006736363
    5    1   10    7       -0.0000003413
    5    1   11    7        0.0000000189
    5    1   12    7       -0.0000003570
    5    1   13    7       -0.0000006561
    5    1    8    8        0.0000162554
    5    1    9    8        0.0000005504
    5    1   10    8        0.0004210488
    5    1   11    8       -0.0004217186
    5    1   12    8       -0.0011197704
    5    1   13    8       -0.0008016906
    5    1    9    9        0.0000170214
    5    1   10    9        0.0001127527
    5    1   11    9       -0.0001129322
    5    1   12    9       -0.0002998577
    5    1   13    9       -0.0002857217
    5    1   10   10        0.0000289120
    5    1   11   10        0.0000003207
    5    1   12   10        0.0000046234
    5    1   13   10        0.0000003878
    5    1   11   11        0.0000327893
    5    1   12   11       -0.0000013343
    5    1   13   11        0.0000009783
    5    1   12   12        0.0000352786
    5    1   13   12       -0.0000008719
    5    1   13   13        0.0000057505
    6    1    6    1        0.0071100325
    6    1    7    1        0.0000000000
    6    1    8    1        0.0000001169
    6    1    9    1        0.0000000361
    6    1   10    1       -0.0024659099
    6    1   11    1        0.0015475900
    6    1   12    1        0.0061589531
    6    1   13    1        0.0000004302
    6    1    2    2        0.0042706617
    6    1    3    2        0.0011770117
    6    1    4    2       -0.0000000193
    6    1    5    2       -0.0000004755
    6    1    6    2       -0.0001618228
    6    1    7    2        0.0000000000
    6    1    8    2        0.0000000290
    6    1    9    2        0.0000000091
    6    1   10    2        0.0004833928
    6    1   11    2       -0.0009031054
    6    1   12    2        0.0006745963
    6    1   13    2        0.0000000459
    6    1    3    3        0.0016556243
    6    1    4    3        0.0000000380
    6    1    5    3        0.0000009351
    6    1    6    3       -0.0001572056
    6    1    7    3       -0.0000000000
    6    1    8    3       -0.0000001218
    6    1    9    3       -0.0000000377
    6    1   10    3        0.0013691425
    6    1   11    3       -0.0001430636
    6    1   12    3       -0.0003220385
    6    1   13    3       -0.0000000201
    6    1    4    4        0.0060941011
    6    1    5    4       -0.0000000000
    6    1    6    4        0.0000000083
    6    1    7    4        0.0000002817
    6    1    8    4        0.0007758099
    6    1    9    4       -0.0028970807
    6    1   10    4       -0.0000000062
    6    1   11    4        0.0000000014
    6    1   12    4        0.0000000042
    6    1   13    4        0.0000007403
    6    1    5    5        0.0060941005
    6    1    6    5        0.0000002051
    6    1    7    5       -0.0000000114
    6    1    8    5       -0.0028970809
    6    1    9    5       -0.0007758100
    6    1   10    5       -0.0000001683
    6    1   11    5        0.0000000295
    6    1   12    5        0.0000001385
    6    1   13    5       -0.0000031810
    6    1    6    6        0.0016451927
    6    1    7    6       -0.0000000000
    6    1    8    6        0.0000000337
    6    1    9    6        0.0000000106
    6    1   10    6        0.0001579665
    6    1   11    6        0.0004270957
    6    1   12    6        0.0006909050
    6    1   13    6        0.0000000455
    6    1    7    7        0.0016743195
    6    1    8    7        0.0000000068
    6    1    9    7       -0.0000000217
    6    1   10    7        0.0000000000
    6    1   11    7        0.0000000000
    6    1   12    7       -0.0000000001
    6    1   13    7       -0.0000003626
    6    1    8    8        0.0028902740
    6    1    9    8        0.0000000002
    6    1   10    8       -0.0000000013
    6    1   11    8        0.0000000577
    6    1   12    8       -0.0000001388
    6    1   13    8        0.0000011716
    6    1    9    9        0.0028902732
    6    1   10    9       -0.0000000009
    6    1   11    9        0.0000000177
    6    1   12    9       -0.0000000423
    6    1   13    9       -0.0000001256
    6    1   10   10        0.0008269825
    6    1   11   10       -0.0007714998
    6    1   12   10        0.0005510604
    6    1   13   10        0.0000000478
    6    1   11   11        0.0008552516
    6    1   12   11        0.0006330223
    6    1   13   11        0.0000000435
    6    1   12   12        0.0011697983
    6    1   13   12       -0.0000000979
    6    1   13   13        0.0023807932
    7    1    7    1        0.0000655950
    7    1    8    1        0.0000000237
    7    1    9    1       -0.0000000759
    7    1   10    1       -0.0000000000
    7    1   11    1        0.0000000000
    7    1   12    1        0.0000000000
    7    1   13    1       -0.0000000342
    7    1    2    2        0.0000000000
    7    1    3    2        0.0000000000
    7    1    4    2       -0.0000005414
    7    1    5    2        0.0000000220
    7    1    6    2        0.0000000000
    7    1    7    2       -0.0002273399
    7    1    8    2       -0.0000000325
    7    1    9    2        0.0000001043
    7    1   10    2        0.0000000000
    7    1   11    2       -0.0000000000
    7    1   12    2        0.0000000000
    7    1   13    2        0.0000000673
    7    1    3    3        0.0000000000
    7    1    4    3        0.0000006284
    7    1    5    3       -0.0000000256
    7    1    6    3       -0.0000000000
    7    1    7    3        0.0003241442
    7    1    8    3       -0.0000001846
    7    1    9    3        0.0000005920
    7    1   10    3        0.0000000000
    7    1   11    3        0.0000000000
    7    1   12    3       -0.0000000000
    7    1   13    3       -0.0000000234
    7    1    4    4        0.0000456751
    7    1    5    4        0.0005606379
    7    1    6    4        0.0000002761
    7    1    7    4        0.0000000209
    7    1    8    4       -0.0002733135
    7    1    9    4       -0.0000975871
    7    1   10    4        0.0000003280
    7    1   11    4       -0.0000000526
    7    1   12    4        0.0000002050
    7    1   13    4        0.0000007699
    7    1    5    5       -0.0000456751
    7    1    6    5       -0.0000000112
    7    1    7    5        0.0000005147
    7    1    8    5        0.0000975870
    7    1    9    5       -0.0002733136
    7    1   10    5       -0.0000000133
    7    1   11    5        0.0000000022
    7    1   12    5       -0.0000000083
    7    1   13    5       -0.0000000718
    7    1    6    6        0.0000000000
    7    1    7    6        0.0001801384
    7    1    8    6       -0.0000000016
    7    1    9    6        0.0000000052
    7    1   10    6       -0.0000000000
    7    1   11    6        0.0000000000
    7    1   12    6       -0.0000000001
    7    1   13    6       -0.0000001555
    7    1    7    7        0.0000000000
    7    1    8    7       -0.0000000254
    7    1    9    7       -0.0000000079
    7    1   10    7        0.0002611090
    7    1   11    7       -0.0000712300
    7    1   12    7        0.0002397706
    7    1   13    7        0.0000000214
    7    1    8    8       -0.0000493756
    7    1    9    8        0.0000714663
    7    1   10    8        0.0000000454
    7    1   11    8       -0.0000000437
    7    1   12    8        0.0000000494
    7    1   13    8       -0.0000004703
    7    1    9    9        0.0000493756
    7    1   10    9       -0.0000001456
    7    1   11    9        0.0000001401
    7    1   12    9       -0.0000001577
    7    1   13    9        0.0000010581
    7    1   10   10        0.0000000000
    7    1   11   10        0.0000000000
    7    1   12   10       -0.0000000000
    7    1   13   10       -0.0000000915
    7    1   11   11       -0.0000000000
    7    1   12   11        0.0000000000
    7    1   13   11        0.0000000991
    7    1   12   12       -0.0000000000
    7    1   13   12       -0.0000000478
    7    1   13   13        0.0000000004
    8    1    8    1        0.0012565164
    8    1    9    1        0.0000000001
    8    1   10    1       -0.0000000204
    8    1   11    1        0.0000000720
    8    1   12    1        0.0000001251
    8    1   13    1        0.0000016409
    8    1    2    2        0.0000002308
    8    1    3    2        0.0000014034
    8    1    4    2       -0.0011660402
    8    1    5    2        0.0043543045
    8    1    6    2        0.0000004511
    8    1    7    2       -0.0000003012
    8    1    8    2       -0.0025542019
    8    1    9    2       -0.0000000002
    8    1   10    2        0.0000002681
    8    1   11    2        0.0000000510
    8    1   12    2        0.0000000758
    8    1   13    2       -0.0000012404
    8    1    3    3       -0.0000094818
    8    1    4    3       -0.0000942985
    8    1    5    3        0.0003521375
    8    1    6    3       -0.0000061802
    8    1    7    3        0.0000033334
    8    1    8    3       -0.0012849483
    8    1    9    3        0.0000000004
    8    1   10    3        0.0000002266
    8    1   11    3       -0.0000012775
    8    1   12    3        0.0000021271
    8    1   13    3       -0.0000007811
    8    1    4    4       -0.0000002690
    8    1    5    4       -0.0000001017
    8    1    6    4        0.0003974688
    8    1    7    4       -0.0010407002
    8    1    8    4        0.0000000301
    8    1    9    4       -0.0000018729
    8    1   10    4        0.0000221187
    8    1   11    4        0.0001040513
    8    1   12    4        0.0002668921
    8    1   13    4        0.0005771747
    8    1    5    5       -0.0000002018
    8    1    6    5       -0.0014842528
    8    1    7    5        0.0003715816
    8    1    8    5       -0.0000011708
    8    1    9    5       -0.0000008748
    8    1   10    5       -0.0000825974
    8    1   11    5       -0.0003885536
    8    1   12    5       -0.0009969511
    8    1   13    5        0.0016152960
    8    1    6    6       -0.0000062836
    8    1    7    6        0.0000018770
    8    1    8    6        0.0010268874
    8    1    9    6        0.0000000006
    8    1   10    6       -0.0000006973
    8    1   11    6        0.0000035762
    8    1   12    6        0.0000048265
    8    1   13    6        0.0000036898
    8    1    7    7       -0.0000155825
    8    1    8    7       -0.0002321286
    8    1    9    7        0.0003359770
    8    1   10    7        0.0000012443
    8    1   11    7       -0.0000001787
    8    1   12    7        0.0000011515
    8    1   13    7        0.0000003355
    8    1    8    8       -0.0000052428
    8    1    9    8       -0.0000016278
    8    1   10    8       -0.0003581646
    8    1   11    8        0.0003741005
    8    1   12    8        0.0007704476
    8    1   13    8        0.0001619250
    8    1    9    9       -0.0000079305
    8    1   10    9       -0.0000000004
    8    1   11    9        0.0000000003
    8    1   12    9       -0.0000000095
    8    1   13    9        0.0001115113
    8    1   10   10       -0.0000117239
    8    1   11   10       -0.0000002342
    8    1   12   10       -0.0000019123
    8    1   13   10       -0.0000003352
    8    1   11   11       -0.0000135989
    8    1   12   11        0.0000005879
    8    1   13   11       -0.0000003491
    8    1   12   12       -0.0000143018
    8    1   13   12        0.0000009627
    8    1   13   13       -0.0000026942
    9    1    9    1        0.0012565160
    9    1   10    1       -0.0000000065
    9    1   11    1        0.0000000223
    9    1   12    1        0.0000000396
    9    1   13    1       -0.0000000069
    9    1    2    2        0.0000000713
    9    1    3    2        0.0000004375
    9    1    4    2        0.0043543042
    9    1    5    2        0.0011660402
    9    1    6    2        0.0000001406
    9    1    7    2        0.0000009660
    9    1    8    2       -0.0000000003
    9    1    9    2       -0.0025542010
    9    1   10    2        0.0000000841
    9    1   11    2        0.0000000161
    9    1   12    2        0.0000000228
    9    1   13    2        0.0000000179
    9    1    3    3       -0.0000029571
    9    1    4    3        0.0003521358
    9    1    5    3        0.0000942991
    9    1    6    3       -0.0000019273
    9    1    7    3       -0.0000106889
    9    1    8    3        0.0000000005
    9    1    9    3       -0.0012849495
    9    1   10    3        0.0000000709
    9    1   11    3       -0.0000003983
    9    1   12    3        0.0000006629
    9    1   13    3        0.0000000133
    9    1    4    4       -0.0000000622
    9    1    5    4        0.0000003339
    9    1    6    4       -0.0014842539
    9    1    7    4       -0.0003715821
    9    1    8    4        0.0000015674
    9    1    9    4       -0.0000000012
    9    1   10    4       -0.0000825970
    9    1   11    4       -0.0003885552
    9    1   12    4       -0.0009966893
    9    1   13    4       -0.0016154470
    9    1    5    5       -0.0000000854
    9    1    6    5       -0.0003974683
    9    1    7    5       -0.0010406980
    9    1    8    5       -0.0000010032
    9    1    9    5        0.0000015429
    9    1   10    5       -0.0000221188
    9    1   11    5       -0.0001040508
    9    1   12    5       -0.0002669853
    9    1   13    5        0.0005771366
    9    1    6    6       -0.0000019597
    9    1    7    6       -0.0000060187
    9    1    8    6        0.0000000005
    9    1    9    6        0.0010268857
    9    1   10    6       -0.0000002177
    9    1   11    6        0.0000011150
    9    1   12    6        0.0000015071
    9    1   13    6       -0.0000000379
    9    1    7    7       -0.0000048595
    9    1    8    7        0.0003359787
    9    1    9    7        0.0002321286
    9    1   10    7       -0.0000039903
    9    1   11    7        0.0000005730
    9    1   12    7       -0.0000036934
    9    1   13    7       -0.0000004373
    9    1    8    8       -0.0000058355
    9    1    9    8        0.0000055775
    9    1   10    8       -0.0000000004
    9    1   11    8        0.0000000003
    9    1   12    8       -0.0000000096
    9    1   13    8        0.0001115199
    9    1    9    9        0.0000017299
    9    1   10    9       -0.0003581635
    9    1   11    9        0.0003740996
    9    1   12    9        0.0007704749
    9    1   13    9       -0.0001618113
    9    1   10   10       -0.0000036560
    9    1   11   10       -0.0000000731
    9    1   12   10       -0.0000005967
    9    1   13   10       -0.0000000080
    9    1   11   11       -0.0000042409
    9    1   12   11        0.0000001830
    9    1   13   11       -0.0000000069
    9    1   12   12       -0.0000044592
    9    1   13   12        0.0000000087
    9    1   13   13       -0.0000018910
   10    1   10    1        0.0010291011
   10    1   11    1       -0.0005970959
   10    1   12    1       -0.0020803341
   10    1   13    1       -0.0000001444
   10    1    2    2       -0.0041462898
   10    1    3    2       -0.0010696321
   10    1    4    2        0.0000000088
   10    1    5    2        0.0000002409
   10    1    6    2       -0.0003762761
   10    1    7    2       -0.0000000000
   10    1    8    2       -0.0000000589
   10    1    9    2       -0.0000000180
   10    1   10    2       -0.0007696634
   10    1   11    2        0.0003588179
   10    1   12    2       -0.0009141231
   10    1   13    2       -0.0000000676
   10    1    3    3       -0.0007477344
   10    1    4    3       -0.0000000055
   10    1    5    3       -0.0000001344
   10    1    6    3        0.0004094327
   10    1    7    3        0.0000000000
   10    1    8    3        0.0000002809
   10    1    9    3        0.0000000878
   10    1   10    3       -0.0005224558
   10    1   11    3        0.0002073036
   10    1   12    3        0.0000287870
   10    1   13    3        0.0000000014
   10    1    4    4       -0.0028221020
   10    1    5    4       -0.0000000000
   10    1    6    4       -0.0000000027
   10    1    7    4        0.0000001279
   10    1    8    4       -0.0003979934
   10    1    9    4        0.0014862132
   10    1   10    4        0.0000000116
   10    1   11    4       -0.0000000031
   10    1   12    4        0.0000000002
   10    1   13    4       -0.0000001094
   10    1    5    5       -0.0028221018
   10    1    6    5       -0.0000000754
   10    1    7    5       -0.0000000050
   10    1    8    5        0.0014862132
   10    1    9    5        0.0003979934
   10    1   10    5        0.0000002935
   10    1   11    5       -0.0000000756
   10    1   12    5       -0.0000000048
   10    1   13    5        0.0000003337
   10    1    6    6       -0.0010101279
   10    1    7    6        0.0000000000
   10    1    8    6        0.0000000163
   10    1    9    6        0.0000000048
   10    1   10    6        0.0001169663
   10    1   11    6       -0.0005840505
   10    1   12    6       -0.0005934646
   10    1   13    6       -0.0000000439
   10    1    7    7       -0.0003324387
   10    1    8    7       -0.0000000046
   10    1    9    7        0.0000000144
   10    1   10    7        0.0000000000
   10    1   11    7       -0.0000000000
   10    1   12    7       -0.0000000000
   10    1   13    7       -0.0000000011
   10    1    8    8       -0.0012887194
   10    1    9    8       -0.0000000002
   10    1   10    8       -0.0000000115
   10    1   11    8        0.0000000967
   10    1   12    8       -0.0000000117
   10    1   13    8       -0.0000011411
   10    1    9    9       -0.0012887189
   10    1   10    9       -0.0000000033
   10    1   11    9        0.0000000302
   10    1   12    9       -0.0000000044
   10    1   13    9       -0.0000000421
   10    1   10   10       -0.0003400990
   10    1   11   10        0.0002909861
   10    1   12   10       -0.0001695522
   10    1   13   10       -0.0000000142
   10    1   11   11       -0.0003233252
   10    1   12   11       -0.0003971801
   10    1   13   11       -0.0000000289
   10    1   12   12       -0.0006332899
   10    1   13   12        0.0000000041
   10    1   13   13       -0.0006409839
   11    1   11    1        0.0008384765
   11    1   12    1        0.0011701843
   11    1   13    1        0.0000000813
   11    1    2    2        0.0054730973
   11    1    3    2        0.0013877666
   11    1    4    2       -0.0000000019
   11    1    5    2       -0.0000000379
   11    1    6    2       -0.0009112647
   11    1    7    2       -0.0000000000
   11    1    8    2       -0.0000000847
   11    1    9    2       -0.0000000260
   11    1   10    2        0.0008978904
   11    1   11    2       -0.0006963512
   11    1   12    2       -0.0002633186
   11    1   13    2       -0.0000000176
   11    1    3    3        0.0011725310
   11    1    4    3        0.0000000079
   11    1    5    3        0.0000001939
   11    1    6    3       -0.0006363759
   11    1    7    3        0.0000000000
   11    1    8    3       -0.0000005534
   11    1    9    3       -0.0000001723
   11    1   10    3        0.0008781184
   11    1   11    3       -0.0002029209
   11    1   12    3       -0.0003589887
   11    1   13    3       -0.0000000229
   11    1    4    4        0.0039650045
   11    1    5    4       -0.0000000000
   11    1    6    4       -0.0000000039
   11    1    7    4       -0.0000002123
   11    1    8    4        0.0005271433
   11    1    9    4       -0.0019684932
   11    1   10    4       -0.0000000139
   11    1   11    4        0.0000000078
   11    1   12    4       -0.0000000022
   11    1   13    4        0.0000003668
   11    1    5    5        0.0039650033
   11    1    6    5       -0.0000000995
   11    1    7    5        0.0000000087
   11    1    8    5       -0.0019684933
   11    1    9    5       -0.0005271433
   11    1   10    5       -0.0000003536
   11    1   11    5        0.0000001869
   11    1   12    5       -0.0000000400
   11    1   13    5       -0.0000010750
   11    1    6    6        0.0017622803
   11    1    7    6        0.0000000000
   11    1    8    6       -0.0000000161
   11    1    9    6       -0.0000000051
   11    1   10    6       -0.0002268815
   11    1   11    6        0.0006911263
   11    1   12    6        0.0011397581
   11    1   13    6        0.0000000814
   11    1    7    7        0.0008220995
   11    1    8    7       -0.0000000168
   11    1    9    7        0.0000000538
   11    1   10    7        0.0000000000
   11    1   11    7        0.0000000000
   11    1   12    7       -0.0000000000
   11    1   13    7       -0.0000000933
   11    1    8    8        0.0018868491
   11    1    9    8       -0.0000000000
   11    1   10    8        0.0000001954
   11    1   11    8        0.0000000473
   11    1   12    8        0.0000000996
   11    1   13    8        0.0000016877
   11    1    9    9        0.0018868490
   11    1   10    9        0.0000000606
   11    1   11    9        0.0000000145
   11    1   12    9        0.0000000318
   11    1   13    9        0.0000000736
   11    1   10   10        0.0005494196
   11    1   11   10       -0.0004924077
   11    1   12   10        0.0000683799
   11    1   13   10        0.0000000099
   11    1   11   11        0.0005063109
   11    1   12   11        0.0005410121
   11    1   13   11        0.0000000374
   11    1   12   12        0.0012720597
   11    1   13   12       -0.0000000099
   11    1   13   13        0.0012892614
   12    1   12    1        0.0054692539
   12    1   13    1        0.0000003687
   12    1    2    2        0.0005622012
   12    1    3    2        0.0003342150
   12    1    4    2       -0.0000000029
   12    1    5    2       -0.0000001250
   12    1    6    2        0.0000232840
   12    1    7    2        0.0000000000
   12    1    8    2        0.0000000119
   12    1    9    2        0.0000000023
   12    1   10    2       -0.0000724520
   12    1   11    2       -0.0006079356
   12    1   12    2        0.0003856259
   12    1   13    2        0.0000000685
   12    1    3    3        0.0009361046
   12    1    4    3        0.0000000187
   12    1    5    3        0.0000004562
   12    1    6    3       -0.0000586610
   12    1    7    3       -0.0000000001
   12    1    8    3       -0.0000002222
   12    1    9    3       -0.0000000700
   12    1   10    3        0.0007684406
   12    1   11    3       -0.0000714107
   12    1   12    3       -0.0001863173
   12    1   13    3       -0.0000000468
   12    1    4    4        0.0035616285
   12    1    5    4        0.0000000065
   12    1    6    4       -0.0000000004
   12    1    7    4        0.0000001031
   12    1    8    4        0.0004599941
   12    1    9    4       -0.0017177443
   12    1   10    4       -0.0000000060
   12    1   11    4        0.0000000011
   12    1   12    4        0.0000000014
   12    1   13    4        0.0000005277
   12    1    5    5        0.0035617908
   12    1    6    5        0.0000000284
   12    1    7    5       -0.0000000048
   12    1    8    5       -0.0017177698
   12    1    9    5       -0.0004600030
   12    1   10    5       -0.0000001550
   12    1   11    5        0.0000000264
   12    1   12    5        0.0000000845
   12    1   13    5       -0.0000020481
   12    1    6    6        0.0006862931
   12    1    7    6       -0.0000000001
   12    1    8    6       -0.0000000401
   12    1    9    6       -0.0000000118
   12    1   10    6        0.0001480917
   12    1   11    6        0.0002191267
   12    1   12    6        0.0001524229
   12    1   13    6       -0.0000000155
   12    1    7    7        0.0010682867
   12    1    8    7       -0.0000000084
   12    1    9    7        0.0000000282
   12    1   10    7       -0.0000000000
   12    1   11    7        0.0000000000
   12    1   12    7       -0.0000000001
   12    1   13    7       -0.0000002256
   12    1    8    8        0.0017575760
   12    1    9    8        0.0000000208
   12    1   10    8        0.0000000223
   12    1   11    8        0.0000000075
   12    1   12    8        0.0000000278
   12    1   13    8        0.0000010652
   12    1    9    9        0.0017575158
   12    1   10    9        0.0000000066
   12    1   11    9        0.0000000025
   12    1   12    9        0.0000000101
   12    1   13    9       -0.0000000279
   12    1   10   10        0.0004291255
   12    1   11   10       -0.0004981594
   12    1   12   10        0.0003453282
   12    1   13   10        0.0000000048
   12    1   11   11        0.0004953275
   12    1   12   11        0.0003707188
   12    1   13   11        0.0000000275
   12    1   12   12        0.0004008986
   12    1   13   12       -0.0000000901
   12    1   13   13        0.0014426448
   13    1   13    1        0.0001660385
   13    1    2    2        0.0000000285
   13    1    3    2        0.0000000227
   13    1    4    2       -0.0000011181
   13    1    5    2        0.0000041990
   13    1    6    2        0.0000000005
   13    1    7    2        0.0000000905
   13    1    8    2       -0.0000023762
   13    1    9    2        0.0000000604
   13    1   10    2       -0.0000000078
   13    1   11    2       -0.0000000427
   13    1   12    2        0.0000000674
   13    1   13    2       -0.0005473499
   13    1    3    3        0.0000000343
   13    1    4    3       -0.0000000924
   13    1    5    3       -0.0000006528
   13    1    6    3       -0.0000000255
   13    1    7    3       -0.0000001030
   13    1    8    3       -0.0000045906
   13    1    9    3       -0.0000008969
   13    1   10    3        0.0000000689
   13    1   11    3       -0.0000000077
   13    1   12    3       -0.0000000170
   13    1   13    3        0.0004501548
   13    1    4    4        0.0010102991
   13    1    5    4       -0.0000825362
   13    1    6    4        0.0000007576
   13    1    7    4       -0.0000004982
   13    1    8    4        0.0000552753
   13    1    9    4       -0.0001544094
   13    1   10    4        0.0000000685
   13    1   11    4        0.0000000751
   13    1   12    4        0.0000005112
   13    1   13    4        0.0000010581
   13    1    5    5       -0.0010098048
   13    1    6    5       -0.0000034300
   13    1    7    5        0.0000003785
   13    1    8    5        0.0001541671
   13    1    9    5        0.0000552103
   13    1   10    5       -0.0000002221
   13    1   11    5       -0.0000003922
   13    1   12    5       -0.0000012701
   13    1   13    5        0.0000028875
   13    1    6    6        0.0000000177
   13    1    7    6       -0.0000001151
   13    1    8    6       -0.0000008202
   13    1    9    6       -0.0000006164
   13    1   10    6        0.0000000215
   13    1   11    6        0.0000000226
   13    1   12    6        0.0000000215
   13    1   13    6        0.0003042777
   13    1    7    7        0.0000000496
   13    1    8    7       -0.0000011611
   13    1    9    7        0.0000030079
   13    1   10    7       -0.0000001050
   13    1   11    7        0.0000000554
   13    1   12    7       -0.0000000964
   13    1   13    7        0.0000000020
   13    1    8    8       -0.0003745395
   13    1    9    8       -0.0002589168
   13    1   10    8        0.0000005267
   13    1   11    8       -0.0000001119
   13    1   12    8        0.0000033221
   13    1   13    8        0.0000001081
   13    1    9    9        0.0003747578
   13    1   10    9        0.0000002066
   13    1   11    9       -0.0000002206
   13    1   12    9        0.0000005995
   13    1   13    9        0.0000000797
   13    1   10   10       -0.0000000234
   13    1   11   10       -0.0000000352
   13    1   12   10       -0.0000000220
   13    1   13   10        0.0003120720
   13    1   11   11       -0.0000000237
   13    1   12   11        0.0000000325
   13    1   13   11       -0.0000348309
   13    1   12   12       -0.0000000836
   13    1   13   12        0.0000989146
   13    1   13   13        0.0000001086
    2    2    2    2        0.2021628549
    2    2    3    2        0.0235378954
    2    2    4    2       -0.0000001583
    2    2    5    2       -0.0000038920
    2    2    6    2        0.0042424265
    2    2    7    2       -0.0000000000
    2    2    8    2       -0.0000007296
    2    2    9    2       -0.0000002235
    2    2   10    2        0.0162706365
    2    2   11    2       -0.0027563286
    2    2   12    2        0.0133311010
    2    2   13    2        0.0000010070
    2    2    3    3        0.0864732115
    2    2    4    3        0.0000003835
    2    2    5    3        0.0000094291
    2    2    6    3       -0.0149540885
    2    2    7    3       -0.0000000001
    2    2    8    3       -0.0000053552
    2    2    9    3       -0.0000016657
    2    2   10    3        0.0203436511
    2    2   11    3       -0.0091515590
    2    2   12    3        0.0004056181
    2    2   13    3        0.0000000666
    2    2    4    4        0.1487891885
    2    2    5    4       -0.0000000001
    2    2    6    4        0.0000000885
    2    2    7    4        0.0000001528
    2    2    8    4        0.0091426945
    2    2    9    4       -0.0341412550
    2    2   10    4       -0.0000001764
    2    2   11    4        0.0000000934
    2    2   12    4        0.0000000024
    2    2   13    4       -0.0000003360
    2    2    5    5        0.1487891808
    2    2    6    5        0.0000021769
    2    2    7    5       -0.0000000062
    2    2    8    5       -0.0341412595
    2    2    9    5       -0.0091426956
    2    2   10    5       -0.0000045340
    2    2   11    5        0.0000022552
    2    2   12    5        0.0000000349
    2    2   13    5        0.0000004024
    2    2    6    6        0.1115480799
    2    2    7    6        0.0000000001
    2    2    8    6        0.0000004571
    2    2    9    6        0.0000001438
    2    2   10    6       -0.0013896337
    2    2   11    6        0.0161409620
    2    2   12    6        0.0293591865
    2    2   13    6        0.0000022240
    2    2    7    7        0.0819934745
    2    2    8    7       -0.0000000671
    2    2    9    7        0.0000002150
    2    2   10    7        0.0000000000
    2    2   11    7        0.0000000003
    2    2   12    7       -0.0000000011
    2    2   13    7       -0.0000033031
    2    2    8    8        0.0947540734
    2    2    9    8        0.0000000018
    2    2   10    8        0.0000010149
    2    2   11    8        0.0000001226
    2    2   12    8        0.0000000075
    2    2   13    8        0.0000262749
    2    2    9    9        0.0947540668
    2    2   10    9        0.0000003111
    2    2   11    9        0.0000000355
    2    2   12    9        0.0000000183
    2    2   13    9       -0.0000002987
    2    2   10   10        0.0724422378
    2    2   11   10       -0.0049280570
    2    2   12   10        0.0032345520
    2    2   13   10        0.0000003373
    2    2   11   11        0.0740537051
    2    2   12   11        0.0096174850
    2    2   13   11        0.0000007561
    2    2   12   12        0.0881701045
    2    2   13   12       -0.0000008682
    2    2   13   13        0.0969313735
    3    2    3    2        0.0069068752
    3    2    4    2        0.0000003532
    3    2    5    2        0.0000086852
    3    2    6    2       -0.0032984998
    3    2    7    2       -0.0000000000
    3    2    8    2       -0.0000027500
    3    2    9    2       -0.0000008566
    3    2   10    2        0.0047777657
    3    2   11    2       -0.0023414415
    3    2   12    2        0.0005268097
    3    2   13    2        0.0000000457
    3    2    3    3        0.0013960474
    3    2    4    3       -0.0000002258
    3    2    5    3       -0.0000055532
    3    2    6    3       -0.0007235561
    3    2    7    3       -0.0000000000
    3    2    8    3       -0.0000107533
    3    2    9    3       -0.0000033533
    3    2   10    3        0.0014508610
    3    2   11    3       -0.0023556482
    3    2   12    3       -0.0005382713
    3    2   13    3       -0.0000000279
    3    2    4    4        0.0115166409
    3    2    5    4       -0.0000000002
    3    2    6    4       -0.0000001006
    3    2    7    4       -0.0000071929
    3    2    8    4        0.0020883593
    3    2    9    4       -0.0077984898
    3    2   10    4       -0.0000001973
    3    2   11    4        0.0000000031
    3    2   12    4       -0.0000000893
    3    2   13    4        0.0000024683
    3    2    5    5        0.0115166348
    3    2    6    5       -0.0000024728
    3    2    7    5        0.0000002925
    3    2    8    5       -0.0077984949
    3    2    9    5       -0.0020883610
    3    2   10    5       -0.0000048956
    3    2   11    5        0.0000000622
    3    2   12    5       -0.0000020963
    3    2   13    5        0.0000016666
    3    2    6    6        0.0041295724
    3    2    7    6        0.0000000000
    3    2    8    6        0.0000003261
    3    2    9    6        0.0000001017
    3    2   10    6       -0.0005452909
    3    2   11    6        0.0006270095
    3    2   12    6        0.0041284664
    3    2   13    6        0.0000003204
    3    2    7    7       -0.0001292863
    3    2    8    7       -0.0000000381
    3    2    9    7        0.0000001223
    3    2   10    7       -0.0000000000
    3    2   11    7        0.0000000001
    3    2   12    7       -0.0000000004
    3    2   13    7       -0.0000009503
    3    2    8    8        0.0042022678
    3    2    9    8       -0.0000000041
    3    2   10    8        0.0000013403
    3    2   11    8       -0.0000031446
    3    2   12    8        0.0000023489
    3    2   13    8        0.0000115419
    3    2    9    9        0.0042022791
    3    2   10    9        0.0000004175
    3    2   11    9       -0.0000009809
    3    2   12    9        0.0000007337
    3    2   13    9        0.0000029590
    3    2   10   10        0.0021425954
    3    2   11   10       -0.0001831073
    3    2   12   10       -0.0001404127
    3    2   13   10       -0.0000000072
    3    2   11   11        0.0014968983
    3    2   12   11        0.0008799943
    3    2   13   11        0.0000000507
    3    2   12   12        0.0038060874
    3    2   13   12        0.0000001853
    3    2   13   13        0.0008585929
    4    2    4    2        0.0253754029
    4    2    5    2       -0.0000000001
    4    2    6    2        0.0000001569
    4    2    7    2        0.0000081083
    4    2    8    2        0.0030245622
    4    2    9    2       -0.0112945204
    4    2   10    2        0.0000000590
    4    2   11    2        0.0000000731
    4    2   12    2        0.0000000153
    4    2   13    2       -0.0000003165
    4    2    3    3       -0.0000034268
    4    2    4    3       -0.0024315473
    4    2    5    3        0.0000000004
    4    2    6    3       -0.0000018597
    4    2    7    3       -0.0000906429
    4    2    8    3        0.0022140825
    4    2    9    3       -0.0082679754
    4    2   10    3        0.0000000443
    4    2   11    3       -0.0000010289
    4    2   12    3        0.0000007282
    4    2   13    3        0.0000023497
    4    2    4    4        0.0000001045
    4    2    5    4        0.0000035442
    4    2    6    4       -0.0031544488
    4    2    7    4       -0.0006013856
    4    2    8    4        0.0000127736
    4    2    9    4        0.0000041892
    4    2   10    4       -0.0031537369
    4    2   11    4       -0.0007770890
    4    2   12    4       -0.0026816679
    4    2   13    4       -0.0123943858
    4    2    5    5       -0.0000004804
    4    2    6    5        0.0000000002
    4    2    7    5       -0.0073816697
    4    2    8    5       -0.0000052970
    4    2    9    5        0.0000136259
    4    2   10    5       -0.0000000000
    4    2   11    5        0.0000000004
    4    2   12    5       -0.0000000809
    4    2   13    5        0.0010112834
    4    2    6    6       -0.0000019216
    4    2    7    6       -0.0000434758
    4    2    8    6       -0.0009600851
    4    2    9    6        0.0035852116
    4    2   10    6       -0.0000002509
    4    2   11    6        0.0000007233
    4    2   12    6        0.0000016277
    4    2   13    6       -0.0000067198
    4    2    7    7       -0.0000053068
    4    2    8    7        0.0019130345
    4    2    9    7        0.0006830597
    4    2   10    7       -0.0000327687
    4    2   11    7       -0.0000113559
    4    2   12    7       -0.0000323103
    4    2   13    7       -0.0000097889
    4    2    8    8       -0.0000357881
    4    2    9    8        0.0000482542
    4    2   10    8        0.0003985321
    4    2   11    8       -0.0000267034
    4    2   12    8       -0.0005629118
    4    2   13    8        0.0014479137
    4    2    9    9        0.0000310409
    4    2   10    9       -0.0014882243
    4    2   11    9        0.0000997180
    4    2   12    9        0.0021019531
    4    2   13    9       -0.0040593617
    4    2   10   10       -0.0000036546
    4    2   11   10        0.0000002687
    4    2   12   10       -0.0000007237
    4    2   13   10        0.0000006998
    4    2   11   11       -0.0000043376
    4    2   12   11        0.0000002654
    4    2   13   11        0.0000002614
    4    2   12   12       -0.0000048637
    4    2   13   12       -0.0000001298
    4    2   13   13       -0.0000035604
    5    2    5    2        0.0253753984
    5    2    6    2        0.0000038590
    5    2    7    2       -0.0000003297
    5    2    8    2       -0.0112945215
    5    2    9    2       -0.0030245624
    5    2   10    2        0.0000013854
    5    2   11    2        0.0000017843
    5    2   12    2        0.0000003590
    5    2   13    2        0.0000008221
    5    2    3    3       -0.0000842615
    5    2    4    3        0.0000000004
    5    2    5    3       -0.0024315386
    5    2    6    3       -0.0000457291
    5    2    7    3        0.0000036863
    5    2    8    3       -0.0082679886
    5    2    9    3       -0.0022140872
    5    2   10    3        0.0000010426
    5    2   11    3       -0.0000253153
    5    2   12    3        0.0000180145
    5    2   13    3       -0.0000054501
    5    2    4    4       -0.0000045415
    5    2    5    4       -0.0000001515
    5    2    6    4        0.0000000002
    5    2    7    4       -0.0073816803
    5    2    8    4        0.0000026052
    5    2    9    4       -0.0000117134
    5    2   10    4       -0.0000000000
    5    2   11    4        0.0000000004
    5    2   12    4       -0.0000000809
    5    2   13    4        0.0010112666
    5    2    5    5       -0.0000046990
    5    2    6    5       -0.0031544429
    5    2    7    5        0.0006013856
    5    2    8    5       -0.0000105486
    5    2    9    5       -0.0000034970
    5    2   10    5       -0.0031537373
    5    2   11    5       -0.0007770760
    5    2   12    5       -0.0026836675
    5    2   13    5        0.0123939386
    5    2    6    6       -0.0000472495
    5    2    7    6        0.0000017681
    5    2    8    6        0.0035852054
    5    2    9    6        0.0009600828
    5    2   10    6       -0.0000061483
    5    2   11    6        0.0000178082
    5    2   12    6        0.0000396921
    5    2   13    6        0.0000253991
    5    2    7    7       -0.0001304892
    5    2    8    7       -0.0006830611
    5    2    9    7        0.0019130399
    5    2   10    7        0.0000013322
    5    2   11    7        0.0000004620
    5    2   12    7        0.0000013087
    5    2   13    7        0.0000034536
    5    2    8    8       -0.0000583813
    5    2    9    8       -0.0000024261
    5    2   10    8       -0.0014882210
    5    2   11    8        0.0000997155
    5    2   12    8        0.0021013105
    5    2   13    8        0.0040597096
    5    2    9    9       -0.0000598676
    5    2   10    9       -0.0003985309
    5    2   11    9        0.0000267028
    5    2   12    9        0.0005626812
    5    2   13    9        0.0014479410
    5    2   10   10       -0.0000898785
    5    2   11   10        0.0000066044
    5    2   12   10       -0.0000177517
    5    2   13   10       -0.0000018880
    5    2   11   11       -0.0001066587
    5    2   12   11        0.0000065411
    5    2   13   11       -0.0000007722
    5    2   12   12       -0.0001196027
    5    2   13   12        0.0000001473
    5    2   13   13       -0.0000100267
    6    2    6    2        0.0113625026
    6    2    7    2        0.0000000000
    6    2    8    2       -0.0000004636
    6    2    9    2       -0.0000001444
    6    2   10    2       -0.0011589540
    6    2   11    2        0.0041288061
    6    2   12    2        0.0079616784
    6    2   13    2        0.0000005878
    6    2    3    3        0.0028052287
    6    2    4    3       -0.0000001538
    6    2    5    3       -0.0000037822
    6    2    6    3       -0.0034259713
    6    2    7    3       -0.0000000000
    6    2    8    3       -0.0000038709
    6    2    9    3       -0.0000012069
    6    2   10    3        0.0008753355
    6    2   11    3        0.0012874681
    6    2   12    3        0.0013849907
    6    2   13    3        0.0000000967
    6    2    4    4        0.0009390666
    6    2    5    4       -0.0000000002
    6    2    6    4       -0.0000000551
    6    2    7    4       -0.0000032869
    6    2    8    4       -0.0009608880
    6    2    9    4        0.0035882104
    6    2   10    4       -0.0000000870
    6    2   11    4        0.0000000002
    6    2   12    4       -0.0000000342
    6    2   13    4       -0.0000044560
    6    2    5    5        0.0009390628
    6    2    6    5       -0.0000013556
    6    2    7    5        0.0000001336
    6    2    8    5        0.0035882060
    6    2    9    5        0.0009608864
    6    2   10    5       -0.0000021184
    6    2   11    5        0.0000000209
    6    2   12    5       -0.0000010661
    6    2   13    5        0.0000214040
    6    2    6    6        0.0057892213
    6    2    7    6        0.0000000000
    6    2    8    6       -0.0000003688
    6    2    9    6       -0.0000001148
    6    2   10    6       -0.0004379062
    6    2   11    6        0.0048380707
    6    2   12    6        0.0011661173
    6    2   13    6        0.0000001441
    6    2    7    7        0.0016928258
    6    2    8    7       -0.0000001033
    6    2    9    7        0.0000003312
    6    2   10    7        0.0000000000
    6    2   11    7       -0.0000000001
    6    2   12    7        0.0000000007
    6    2   13    7        0.0000017512
    6    2    8    8        0.0003416155
    6    2    9    8       -0.0000000039
    6    2   10    8        0.0000008664
    6    2   11    8       -0.0000011517
    6    2   12    8        0.0000016091
    6    2   13    8        0.0000083832
    6    2    9    9        0.0003416269
    6    2   10    9        0.0000002699
    6    2   11    9       -0.0000003595
    6    2   12    9        0.0000005042
    6    2   13    9        0.0000014377
    6    2   10   10       -0.0009415605
    6    2   11   10       -0.0009699146
    6    2   12   10        0.0011430588
    6    2   13   10        0.0000000872
    6    2   11   11        0.0003032367
    6    2   12   11        0.0017219005
    6    2   13   11        0.0000001522
    6    2   12   12        0.0005929971
    6    2   13   12       -0.0000001759
    6    2   13   13        0.0028620109
    7    2    7    2        0.0012234965
    7    2    8    2        0.0000003945
    7    2    9    2       -0.0000012651
    7    2   10    2       -0.0000000000
    7    2   11    2        0.0000000000
    7    2   12    2       -0.0000000001
    7    2   13    2       -0.0000002183
    7    2    3    3        0.0000000000
    7    2    4    3       -0.0000090858
    7    2    5    3        0.0000003695
    7    2    6    3       -0.0000000000
    7    2    7    3       -0.0023170963
    7    2    8    3        0.0000031150
    7    2    9    3       -0.0000099887
    7    2   10    3        0.0000000000
    7    2   11    3        0.0000000000
    7    2   12    3       -0.0000000000
    7    2   13    3       -0.0000000997
    7    2    4    4       -0.0002082836
    7    2    5    4       -0.0025565688
    7    2    6    4       -0.0000028034
    7    2    7    4       -0.0000003363
    7    2    8    4        0.0009913628
    7    2    9    4        0.0003539688
    7    2   10    4       -0.0000052841
    7    2   11    4       -0.0000002470
    7    2   12    4       -0.0000027840
    7    2   13    4       -0.0000118429
    7    2    5    5        0.0002082836
    7    2    6    5        0.0000001140
[...]
   10    7   10   10        0.0000000000
   10    7   11   10        0.0000000001
   10    7   12   10       -0.0000000003
   10    7   13   10       -0.0000008526
   10    7   11   11       -0.0000000002
   10    7   12   11        0.0000000004
   10    7   13   11        0.0000009069
   10    7   12   12       -0.0000000001
   10    7   13   12       -0.0000002284
   10    7   13   13        0.0000000314
   11    7   11    7        0.0021088317
   11    7   12    7        0.0004992995
   11    7   13    7        0.0000001224
   11    7    8    8        0.0004049174
   11    7    9    8       -0.0005860641
   11    7   10    8       -0.0000005856
   11    7   11    8       -0.0000090301
   11    7   12    8       -0.0000003434
   11    7   13    8       -0.0000108390
   11    7    9    9       -0.0004049178
   11    7   10    9        0.0000018784
   11    7   11    9        0.0000289562
   11    7   12    9        0.0000011016
   11    7   13    9        0.0000344097
   11    7   10   10        0.0000000001
   11    7   11   10        0.0000000000
   11    7   12   10        0.0000000001
   11    7   13   10        0.0000002379
   11    7   11   11        0.0000000002
   11    7   12   11       -0.0000000002
   11    7   13   11       -0.0000002781
   11    7   12   12        0.0000000007
   11    7   13   12        0.0000006407
   11    7   13   13       -0.0000000200
   12    7   12    7        0.0035932835
   12    7   13    7        0.0000002347
   12    7    8    8        0.0004478789
   12    7    9    8       -0.0006482512
   12    7   10    8        0.0000030461
   12    7   11    8       -0.0000033653
   12    7   12    8       -0.0000018694
   12    7   13    8       -0.0000149101
   12    7    9    9       -0.0004478795
   12    7   10    9       -0.0000097670
   12    7   11    9        0.0000107977
   12    7   12    9        0.0000060011
   12    7   13    9        0.0000435561
   12    7   10   10       -0.0000000006
   12    7   11   10       -0.0000000002
   12    7   12   10       -0.0000000004
   12    7   13   10       -0.0000008581
   12    7   11   11       -0.0000000007
   12    7   12   11        0.0000000006
   12    7   13   11        0.0000010972
   12    7   12   12        0.0000000002
   12    7   13   12        0.0000005990
   12    7   13   13        0.0000000087
   13    7   13    7        0.0019519300
   13    7    8    8       -0.0000002441
   13    7    9    8       -0.0000001744
   13    7   10    8       -0.0000001833
   13    7   11    8       -0.0000053080
   13    7   12    8        0.0000016901
   13    7   13    8        0.0000000584
   13    7    9    9       -0.0000004206
   13    7   10    9        0.0000005334
   13    7   11    9        0.0000132167
   13    7   12    9       -0.0000048362
   13    7   13    9        0.0000130892
   13    7   10   10       -0.0000018512
   13    7   11   10       -0.0000005208
   13    7   12   10       -0.0000002703
   13    7   13   10        0.0000000129
   13    7   11   11       -0.0000017456
   13    7   12   11        0.0000004262
   13    7   13   11       -0.0000000007
   13    7   12   12       -0.0000014596
   13    7   13   12       -0.0000000224
   13    7   13   13       -0.0000011006
    8    8    8    8        0.0793557524
    8    8    9    8        0.0020503727
    8    8   10    8       -0.0000407561
    8    8   11    8        0.0000696219
    8    8   12    8       -0.0000508388
    8    8   13    8       -0.0001060665
    8    8    9    9        0.0693513166
    8    8   10    9       -0.0000270475
    8    8   11    9        0.0000453437
    8    8   12    9       -0.0000305248
    8    8   13    9        0.0000283540
    8    8   10   10        0.0616041520
    8    8   11   10       -0.0031282424
    8    8   12   10        0.0012708962
    8    8   13   10       -0.0009335042
    8    8   11   11        0.0645934012
    8    8   12   11        0.0022047087
    8    8   13   11       -0.0018356206
    8    8   12   12        0.0676454181
    8    8   13   12        0.0001074964
    8    8   13   13        0.0777747523
    9    8    9    8        0.0034511582
    9    8   10    8       -0.0000212634
    9    8   11    8        0.0000361949
    9    8   12    8       -0.0000278301
    9    8   13    8        0.0000284131
    9    8    9    9       -0.0020503673
    9    8   10    9        0.0000141307
    9    8   11    9       -0.0000228785
    9    8   12    9        0.0000125563
    9    8   13    9       -0.0000831297
    9    8   10   10        0.0000003489
    9    8   11   10       -0.0000001439
    9    8   12   10        0.0000002964
    9    8   13   10       -0.0006445697
    9    8   11   11        0.0000003970
    9    8   12   11       -0.0000000954
    9    8   13   11       -0.0012691497
    9    8   12   12        0.0000007369
    9    8   13   12        0.0000742988
    9    8   13   13       -0.0000000213
   10    8   10    8        0.0030193722
   10    8   11    8       -0.0005431181
   10    8   12    8       -0.0004100154
   10    8   13    8        0.0010268688
   10    8    9    9       -0.0000044685
   10    8   10    9        0.0000001336
   10    8   11    9       -0.0000000678
   10    8   12    9        0.0000000375
   10    8   13    9        0.0007096767
   10    8   10   10       -0.0000773578
   10    8   11   10        0.0000006379
   10    8   12   10       -0.0000110373
   10    8   13   10       -0.0000144190
   10    8   11   11       -0.0000571856
   10    8   12   11        0.0000051597
   10    8   13   11        0.0000025498
   10    8   12   12       -0.0000477485
   10    8   13   12       -0.0000019152
   10    8   13   13        0.0000001678
   11    8   11    8        0.0044849633
   11    8   12    8       -0.0004903085
   11    8   13    8       -0.0033779904
   11    8    9    9        0.0000065072
   11    8   10    9       -0.0000000677
   11    8   11    9        0.0000002104
   11    8   12    9        0.0000000557
   11    8   13    9       -0.0023342287
   11    8   10   10        0.0000310121
   11    8   11   10       -0.0000382354
   11    8   12   10        0.0000152591
   11    8   13   10       -0.0000063562
   11    8   11   11        0.0000611954
   11    8   12   11       -0.0000334997
   11    8   13   11       -0.0000372116
   11    8   12   12        0.0000677062
   11    8   13   12        0.0000100727
   11    8   13   13       -0.0000037004
   12    8   12    8        0.0028053418
   12    8   13    8        0.0008707401
   12    8    9    9        0.0000038744
   12    8   10    9        0.0000000374
   12    8   11    9        0.0000000556
   12    8   12    9        0.0000001493
   12    8   13    9        0.0006015983
   12    8   10   10       -0.0000344273
   12    8   11   10        0.0000058499
   12    8   12   10       -0.0000147514
   12    8   13   10        0.0000122049
   12    8   11   11       -0.0000580271
   12    8   12   11        0.0000128167
   12    8   13   11        0.0000078904
   12    8   12   12       -0.0000873185
   12    8   13   12       -0.0000223894
   12    8   13   13       -0.0000091529
   13    8   13    8        0.0104641709
   13    8    9    9       -0.0000735732
   13    8   10    9        0.0007096977
   13    8   11    9       -0.0023342580
   13    8   12    9        0.0006016210
   13    8   13    9        0.0000000283
   13    8   10   10       -0.0001426833
   13    8   11   10        0.0000205590
   13    8   12   10       -0.0000291976
   13    8   13   10        0.0000004399
   13    8   11   11       -0.0001752676
   13    8   12   11        0.0000262880
   13    8   13   11       -0.0000055912
   13    8   12   12       -0.0001973611
   13    8   13   12       -0.0000100648
   13    8   13   13        0.0000082600
    9    9    9    9        0.0793557466
    9    9   10    9        0.0000129579
    9    9   11    9       -0.0000216675
    9    9   12    9        0.0000159070
    9    9   13    9       -0.0000913431
    9    9   10   10        0.0616031455
    9    9   11   10       -0.0031278266
    9    9   12   10        0.0012700394
    9    9   13   10        0.0009337900
    9    9   11   11        0.0645922570
    9    9   12   11        0.0022049834
    9    9   13   11        0.0018361468
    9    9   12   12        0.0676432882
    9    9   13   12       -0.0001089361
    9    9   13   13        0.0777745993
   10    9   10    9        0.0030189857
   10    9   11    9       -0.0005429219
   10    9   12    9       -0.0004101238
   10    9   13    9       -0.0010269415
   10    9   10   10       -0.0000241256
   10    9   11   10        0.0000002001
   10    9   12   10       -0.0000034430
   10    9   13   10       -0.0000040176
   10    9   11   11       -0.0000178346
   10    9   12   11        0.0000016074
   10    9   13   11        0.0000016059
   10    9   12   12       -0.0000148941
   10    9   13   12       -0.0000001551
   10    9   13   13       -0.0000001576
   11    9   11    9        0.0044843555
   11    9   12    9       -0.0004904703
   11    9   13    9        0.0033779384
   11    9   10   10        0.0000096717
   11    9   11   10       -0.0000119238
   11    9   12   10        0.0000047578
   11    9   13   10       -0.0000015900
   11    9   11   11        0.0000190837
   11    9   12   11       -0.0000104486
   11    9   13   11       -0.0000108304
   11    9   12   12        0.0000211178
   11    9   13   12        0.0000020929
   11    9   13   13       -0.0000025666
   12    9   12    9        0.0028049091
   12    9   13    9       -0.0008719449
   12    9   10   10       -0.0000107355
   12    9   11   10        0.0000018222
   12    9   12   10       -0.0000045999
   12    9   13   10        0.0000034930
   12    9   11   11       -0.0000180952
   12    9   12   11        0.0000039976
   12    9   13   11        0.0000031485
   12    9   12   12       -0.0000272319
   12    9   13   12       -0.0000061123
   12    9   13   13       -0.0000063287
   13    9   13    9        0.0104636998
   13    9   10   10       -0.0000447854
   13    9   11   10        0.0000075909
   13    9   12   10       -0.0000091235
   13    9   13   10        0.0000000948
   13    9   11   11       -0.0000549188
   13    9   12   11        0.0000072292
   13    9   13   11       -0.0000037754
   13    9   12   12       -0.0000624226
   13    9   13   12       -0.0000069437
   13    9   13   13       -0.0000000322
   10   10   10   10        0.0622687315
   10   10   11   10        0.0010291454
   10   10   12   10        0.0005635187
   10   10   13   10        0.0000001758
   10   10   11   11        0.0596495524
   10   10   12   11        0.0008786613
   10   10   13   11        0.0000002059
   10   10   12   12        0.0595895824
   10   10   13   12       -0.0000000748
   10   10   13   13        0.0641810480
   11   10   11   10        0.0036840242
   11   10   12   10       -0.0009199450
   11   10   13   10       -0.0000000600
   11   10   11   11       -0.0003125620
   11   10   12   11        0.0002378790
   11   10   13   11        0.0000002717
   11   10   12   12       -0.0010510033
   11   10   13   12        0.0000000943
   11   10   13   13       -0.0029783038
   12   10   12   10        0.0017805909
   12   10   13   10       -0.0000000609
   12   10   11   11        0.0008750236
   12   10   12   11        0.0003596296
   12   10   13   11       -0.0000000474
   12   10   12   12        0.0008866184
   12   10   13   12        0.0000000990
   12   10   13   13        0.0021164178
   13   10   13   10        0.0028364468
   13   10   11   11        0.0000000616
   13   10   12   11        0.0000000598
   13   10   13   11        0.0002985251
   13   10   12   12       -0.0000000874
   13   10   13   12       -0.0002716951
   13   10   13   13        0.0000001732
   11   11   11   11        0.0648016202
   11   11   12   11        0.0007405946
   11   11   13   11        0.0000000595
   11   11   12   12        0.0637499398
   11   11   13   12        0.0000001825
   11   11   13   13        0.0670783035
   12   11   12   11        0.0034382433
   12   11   13   11        0.0000004257
   12   11   12   12        0.0022323680
   12   11   13   12       -0.0000001391
   12   11   13   13        0.0027841264
   13   11   13   11        0.0022013113
   13   11   12   12        0.0000001477
   13   11   13   12       -0.0001598837
   13   11   13   13        0.0000002411
   12   12   12   12        0.0698498303
   12   12   13   12        0.0000006947
   12   12   13   13        0.0703646827
   13   12   13   12        0.0010629516
   13   12   13   13       -0.0000014196
   13   13   13   13        0.0900517330
 end_two_electron_integrals


 output epsi filename:./pspw_hf_LiH.emovecs

 Total PSPW energy     :  -0.6363346488E+00


=== Spin Contamination ===

 <Sexact^2> =    0.0000000000000000     
 <S^2>      =    0.0000000000000000     



== Center of Charge ==

spin up     (    0.0000,    0.0000,    4.5700 )
spin down   (    0.0000,    0.0000,    4.5700 )
     total  (    0.0000,    0.0000,    4.5700 )
ionic       (    0.0000,    0.0000,    1.8897 )


== Molecular Dipole wrt Center of Mass ==

mu   =  (   -0.0000,   -0.0000,   -5.3606 ) au
|mu| =     5.3606 au,      13.6246 Debye

 output psi filename:./pspw_hf_LiH.movecs

 Writing Crystallographic Information File:./LiH.cif
   - cell not shifted (nwpw:cif_shift_cell .false.)


== Timing ==

cputime in seconds
  prologue    :   0.892417E+02
  main loop   :   0.132347E+04
  epilogue    :   0.801805E-01
  total       :   0.141280E+04
  cputime/step:   0.612719E+01       (     216 evalulations,      92 linesearches)


Time spent doing                        total          step       percent
  total time                 :   0.141281E+04  0.654077E+01       100.0 %
  i/o time                   :   0.171253E+01  0.792836E-02         0.1 %
  FFTs                       :   0.108755E+04  0.503494E+01        77.0 %
  dot products               :   0.762332E+01  0.352931E-01         0.5 %
  geodesic                   :   0.157962E+00  0.731307E-03         0.0 %
  ffm_dgemm                  :   0.389946E-01  0.180531E-03         0.0 %
  fmf_dgemm                  :   0.648988E-01  0.300457E-03         0.0 %
  mmm_dgemm                  :   0.512638E-02  0.237333E-04         0.0 %
  m_diagonalize              :   0.209248E-02  0.968743E-05         0.0 %
  local pseudopotentials     :   0.601860E-02  0.278639E-04         0.0 %
  non-local pseudopotentials :   0.440085E+01  0.203743E-01         0.3 %
  structure factors          :   0.858566E+00  0.397484E-02         0.1 %
  phase factors              :   0.176990E-04  0.819398E-07         0.0 %
  masking and packing        :   0.236487E+02  0.109485E+00         1.7 %
  queue fft                  :   0.244355E+01  0.113127E-01         0.2 %
  queue fft (serial)         :   0.913797E+00  0.423054E-02         0.1 %
  queue fft (message passing):   0.143667E+01  0.665125E-02         0.1 %
  HFX potential              :   0.109023E+04  0.504735E+01        77.2 %
  non-local psp FFM          :   0.349021E+01  0.161584E-01         0.2 %
  non-local psp FMF          :   0.220995E+00  0.102312E-02         0.0 %
  non-local psp FFM A        :   0.419804E+00  0.194353E-02         0.0 %
  non-local psp FFM B        :   0.363133E+00  0.168117E-02         0.0 %

== HFX Counters ==
  HFX Evalulations         =   216
  Lin ACE HFX Evalulations =     0


     >>>  JOB COMPLETED     AT Sun May  4 21:19:49 2025  <<<

 Task  times  cpu:     1319.9s     wall:     1412.8s


                                NWChem Input Module
                                -------------------


 Summary of allocated global arrays
-----------------------------------
  No active global arrays


MA_summarize_allocated_blocks: starting scan ...
MA_summarize_allocated_blocks: scan completed: 0 heap blocks, 0 stack blocks
MA usage statistics:

	allocation statistics:
					      heap	     stack
					      ----	     -----
	current number of blocks	         0	         0
	maximum number of blocks	       315	        19
	current total bytes		         0	         0
	maximum total bytes		 125579648	  29398984
	maximum total K-bytes		    125580	     29399
	maximum total M-bytes		       126	        30


                                     CITATION
                                     --------
                Please cite the following reference when publishing
                           results obtained with NWChem:

          E. Apra, E. J. Bylaska, W. A. de Jong, N. Govind, K. Kowalski,
       T. P. Straatsma, M. Valiev, H. J. J. van Dam, Y. Alexeev, J. Anchell,
       V. Anisimov, F. W. Aquino, R. Atta-Fynn, J. Autschbach, N. P. Bauman,
     J. C. Becca, D. E. Bernholdt, K. Bhaskaran-Nair, S. Bogatko, P. Borowski,
         J. Boschen, J. Brabec, A. Bruner, E. Cauet, Y. Chen, G. N. Chuev,
      C. J. Cramer, J. Daily, M. J. O. Deegan, T. H. Dunning Jr., M. Dupuis,
   K. G. Dyall, G. I. Fann, S. A. Fischer, A. Fonari, H. Fruchtl, L. Gagliardi,
      J. Garza, N. Gawande, S. Ghosh, K. Glaesemann, A. W. Gotz, J. Hammond,
       V. Helms, E. D. Hermes, K. Hirao, S. Hirata, M. Jacquelin, L. Jensen,
   B. G. Johnson, H. Jonsson, R. A. Kendall, M. Klemm, R. Kobayashi, V. Konkov,
      S. Krishnamoorthy, M. Krishnan, Z. Lin, R. D. Lins, R. J. Littlefield,
      A. J. Logsdail, K. Lopata, W. Ma, A. V. Marenich, J. Martin del Campo,
   D. Mejia-Rodriguez, J. E. Moore, J. M. Mullin, T. Nakajima, D. R. Nascimento,
    J. A. Nichols, P. J. Nichols, J. Nieplocha, A. Otero-de-la-Roza, B. Palmer,
    A. Panyala, T. Pirojsirikul, B. Peng, R. Peverati, J. Pittner, L. Pollack,
   R. M. Richard, P. Sadayappan, G. C. Schatz, W. A. Shelton, D. W. Silverstein,
   D. M. A. Smith, T. A. Soares, D. Song, M. Swart, H. L. Taylor, G. S. Thomas,
            V. Tipparaju, D. G. Truhlar, K. Tsemekhman, T. Van Voorhis,
      A. Vazquez-Mayagoitia, P. Verma, O. Villa, A. Vishnu, K. D. Vogiatzis,
        D. Wang, J. H. Weare, M. J. Williamson, T. L. Windus, K. Wolinski,
        A. T. Wong, Q. Wu, C. Yang, Q. Yu, M. Zacharias, Z. Zhang, Y. Zhao,
                                and R. J. Harrison
                        "NWChem: Past, present, and future
                         J. Chem. Phys. 152, 184102 (2020)
                               doi:10.1063/5.0004997

                                      AUTHORS
                                      -------
  E. Apra, E. J. Bylaska, N. Govind, K. Kowalski, M. Valiev, D. Mejia-Rodriguez,
       A. Kunitsa, N. P. Bauman, A. Panyala, W. A. de Jong, T. P. Straatsma,
   H. J. J. van Dam, D. Wang, T. L. Windus, J. Hammond, J. Autschbach, A. Woods,
    K. Bhaskaran-Nair, J. Brabec, K. Lopata, S. A. Fischer, S. Krishnamoorthy,
     M. Jacquelin, W. Ma, M. Klemm, O. Villa, Y. Chen, V. Anisimov, F. Aquino,
     S. Hirata, M. T. Hackler, E. Hermes, L. Jensen, J. E. Moore, J. C. Becca,
      V. Konjkov, T. Risthaus, M. Malagoli, A. Marenich, A. Otero-de-la-Roza,
        J. Mullin, P. Nichols, R. Peverati, J. Pittner, Y. Zhao, P.-D. Fan,
        A. Fonari, M. J. Williamson, R. J. Harrison, J. R. Rehr, M. Dupuis,
     D. Silverstein, D. M. A. Smith, J. Nieplocha, V. Tipparaju, M. Krishnan,
     B. E. Van Kuiken, A. Vazquez-Mayagoitia, M. Swart, Q. Wu, T. Van Voorhis,
     A. A. Auer, M. Nooijen, L. D. Crosby, E. Brown, G. Cisneros, G. I. Fann,
   H. Fruchtl, J. Garza, K. Hirao, R. A. Kendall, J. A. Nichols, K. Tsemekhman,
    K. Wolinski, J. Anchell, D. E. Bernholdt, P. Borowski, T. Clark, D. Clerc,
   H. Dachsel, M. J. O. Deegan, K. Dyall, D. Elwood, E. Glendening, M. Gutowski,
   A. C. Hess, J. Jaffe, B. G. Johnson, J. Ju, R. Kobayashi, R. Kutteh, Z. Lin,
   R. Littlefield, X. Long, B. Meng, T. Nakajima, S. Niu, L. Pollack, M. Rosing,
   K. Glaesemann, G. Sandrone, M. Stave, H. Taylor, G. Thomas, J. H. van Lenthe,
                               A. T. Wong, Z. Zhang.

 Total times  cpu:     1320.0s     wall:     1412.9s
