 argument  1 = ../data/PW_LiH_data/3x3_aperiodic/NWChem/12nocovo/H1Li1-5.0.nw



============================== echo of input deck ==============================
title "swnc: e theory=pspw4 xc=pbe formula=LiH charge=0 mult=1"
#machinejob:expert

echo

start pspw_hf_LiH

memory heap 1200 mb stack 2400 mb global 400 mb

charge 0

geometry
Li    0.00000    0.00000   -2.50000
H     0.00000    0.00000    2.50000
end

nwpw
  ### pseudopotential block begin ###
  ### pseudopotential block end   ###
  simulation_cell
     SC 28.345889835
     boundary_conditions aperiodic
  end

  cutoff 50.0
  mult 1
  xc hf
  lmbfgs
  tolerances 1.0e-9 1.0e-9

  virtual 12
end
set nwpw:cif_filename LiH

#set nwpw:CI_maxit_orb 15
#set nwpw:CI_maxit_linesearch 15

set nwpw:2qintegrals .true.
#set nwpw:3x3_virtual .true.

task pspw energy
================================================================================


                                         
                                         


             Northwest Computational Chemistry Package (NWChem) 7.2.3
             --------------------------------------------------------


                    Environmental Molecular Sciences Laboratory
                       Pacific Northwest National Laboratory
                                Richland, WA 99352

                              Copyright (c) 1994-2022
                       Pacific Northwest National Laboratory
                            Battelle Memorial Institute

             NWChem is an open-source computational chemistry package
                        distributed under the terms of the
                      Educational Community License (ECL) 2.0
             A copy of the license is included with this distribution
                              in the LICENSE.TXT file

                                  ACKNOWLEDGMENT
                                  --------------

            This software and its documentation were developed at the
            EMSL at Pacific Northwest National Laboratory, a multiprogram
            national laboratory, operated for the U.S. Department of Energy
            by Battelle under Contract Number DE-AC05-76RL01830. Support
            for this work was provided by the Department of Energy Office
            of Biological and Environmental Research, Office of Basic
            Energy Sciences, and the Office of Advanced Scientific Computing.


           Job information
           ---------------

    hostname        = mqs-al
    program         = nwchem
    date            = Sun May  4 21:47:25 2025

    compiled        = Thu_Oct_31_08:55:15_2024
    source          = /home/conda/feedstock_root/build_artifacts/nwchem_1730356057992/work
    nwchem branch   = 7.2.3
    nwchem revision = c400b04
    ga revision     = 5.8.0
    use scalapack   = T
    input           = ../data/PW_LiH_data/3x3_aperiodic/NWChem/12nocovo/H1Li1-5.0.nw
    prefix          = pspw_hf_LiH.
    data base       = ./pspw_hf_LiH.db
    status          = startup
    nproc           =       24
    time left       =     -1s



           Memory information
           ------------------

    heap     =  157286400 doubles =   1200.0 Mbytes
    stack    =  314572797 doubles =   2400.0 Mbytes
    global   =   52428800 doubles =    400.0 Mbytes (distinct from heap & stack)
    total    =  524287997 doubles =   4000.0 Mbytes
    verify   = yes
    hardfail = no 


           Directory information
           ---------------------

  0 permanent = .
  0 scratch   = .




                                NWChem Input Module
                                -------------------


              swnc: e theory=pspw4 xc=pbe formula=LiH charge=0 mult=1
              -------------------------------------------------------

 Scaling coordinates for geometry "geometry" by  1.889725989
 (inverse scale =  0.529177249)

  zeroes
  zeroes
  zeroes
  zeroes
  zeroes
  zeroes
  zeroes
  zeroes
  zeroes
  zeroes
  zeroes
  zeroes
  zeroes
  zeroes
  zeroes
  zeroes
  zeroes
  zeroes
  zeroes
  zeroes
  zeroes
  zeroes
  zeroes
  zeroes
  zeroes
  zeroes
  zeroes
  zeroes
  zeroes
  zeroes
  zeroes
  zeroes
  zeroes
  zeroes
  zeroes
  zeroes
  zeroes
  zeroes
  zeroes
  zeroes
  zeroes
  zeroes
  zeroes
  zeroes
  zeroes
  zeroes
  zeroes
  zeroes
 ORDER OF PRIMARY AXIS IS BEING SET TO 4
 C4V symmetry detected

          ------
          auto-z
          ------
     1 autoz failed with cvr_scaling = 1.2 changing to 1.3
     2 autoz failed with cvr_scaling = 1.3 changing to 1.4
     3 autoz failed with cvr_scaling = 1.4 changing to 1.5
     4 autoz failed with cvr_scaling = 1.5 changing to 1.6
     5 autoz failed with cvr_scaling = 1.6 changing to 1.7

 AUTOZ failed to generate good internal coordinates.
 Cartesian coordinates will be used in optimizations.



                             Geometry "geometry" -> ""
                             -------------------------

 Output coordinates in angstroms (scale by  1.889725989 to convert to a.u.)

  No.       Tag          Charge          X              Y              Z
 ---- ---------------- ---------- -------------- -------------- --------------
    1 Li                   3.0000     0.00000000     0.00000000    -1.25000000
    2 H                    1.0000     0.00000000     0.00000000     3.75000000

      Atomic Mass 
      ----------- 

      Li                 7.016000
      H                  1.007825


 Effective nuclear repulsion energy (a.u.)       0.3175063494

            Nuclear Dipole moment (a.u.) 
            ----------------------------
        X                 Y               Z
 ---------------- ---------------- ----------------
     0.0000000000     0.0000000000     0.0000000000

      Symmetry information
      --------------------

 Group name             C4v       
 Group number             18
 Group order               8
 No. of unique centers     2

      Symmetry unique atoms

     1    2


            XYZ format geometry
            -------------------
     2
 geometry
 Li                    0.00000000     0.00000000    -1.25000000
 H                     0.00000000     0.00000000     3.75000000

          ****************************************************
          *                                                  *
          *               NWPW PSPW Calculation              *
          *                                                  *
          * [ (Grassmann/Stiefel manifold implementation)  ] *
          *                                                  *
          *      [ NorthWest Chemistry implementation ]      *
          *                                                  *
          *            version #5.10   06/12/02              *
          *                                                  *
          *    This code was developed by Eric J. Bylaska,   *
          *    and was based upon algorithms and code        *
          *    developed by the group of Prof. John H. Weare *
          *                                                  *
          ****************************************************
     >>>  JOB STARTED       AT Sun May  4 21:47:25 2025  <<<
          ================ input data ========================

 input psi filename:./pspw_hf_LiH.movecs

 number of processors used:        24
 processor grid           :  24 x   1
 parallel mapping         :2d-hilbert
 parallel mapping         :  balanced
 number of threads        :         1
 parallel io              :       off

 options:
      boundary conditions  = aperiodic   (version4)
      electron spin        = restricted
      exchange-correlation = Hartree-Fock
      - HFX relaxed
      - HFX restricted orbitals :    1
      - HFX free-space coulomb solver


 elements involved in the cluster:
      1: Li  valence charge:  1.0000  lmax=  1
             comment    : Hamann pseudopotential
             pseudpotential type            :   0
             highest angular component      :   1
             local potential used           :   1
             number of non-local projections:   1
             aperiodic cutoff radius        :  1.000
             semicore corrections included  :  1.000 (radius)  0.769 (charge)
             cutoff =   1.869   1.551

      2: H   valence charge:  1.0000  lmax=  1
             comment    : Parameterized (Chem.Phys.Lett., vol 322, page 447) Hamman psp
             pseudpotential type            :   0
             highest angular component      :   1
             local potential used           :   1
             number of non-local projections:   1
             aperiodic cutoff radius        :  1.000
             cutoff =   0.800   0.800


 total charge:   0.000

 atomic composition:
     Li  :    1     H   :    1

 number of electrons: spin up=     1 (   1 per task)  down=     1 (   1 per task) (Fourier space)
 number of orbitals : spin up=     1 (   1 per task)  down=     1 (   1 per task) (Fourier space)

 supercell:
      cell_name:  cell_default                                      
      lattice:    a1=<  28.346   0.000   0.000 >
                  a2=<   0.000  28.346   0.000 >
                  a3=<   0.000   0.000  28.346 >
      reciprocal: b1=<   0.222   0.000   0.000 >
                  b2=<   0.000   0.222   0.000 >
                  b3=<   0.000   0.000   0.222 >
      lattice:    a=      28.346 b=     28.346 c=      28.346
                  alpha=  90.000 beta=  90.000 gamma=  90.000
                  omega=     22775.6

      density cutoff=100.000  fft=140x140x140(   544264 waves    22677 per task)
      wavefnc cutoff= 50.000  fft=140x140x140(   192294 waves     8012 per task)

 technical parameters:
      time step=      5.80     fictitious mass=  400000.0
      tolerance=0.100E-08 (energy)   0.100E-08 (density)
      maximum iterations =      1000 (   10 inner    100 outer )





== Energy Calculation ==


          ============ Grassmann lmbfgs iteration ============
     >>>  ITERATION STARTED AT Sun May  4 21:48:54 2025  <<<
    iter.           Energy         DeltaE       DeltaRho 
    ------------------------------------------------------
      10   -0.6023407157E+00   -0.18138E-02    0.13257E-01
     -  10 steepest descent iterations performed
      20   -0.6080710592E+00   -0.16968E-03    0.10975E-03
      30   -0.6085219012E+00   -0.19015E-04    0.80231E-05
      40   -0.6086073139E+00   -0.43111E-05    0.85413E-06
      50   -0.6086303618E+00   -0.94653E-06    0.19847E-06
      60   -0.6086367414E+00   -0.31223E-06    0.44588E-07
      70   -0.6086382062E+00   -0.60988E-07    0.50966E-08
      80   -0.6086384765E+00   -0.16913E-07    0.20004E-08
      90   -0.6086385547E+00   -0.30233E-08    0.10383E-08
     100   -0.6086385638E+00   -0.91568E-09    0.27053E-10
  *** tolerance ok. iteration terminated
     >>>  ITERATION ENDED   AT Sun May  4 21:50:53 2025  <<<


==  Summary Of Results  ==

 number of electrons: spin up=    1.00000  down=    1.00000 (real space)

 total     energy    :  -0.6086385638E+00 (   -0.30432E+00/ion)
 total orbital energy:  -0.3723383195E+00 (   -0.37234E+00/electron)
 hartree   energy    :   0.6842713883E+00 (    0.68427E+00/electron)
 exc-corr  energy    :   0.0000000000E+00 (    0.00000E+00/electron)
 HF exchange energy  :  -0.3421356942E+00 (   -0.34214E+00/electron)
 ion-ion   energy    :   0.1058354498E+00 (    0.52918E-01/ion)

 kinetic (planewave) :   0.4487701120E+00 (    0.44877E+00/electron)
 V_local (planewave) :  -0.1415478289E+01 (   -0.14155E+01/electron)
 V_nl    (planewave) :  -0.8990153071E-01 (   -0.89902E-01/electron)
 V_Coul  (planewave) :   0.1368542777E+01 (    0.13685E+01/electron)
 V_xc.   (planewave) :   0.0000000000E+00 (    0.00000E+00/electron)
 K.S. HFX energy     :  -0.6842713883E+00 (   -0.68427E+00/electron)
 Virial Coefficient  :  -0.3049156784E+00

 orbital energies:
    -0.1861692E+00 (  -5.066eV)


== Virtual Orbital Calculation ==


 input epsi filename:./pspw_hf_LiH.emovecs
     orbital   1 current e=-0.699E-01 (error=0.979E-09) iterations  94(  58 preconditioned, Ep,Sp= 20.0  200.0)
     orbital   2 current e=-0.932E-02 (error=0.980E-09) iterations  82(  37 preconditioned, Ep,Sp= 20.0  200.0)
     orbital   3 current e=-0.932E-02 (error=0.980E-09) iterations  82(  37 preconditioned, Ep,Sp= 20.0  200.0)
     orbital   4 current e=-0.506E-02 (error=0.432E-07) iterations 121( 103 preconditioned, Ep,Sp= 20.0  200.0)
     orbital   4 current e=-0.506E-02 (error=0.943E-09) iterations  44(   1 preconditioned, Ep,Sp= 20.0  200.0)
     orbital   5 current e= 0.361E-02 (error=0.360E-08) iterations 121(  80 preconditioned, Ep,Sp= 20.0  200.0)
     orbital   5 current e= 0.361E-02 (error=0.932E-09) iterations  31(   1 preconditioned, Ep,Sp= 20.0  200.0)
     orbital   6 current e= 0.151E-01 (error=0.864E-09) iterations  76(  21 preconditioned, Ep,Sp= 20.0  200.0)
     orbital   7 current e= 0.261E-01 (error=0.377E-08) iterations 121(  48 preconditioned, Ep,Sp= 20.0  200.0)
     orbital   7 current e= 0.261E-01 (error=0.998E-09) iterations  18(   1 preconditioned, Ep,Sp= 20.0  200.0)
     orbital   8 current e= 0.261E-01 (error=0.377E-08) iterations 121(  48 preconditioned, Ep,Sp= 20.0  200.0)
     orbital   8 current e= 0.261E-01 (error=0.998E-09) iterations  18(   1 preconditioned, Ep,Sp= 20.0  200.0)
     orbital   9 current e= 0.278E-01 (error=0.497E-06) iterations 121( 120 preconditioned, Ep,Sp= 20.0  200.0)
     orbital   9 current e= 0.278E-01 (error=0.576E-07) iterations 121(  62 preconditioned, Ep,Sp= 20.0  200.0)
     orbital   9 current e= 0.297E-01 (error=0.287E-04) iterations 121( 120 preconditioned, Ep,Sp= 20.0  200.0)
     orbital   9 current e= 0.284E-01 (error=0.245E-04) iterations 121( 120 preconditioned, Ep,Sp= 20.0  200.0)
     orbital   9 current e= 0.278E-01 (error=0.359E-06) iterations 121( 120 preconditioned, Ep,Sp= 20.0  200.0)
     orbital   9 current e= 0.278E-01 (error=0.115E-07) iterations 121(  10 preconditioned, Ep,Sp= 20.0  200.0)
     orbital   9 current e= 0.278E-01 (error=0.970E-09) iterations  54(   1 preconditioned, Ep,Sp= 20.0  200.0)
     orbital  10 current e= 0.297E-01 (error=0.451E-06) iterations 121( 120 preconditioned, Ep,Sp= 20.0  200.0)
     orbital  10 current e= 0.297E-01 (error=0.952E-08) iterations 121(   8 preconditioned, Ep,Sp= 20.0  200.0)
     orbital  10 current e= 0.300E-01 (error=0.291E-04) iterations 121( 120 preconditioned, Ep,Sp= 20.0  200.0)
     orbital  10 current e= 0.297E-01 (error=0.467E-06) iterations 121( 120 preconditioned, Ep,Sp= 20.0  200.0)
     orbital  10 current e= 0.297E-01 (error=0.113E-07) iterations 121(   5 preconditioned, Ep,Sp= 20.0  200.0)
     orbital  10 current e= 0.297E-01 (error=0.972E-09) iterations  51(   1 preconditioned, Ep,Sp= 20.0  200.0)
     orbital  11 current e= 0.343E-01 (error=0.971E-09) iterations  82(  25 preconditioned, Ep,Sp= 20.0  200.0)
     orbital  12 current e= 0.331E-01 (error=0.865E-08) iterations 121(  81 preconditioned, Ep,Sp= 20.0  200.0)
     orbital  12 current e= 0.331E-01 (error=0.990E-09) iterations  31(   1 preconditioned, Ep,Sp= 20.0  200.0)

 virtual orbital energies:
     0.3432546E-01 (   0.934eV)
     0.3308979E-01 (   0.900eV)
     0.2967760E-01 (   0.808eV)
     0.2778762E-01 (   0.756eV)
     0.2611764E-01 (   0.711eV)
     0.2611764E-01 (   0.711eV)
     0.1510261E-01 (   0.411eV)
     0.3610207E-02 (   0.098eV)
    -0.5060873E-02 (  -0.138eV)
    -0.9320844E-02 (  -0.254eV)
    -0.9320844E-02 (  -0.254eV)
    -0.6987015E-01 (  -1.901eV)


 == Generating One-Electron and Two-Electron Integrals ==

 begin_one_electron_integrals
    1    1        -0.5283048539
    2    1        -0.0842157595
    3    1         0.0000001583
    4    1         0.0000000357
    5    1        -0.0152307210
    6    1         0.0278481485
    7    1        -0.0000000000
    8    1         0.0000002846
    9    1         0.0000000338
   10    1        -0.0124506100
   11    1         0.0050471230
   12    1        -0.0236086134
   13    1         0.0000000927
    2    2        -0.3063478619
    3    2         0.0000007266
    4    2         0.0000001641
    5    2        -0.0342239749
    6    2         0.0322283327
    7    2        -0.0000000000
    8    2         0.0000004506
    9    2         0.0000000534
   10    2        -0.0204418626
   11    2         0.0047359762
   12    2        -0.0130698927
   13    2         0.0000000476
    3    3        -0.1991185342
    4    3         0.0000000000
    5    3        -0.0000019075
    6    3        -0.0000014306
    7    3         0.0000001306
    8    3        -0.0329458884
    9    3         0.0034498466
   10    3         0.0000000268
   11    3        -0.0000000223
   12    3        -0.0000002447
   13    3        -0.0000233611
    4    4        -0.1991185362
    5    4        -0.0000004308
    6    4        -0.0000003231
    7    4        -0.0000005782
    8    4        -0.0034498465
    9    4        -0.0329458822
   10    4         0.0000000061
   11    4        -0.0000000049
   12    4        -0.0000000515
   13    4         0.0000019054
    5    5        -0.1510481335
    6    5         0.0327772100
    7    5        -0.0000000000
    8    5        -0.0000004320
    9    5        -0.0000000511
   10    5        -0.0285653336
   11    5         0.0125421014
   12    5        -0.0009284524
   13    5        -0.0000000100
    6    6        -0.1746457387
    7    6         0.0000000000
    8    6        -0.0000009086
    9    6        -0.0000001077
   10    6         0.0134377824
   11    6        -0.0209044844
   12    6         0.0343623699
   13    6        -0.0000001356
    7    7        -0.1140638616
    8    7         0.0000000386
    9    7        -0.0000003258
   10    7        -0.0000000000
   11    7         0.0000000000
   12    7        -0.0000000001
   13    7         0.0000023624
    8    8        -0.1106190157
    9    8         0.0000000003
   10    8        -0.0000000227
   11    8        -0.0000002419
   12    8         0.0000003973
   13    8        -0.0000097698
    9    9        -0.1106190108
   10    9        -0.0000000026
   11    9        -0.0000000286
   12    9         0.0000000486
   13    9         0.0000018425
   10   10        -0.1096423233
   11   10         0.0087149989
   12   10        -0.0114260750
   13   10         0.0000000364
   11   11        -0.1073874801
   12   11        -0.0011824220
   13   11         0.0000000165
   12   12        -0.1094650205
   13   12        -0.0000000035
   13   13        -0.1074202034
 end_one_electron_integrals

 begin_two_electron_integrals
    1    1    1    1        0.3421356942
    1    1    2    1        0.0842167890
    1    1    3    1       -0.0000001584
    1    1    4    1       -0.0000000358
    1    1    5    1        0.0152360521
    1    1    6    1       -0.0278505703
    1    1    7    1        0.0000000000
    1    1    8    1       -0.0000002846
    1    1    9    1       -0.0000000337
    1    1   10    1        0.0124477902
    1    1   11    1       -0.0050474545
    1    1   12    1        0.0236066850
    1    1   13    1       -0.0000000927
    1    1    2    2        0.1411373620
    1    1    3    2       -0.0000004666
    1    1    4    2       -0.0000001054
    1    1    5    2        0.0232255012
    1    1    6    2       -0.0236333568
    1    1    7    2        0.0000000000
    1    1    8    2       -0.0000003239
    1    1    9    2       -0.0000000384
    1    1   10    2        0.0146917801
    1    1   11    2       -0.0037978944
    1    1   12    2        0.0111563662
    1    1   13    2       -0.0000000412
    1    1    3    3        0.0969369808
    1    1    4    3       -0.0000000000
    1    1    5    3        0.0000008956
    1    1    6    3        0.0000006803
    1    1    7    3       -0.0000000321
    1    1    8    3        0.0175157679
    1    1    9    3       -0.0018341200
    1    1   10    3       -0.0000000976
    1    1   11    3        0.0000000433
    1    1   12    3        0.0000001470
    1    1   13    3        0.0000122986
    1    1    4    4        0.0969369818
    1    1    5    4        0.0000002023
    1    1    6    4        0.0000001536
    1    1    7    4        0.0000001422
    1    1    8    4        0.0018341200
    1    1    9    4        0.0175157654
    1    1   10    4       -0.0000000221
    1    1   11    4        0.0000000097
    1    1   12    4        0.0000000312
    1    1   13    4       -0.0000010025
    1    1    5    5        0.0754159661
    1    1    6    5       -0.0192751885
    1    1    7    5        0.0000000000
    1    1    8    5        0.0000001834
    1    1    9    5        0.0000000217
    1    1   10    5        0.0160827044
    1    1   11    5       -0.0070614043
    1    1   12    5        0.0018773198
    1    1   13    5       -0.0000000001
    1    1    6    6        0.0931669118
    1    1    7    6       -0.0000000000
    1    1    8    6        0.0000004895
    1    1    9    6        0.0000000580
    1    1   10    6       -0.0089159328
    1    1   11    6        0.0116539756
    1    1   12    6       -0.0194631693
    1    1   13    6        0.0000000761
    1    1    7    7        0.0646374024
    1    1    8    7       -0.0000000142
    1    1    9    7        0.0000001201
    1    1   10    7       -0.0000000000
    1    1   11    7       -0.0000000000
    1    1   12    7        0.0000000001
    1    1   13    7       -0.0000011924
    1    1    8    8        0.0689654657
    1    1    9    8       -0.0000000002
    1    1   10    8       -0.0000000294
    1    1   11    8        0.0000001396
    1    1   12    8       -0.0000002095
    1    1   13    8        0.0000052551
    1    1    9    9        0.0689654631
    1    1   10    9       -0.0000000035
    1    1   11    9        0.0000000165
    1    1   12    9       -0.0000000256
    1    1   13    9       -0.0000009944
    1    1   10   10        0.0700936290
    1    1   11   10       -0.0049771604
    1    1   12   10        0.0068447606
    1    1   13   10       -0.0000000223
    1    1   11   11        0.0689998714
    1    1   12   11       -0.0000291668
    1    1   13   11       -0.0000000060
    1    1   12   12        0.0728562646
    1    1   13   12       -0.0000000009
    1    1   13   13        0.0710056786
    2    1    2    1        0.0457970112
    2    1    3    1       -0.0000002071
    2    1    4    1       -0.0000000468
    2    1    5    1        0.0122385973
    2    1    6    1       -0.0150264471
    2    1    7    1        0.0000000000
    2    1    8    1       -0.0000001971
    2    1    9    1       -0.0000000234
    2    1   10    1        0.0089416408
    2    1   11    1       -0.0028602064
    2    1   12    1        0.0092479058
    2    1   13    1       -0.0000000347
    2    1    2    2       -0.0212723802
    2    1    3    2        0.0000000788
    2    1    4    2        0.0000000178
    2    1    5    2        0.0006895132
    2    1    6    2       -0.0110076184
    2    1    7    2        0.0000000000
    2    1    8    2       -0.0000000886
    2    1    9    2       -0.0000000105
    2    1   10    2        0.0018016401
    2    1   11    2       -0.0062370035
    2    1   12    2        0.0079647271
    2    1   13    2       -0.0000000304
    2    1    3    3       -0.0255789966
    2    1    4    3        0.0000000000
    2    1    5    3       -0.0000005463
    2    1    6    3       -0.0000003634
    2    1    7    3        0.0000000370
    2    1    8    3       -0.0081059197
    2    1    9    3        0.0008487913
    2    1   10    3       -0.0000001799
    2    1   11    3        0.0000002578
    2    1   12    3        0.0000001255
    2    1   13    3        0.0000020052
    2    1    4    4       -0.0255789972
    2    1    5    4       -0.0000001234
    2    1    6    4       -0.0000000821
    2    1    7    4       -0.0000001640
    2    1    8    4       -0.0008487912
    2    1    9    4       -0.0081059194
    2    1   10    4       -0.0000000406
    2    1   11    4        0.0000000582
    2    1   12    4        0.0000000280
    2    1   13    4       -0.0000001790
    2    1    5    5       -0.0106689158
    2    1    6    5        0.0047759002
    2    1    7    5       -0.0000000000
    2    1    8    5       -0.0000002397
    2    1    9    5       -0.0000000284
    2    1   10    5       -0.0039100541
    2    1   11    5       -0.0020097061
    2    1   12    5       -0.0000502715
    2    1   13    5        0.0000000007
    2    1    6    6       -0.0123002159
    2    1    7    6        0.0000000000
    2    1    8    6       -0.0000002324
    2    1    9    6       -0.0000000275
    2    1   10    6        0.0029311851
    2    1   11    6       -0.0068694462
    2    1   12    6       -0.0002970966
    2    1   13    6        0.0000000028
    2    1    7    7       -0.0070378210
    2    1    8    7        0.0000000089
    2    1    9    7       -0.0000000755
    2    1   10    7       -0.0000000000
    2    1   11    7        0.0000000000
    2    1   12    7        0.0000000000
    2    1   13    7       -0.0000000215
    2    1    8    8       -0.0104199584
    2    1    9    8        0.0000000001
    2    1   10    8       -0.0000000837
    2    1   11    8       -0.0000000257
    2    1   12    8        0.0000000221
    2    1   13    8       -0.0000039096
    2    1    9    9       -0.0104199569
    2    1   10    9       -0.0000000099
    2    1   11    9       -0.0000000030
    2    1   12    9        0.0000000032
    2    1   13    9        0.0000007510
    2    1   10   10       -0.0049096674
    2    1   11   10        0.0014887223
    2    1   12   10        0.0009825577
    2    1   13   10       -0.0000000057
    2    1   11   11       -0.0051326777
    2    1   12   11        0.0046009785
    2    1   13   11       -0.0000000194
    2    1   12   12       -0.0014009859
    2    1   13   12       -0.0000000428
    2    1   13   13       -0.0105221436
    3    1    3    1        0.0040762710
    3    1    4    1        0.0000000000
    3    1    5    1       -0.0000001235
    3    1    6    1       -0.0000000582
    3    1    7    1        0.0000000663
    3    1    8    1        0.0020999301
    3    1    9    1       -0.0002198889
    3    1   10    1       -0.0000001693
    3    1   11    1        0.0000000647
    3    1   12    1        0.0000000483
    3    1   13    1        0.0000012455
    3    1    2    2        0.0000002060
    3    1    3    2       -0.0101303385
    3    1    4    2       -0.0000000000
    3    1    5    2        0.0000007895
    3    1    6    2        0.0000009051
    3    1    7    2       -0.0000003862
    3    1    8    2       -0.0044462509
    3    1    9    2        0.0004655781
    3    1   10    2        0.0000004350
    3    1   11    2        0.0000003895
    3    1   12    2        0.0000002403
    3    1   13    2       -0.0000006654
    3    1    3    3       -0.0000002906
    3    1    4    3       -0.0000001061
    3    1    5    3       -0.0005833193
    3    1    6    3        0.0023980002
    3    1    7    3       -0.0011595745
    3    1    8    3        0.0000029788
    3    1    9    3        0.0000003064
    3    1   10    3        0.0000870779
    3    1   11    3        0.0012884625
    3    1   12    3       -0.0004422011
    3    1   13    3       -0.0039365671
    3    1    4    4       -0.0000003721
    3    1    5    4        0.0000000002
    3    1    6    4        0.0000000002
    3    1    7    4        0.0024362686
    3    1    8    4        0.0000009807
    3    1    9    4        0.0000033180
    3    1   10    4        0.0000000001
    3    1   11    4       -0.0000000001
    3    1   12    4       -0.0000000083
    3    1   13    4       -0.0018738641
    3    1    5    5       -0.0000180637
    3    1    6    5       -0.0000167253
    3    1    7    5        0.0000053805
    3    1    8    5       -0.0036427769
    3    1    9    5        0.0003814443
    3    1   10    5        0.0000012943
    3    1   11    5        0.0000029080
    3    1   12    5       -0.0000083350
    3    1   13    5       -0.0000027214
    3    1    6    6       -0.0000190422
    3    1    7    6        0.0000049875
    3    1    8    6        0.0008127237
    3    1    9    6       -0.0000851023
    3    1   10    6       -0.0000073103
    3    1   11    6        0.0000099150
    3    1   12    6       -0.0000075486
    3    1   13    6        0.0000045499
    3    1    7    7       -0.0000418445
    3    1    8    7       -0.0001730062
    3    1    9    7        0.0004892304
    3    1   10    7        0.0000015959
    3    1   11    7        0.0000016522
    3    1   12    7       -0.0000004411
    3    1   13    7        0.0000007243
    3    1    8    8       -0.0000167337
    3    1    9    8       -0.0000039090
    3    1   10    8       -0.0007815620
    3    1   11    8        0.0000164030
    3    1   12    8       -0.0003278188
    3    1   13    8        0.0013573399
    3    1    9    9       -0.0000185349
    3    1   10    9        0.0000818393
    3    1   11    9       -0.0000017175
    3    1   12    9        0.0000343294
    3    1   13    9        0.0004798457
    3    1   10   10       -0.0000326355
    3    1   11   10        0.0000012472
    3    1   12   10        0.0000052309
    3    1   13   10        0.0000006671
    3    1   11   11       -0.0000381172
    3    1   12   11        0.0000012718
    3    1   13   11       -0.0000008050
    3    1   12   12       -0.0000362371
    3    1   13   12       -0.0000002945
    3    1   13   13       -0.0000030688
    4    1    4    1        0.0040762712
    4    1    5    1       -0.0000000279
    4    1    6    1       -0.0000000132
    4    1    7    1       -0.0000002934
    4    1    8    1        0.0002198889
    4    1    9    1        0.0020999298
    4    1   10    1       -0.0000000382
    4    1   11    1        0.0000000146
    4    1   12    1        0.0000000107
    4    1   13    1       -0.0000001003
    4    1    2    2        0.0000000465
    4    1    3    2       -0.0000000000
    4    1    4    2       -0.0101303388
    4    1    5    2        0.0000001783
    4    1    6    2        0.0000002044
    4    1    7    2        0.0000017099
    4    1    8    2       -0.0004655781
    4    1    9    2       -0.0044462506
    4    1   10    2        0.0000000983
    4    1   11    2        0.0000000880
    4    1   12    2        0.0000000544
    4    1   13    2        0.0000000487
    4    1    3    3       -0.0000002913
    4    1    4    3        0.0000004497
    4    1    5    3        0.0000000001
    4    1    6    3        0.0000000002
    4    1    7    3        0.0024362694
    4    1    8    3        0.0000016994
    4    1    9    3       -0.0000027564
    4    1   10    3        0.0000000001
    4    1   11    3       -0.0000000001
    4    1   12    3       -0.0000000083
    4    1   13    3       -0.0018738665
    4    1    4    4        0.0000001427
    4    1    5    4       -0.0005833201
    4    1    6    4        0.0023979995
    4    1    7    4        0.0011595745
    4    1    8    4       -0.0000027223
    4    1    9    4       -0.0000002762
    4    1   10    4        0.0000870776
    4    1   11    4        0.0012884630
    4    1   12    4       -0.0004421660
    4    1   13    4        0.0039365711
    4    1    5    5       -0.0000040796
    4    1    6    5       -0.0000037773
    4    1    7    5       -0.0000238240
    4    1    8    5       -0.0003814444
    4    1    9    5       -0.0036427765
    4    1   10    5        0.0000002923
    4    1   11    5        0.0000006568
    4    1   12    5       -0.0000018820
    4    1   13    5        0.0000001920
    4    1    6    6       -0.0000043006
    4    1    7    6       -0.0000220838
    4    1    8    6        0.0000851023
    4    1    9    6        0.0008127231
    4    1   10    6       -0.0000016510
    4    1   11    6        0.0000022392
    4    1   12    6       -0.0000017056
    4    1   13    6       -0.0000003805
    4    1    7    7       -0.0000094503
    4    1    8    7        0.0004892300
    4    1    9    7        0.0001730062
    4    1   10    7       -0.0000070664
    4    1   11    7       -0.0000073156
    4    1   12    7        0.0000019542
    4    1   13    7       -0.0000012199
    4    1    8    8       -0.0000081322
    4    1    9    8        0.0000172520
    4    1   10    8       -0.0000818394
    4    1   11    8        0.0000017177
    4    1   12    8       -0.0000343253
    4    1   13    8        0.0004798581
    4    1    9    9        0.0000001744
    4    1   10    9       -0.0007815618
    4    1   11    9        0.0000164024
    4    1   12    9       -0.0003278304
    4    1   13    9       -0.0013573386
    4    1   10   10       -0.0000073705
    4    1   11   10        0.0000002817
    4    1   12   10        0.0000011813
    4    1   13   10       -0.0000000366
    4    1   11   11       -0.0000086085
    4    1   12   11        0.0000002874
    4    1   13   11        0.0000000654
    4    1   12   12       -0.0000081838
    4    1   13   12        0.0000000274
    4    1   13   13       -0.0000018047
    5    1    5    1        0.0048446720
    5    1    6    1       -0.0057761666
    5    1    7    1        0.0000000000
    5    1    8    1       -0.0000000647
    5    1    9    1       -0.0000000077
    5    1   10    1        0.0035878774
    5    1   11    1       -0.0015773506
    5    1   12    1        0.0028250139
    5    1   13    1       -0.0000000101
    5    1    2    2       -0.0087291477
    5    1    3    2        0.0000001920
    5    1    4    2        0.0000000434
    5    1    5    2       -0.0028613456
    5    1    6    2        0.0006064397
    5    1    7    2        0.0000000000
    5    1    8    2       -0.0000000537
    5    1    9    2       -0.0000000064
    5    1   10    2       -0.0015725070
    5    1   11    2       -0.0004839766
    5    1   12    2        0.0012701973
    5    1   13    2       -0.0000000054
    5    1    3    3       -0.0093119112
    5    1    4    3        0.0000000000
    5    1    5    3       -0.0000005835
    5    1    6    3       -0.0000003699
    5    1    7    3        0.0000000883
    5    1    8    3       -0.0043950849
    5    1    9    3        0.0004602203
    5    1   10    3       -0.0000002104
    5    1   11    3       -0.0000001369
    5    1   12    3        0.0000001003
    5    1   13    3       -0.0000017672
    5    1    4    4       -0.0093119117
    5    1    5    4       -0.0000001318
    5    1    6    4       -0.0000000835
    5    1    7    4       -0.0000003911
    5    1    8    4       -0.0004602204
    5    1    9    4       -0.0043950843
    5    1   10    4       -0.0000000475
    5    1   11    4       -0.0000000309
    5    1   12    4        0.0000000230
    5    1   13    4        0.0000002527
    5    1    5    5       -0.0036472165
    5    1    6    5        0.0024706774
    5    1    7    5        0.0000000000
    5    1    8    5        0.0000004350
    5    1    9    5        0.0000000515
    5    1   10    5       -0.0026461718
    5    1   11    5        0.0005781531
    5    1   12    5       -0.0008826442
    5    1   13    5        0.0000000025
    5    1    6    6       -0.0049697245
    5    1    7    6        0.0000000000
    5    1    8    6        0.0000001519
    5    1    9    6        0.0000000180
    5    1   10    6        0.0017765885
    5    1   11    6       -0.0023727253
    5    1   12    6        0.0014181439
    5    1   13    6       -0.0000000051
    5    1    7    7       -0.0017273944
    5    1    8    7       -0.0000000093
    5    1    9    7        0.0000000787
    5    1   10    7       -0.0000000000
    5    1   11    7        0.0000000000
    5    1   12    7       -0.0000000000
    5    1   13    7        0.0000001049
    5    1    8    8       -0.0035560709
    5    1    9    8        0.0000000001
    5    1   10    8       -0.0000001866
    5    1   11    8       -0.0000000445
    5    1   12    8        0.0000001807
    5    1   13    8       -0.0000017886
    5    1    9    9       -0.0035560708
    5    1   10    9       -0.0000000221
    5    1   11    9       -0.0000000053
    5    1   12    9        0.0000000216
    5    1   13    9        0.0000001385
    5    1   10   10       -0.0026554450
    5    1   11   10        0.0009582740
    5    1   12   10       -0.0001851553
    5    1   13   10       -0.0000000009
    5    1   11   11       -0.0019231852
    5    1   12   11        0.0012504724
    5    1   13   11       -0.0000000041
    5    1   12   12       -0.0009433087
    5    1   13   12       -0.0000000087
    5    1   13   13       -0.0026727325
    6    1    6    1        0.0080778779
    6    1    7    1       -0.0000000000
    6    1    8    1        0.0000000708
    6    1    9    1        0.0000000084
    6    1   10    1       -0.0044011763
    6    1   11    1        0.0024037749
    6    1   12    1       -0.0045584174
    6    1   13    1        0.0000000167
    6    1    2    2        0.0003578729
    6    1    3    2        0.0000003364
    6    1    4    2        0.0000000760
    6    1    5    2        0.0020555721
    6    1    6    2       -0.0020819512
    6    1    7    2        0.0000000000
    6    1    8    2       -0.0000000056
    6    1    9    2       -0.0000000007
    6    1   10    2        0.0012338781
    6    1   11    2       -0.0011712737
    6    1   12    2       -0.0005288283
    6    1   13    2        0.0000000027
    6    1    3    3        0.0060684113
    6    1    4    3        0.0000000001
    6    1    5    3       -0.0000002609
    6    1    6    3       -0.0000002747
    6    1    7    3        0.0000001006
    6    1    8    3        0.0030038448
    6    1    9    3       -0.0003145402
    6    1   10    3       -0.0000002536
    6    1   11    3       -0.0000002216
    6    1   12    3        0.0000000685
    6    1   13    3        0.0000033632
    6    1    4    4        0.0060684112
    6    1    5    4       -0.0000000589
    6    1    6    4       -0.0000000620
    6    1    7    4       -0.0000004455
    6    1    8    4        0.0003145401
    6    1    9    4        0.0030038445
    6    1   10    4       -0.0000000573
    6    1   11    4       -0.0000000501
    6    1   12    4        0.0000000150
    6    1   13    4       -0.0000001147
    6    1    5    5        0.0023491645
    6    1    6    5       -0.0010578381
    6    1    7    5       -0.0000000000
    6    1    8    5        0.0000007139
    6    1    9    5        0.0000000845
    6    1   10    5        0.0021073722
    6    1   11    5       -0.0004416094
    6    1   12    5        0.0009907522
    6    1   13    5       -0.0000000030
    6    1    6    6        0.0025152370
    6    1    7    6        0.0000000000
    6    1    8    6        0.0000003425
    6    1    9    6        0.0000000405
    6    1   10    6       -0.0006560661
    6    1   11    6        0.0010182291
    6    1   12    6       -0.0006975907
    6    1   13    6        0.0000000009
    6    1    7    7        0.0017146190
    6    1    8    7       -0.0000000110
    6    1    9    7        0.0000000932
    6    1   10    7        0.0000000000
    6    1   11    7        0.0000000000
    6    1   12    7        0.0000000000
    6    1   13    7       -0.0000001429
    6    1    8    8        0.0025856612
    6    1    9    8        0.0000000000
    6    1   10    8       -0.0000001283
    6    1   11    8       -0.0000000760
    6    1   12    8        0.0000001782
    6    1   13    8       -0.0000002369
    6    1    9    9        0.0025856603
    6    1   10    9       -0.0000000152
    6    1   11    9       -0.0000000090
    6    1   12    9        0.0000000210
    6    1   13    9       -0.0000001868
    6    1   10   10        0.0023073352
    6    1   11   10       -0.0006686801
    6    1   12   10       -0.0001634862
    6    1   13   10        0.0000000011
    6    1   11   11        0.0011208241
    6    1   12   11       -0.0005547061
    6    1   13   11        0.0000000029
    6    1   12   12        0.0003277995
    6    1   13   12        0.0000000085
    6    1   13   13        0.0022969880
    7    1    7    1        0.0001083296
    7    1    8    1        0.0000000101
    7    1    9    1       -0.0000000855
    7    1   10    1        0.0000000000
    7    1   11    1       -0.0000000000
    7    1   12    1        0.0000000000
    7    1   13    1       -0.0000000116
    7    1    2    2        0.0000000000
    7    1    3    2       -0.0000001708
    7    1    4    2        0.0000007563
    7    1    5    2       -0.0000000000
    7    1    6    2        0.0000000000
    7    1    7    2       -0.0003104462
    7    1    8    2       -0.0000000124
    7    1    9    2        0.0000001047
    7    1   10    2       -0.0000000000
    7    1   11    2        0.0000000000
    7    1   12    2       -0.0000000000
    7    1   13    2        0.0000000214
    7    1    3    3       -0.0003529556
    7    1    4    3        0.0007415608
    7    1    5    3        0.0000001373
    7    1    6    3        0.0000001255
    7    1    7    3       -0.0000008221
    7    1    8    3       -0.0001038386
    7    1    9    3        0.0002936386
    7    1   10    3        0.0000000790
    7    1   11    3        0.0000000909
    7    1   12    3       -0.0000000369
    7    1   13    3        0.0000002665
    7    1    4    4        0.0003529556
    7    1    5    4       -0.0000006080
    7    1    6    4       -0.0000005556
    7    1    7    4       -0.0000001857
    7    1    8    4        0.0002936387
    7    1    9    4        0.0001038386
    7    1   10    4       -0.0000003498
    7    1   11    4       -0.0000004027
    7    1   12    4        0.0000001634
    7    1   13    4       -0.0000009900
    7    1    5    5        0.0000000000
    7    1    6    5       -0.0000000000
    7    1    7    5        0.0004245301
    7    1    8    5       -0.0000001311
    7    1    9    5        0.0000011076
    7    1   10    5        0.0000000000
    7    1   11    5       -0.0000000000
    7    1   12    5       -0.0000000000
    7    1   13    5        0.0000000068
    7    1    6    6        0.0000000000
    7    1    7    6        0.0003575595
    7    1    8    6       -0.0000000466
    7    1    9    6        0.0000003941
    7    1   10    6       -0.0000000000
    7    1   11    6        0.0000000000
    7    1   12    6        0.0000000000
    7    1   13    6       -0.0000000438
    7    1    7    7       -0.0000000000
    7    1    8    7        0.0000001707
    7    1    9    7        0.0000000202
    7    1   10    7        0.0002672331
    7    1   11    7        0.0003402050
    7    1   12    7       -0.0001956653
    7    1   13    7        0.0000000017
    7    1    8    8       -0.0000188047
    7    1    9    8        0.0000783461
    7    1   10    8        0.0000000274
    7    1   11    8        0.0000000043
    7    1   12    8       -0.0000000307
    7    1   13    8       -0.0000002903
    7    1    9    9        0.0000188047
    7    1   10    9       -0.0000002312
    7    1   11    9       -0.0000000366
    7    1   12    9        0.0000002588
    7    1   13    9        0.0000015342
    7    1   10   10        0.0000000000
    7    1   11   10        0.0000000000
    7    1   12   10        0.0000000000
    7    1   13   10       -0.0000000481
    7    1   11   11       -0.0000000000
    7    1   12   11       -0.0000000000
    7    1   13   11       -0.0000000000
    7    1   12   12       -0.0000000000
    7    1   13   12        0.0000000186
    7    1   13   13        0.0000000004
    8    1    8    1        0.0011942736
    8    1    9    1       -0.0000000000
    8    1   10    1       -0.0000000924
    8    1   11    1        0.0000000426
    8    1   12    1       -0.0000000280
    8    1   13    1        0.0000006881
    8    1    2    2        0.0000000615
    8    1    3    2       -0.0049408732
    8    1    4    2       -0.0005173712
    8    1    5    2        0.0000001832
    8    1    6    2        0.0000002145
    8    1    7    2       -0.0000000582
    8    1    8    2       -0.0025054848
    8    1    9    2        0.0000000000
    8    1   10    2        0.0000001567
    8    1   11    2        0.0000001035
    8    1   12    2        0.0000000599
    8    1   13    2       -0.0000005952
    8    1    3    3        0.0000001142
    8    1    4    3        0.0000000430
    8    1    5    3       -0.0009942488
    8    1    6    3        0.0013769714
    8    1    7    3       -0.0003629905
    8    1    8    3        0.0000007800
    8    1    9    3       -0.0000000376
    8    1   10    3       -0.0003267363
    8    1   11    3        0.0005014799
    8    1   12    3       -0.0001910389
    8    1   13    3       -0.0015206333
    8    1    4    4       -0.0000001601
    8    1    5    4       -0.0001041103
    8    1    6    4        0.0001441861
    8    1    7    4        0.0010264805
    8    1    8    4        0.0000001476
    8    1    9    4        0.0000010423
    8    1   10    4       -0.0000342134
    8    1   11    4        0.0000525113
    8    1   12    4       -0.0000200059
    8    1   13    4       -0.0005378344
    8    1    5    5       -0.0000049067
    8    1    6    5       -0.0000047190
    8    1    7    5        0.0000007941
    8    1    8    5       -0.0014214463
    8    1    9    5        0.0000000004
    8    1   10    5       -0.0000003948
    8    1   11    5        0.0000007215
    8    1   12    5       -0.0000020352
    8    1   13    5       -0.0000012696
    8    1    6    6       -0.0000055188
    8    1    7    6        0.0000007785
    8    1    8    6        0.0006783946
    8    1    9    6        0.0000000003
    8    1   10    6       -0.0000028340
    8    1   11    6        0.0000027302
    8    1   12    6       -0.0000017165
    8    1   13    6        0.0000014520
    8    1    7    7       -0.0000121657
    8    1    8    7       -0.0000663177
    8    1    9    7        0.0002762912
    8    1   10    7        0.0000003612
    8    1   11    7        0.0000002370
    8    1   12    7       -0.0000000925
    8    1   13    7        0.0000000766
    8    1    8    8       -0.0000042653
    8    1    9    8       -0.0000004769
    8    1   10    8       -0.0006101229
    8    1   11    8        0.0001276851
    8    1   12    8       -0.0001702197
    8    1   13    8        0.0001120148
    8    1    9    9       -0.0000051488
    8    1   10    9       -0.0000000001
    8    1   11    9       -0.0000000003
    8    1   12    9        0.0000000005
    8    1   13    9        0.0000268296
    8    1   10   10       -0.0000089205
    8    1   11   10        0.0000006679
    8    1   12   10        0.0000014652
    8    1   13   10       -0.0000001049
    8    1   11   11       -0.0000105425
    8    1   12   11        0.0000000449
    8    1   13   11       -0.0000000146
    8    1   12   12       -0.0000097108
    8    1   13   12       -0.0000004958
    8    1   13   13       -0.0000015283
    9    1    9    1        0.0011942733
    9    1   10    1       -0.0000000109
    9    1   11    1        0.0000000050
    9    1   12    1       -0.0000000034
    9    1   13    1       -0.0000001364
    9    1    2    2        0.0000000073
    9    1    3    2        0.0005173712
    9    1    4    2       -0.0049408727
    9    1    5    2        0.0000000217
    9    1    6    2        0.0000000254
    9    1    7    2        0.0000004915
    9    1    8    2        0.0000000000
    9    1    9    2       -0.0025054841
    9    1   10    2        0.0000000185
    9    1   11    2        0.0000000123
    9    1   12    2        0.0000000072
    9    1   13    2        0.0000001346
    9    1    3    3       -0.0000000566
    9    1    4    3        0.0000001605
    9    1    5    3        0.0001041102
    9    1    6    3       -0.0001441862
    9    1    7    3        0.0010264802
    9    1    8    3        0.0000003592
    9    1    9    3       -0.0000007667
    9    1   10    3        0.0000342134
    9    1   11    3       -0.0000525112
    9    1   12    3        0.0000200009
    9    1   13    3       -0.0005378352
    9    1    4    4        0.0000000515
    9    1    5    4       -0.0009942484
    9    1    6    4        0.0013769713
    9    1    7    4        0.0003629904
    9    1    8    4       -0.0000007314
    9    1    9    4       -0.0000001491
    9    1   10    4       -0.0003267363
    9    1   11    4        0.0005014795
    9    1   12    4       -0.0001910248
    9    1   13    4        0.0015206347
    9    1    5    5       -0.0000005806
    9    1    6    5       -0.0000005584
    9    1    7    5       -0.0000067104
    9    1    8    5        0.0000000004
    9    1    9    5       -0.0014214487
    9    1   10    5       -0.0000000467
    9    1   11    5        0.0000000854
    9    1   12    5       -0.0000002407
    9    1   13    5        0.0000001352
    9    1    6    6       -0.0000006531
    9    1    7    6       -0.0000065785
    9    1    8    6        0.0000000004
    9    1    9    6        0.0006783912
    9    1   10    6       -0.0000003354
    9    1   11    6        0.0000003231
    9    1   12    6       -0.0000002034
    9    1   13    6       -0.0000003525
    9    1    7    7       -0.0000014396
    9    1    8    7        0.0002762935
    9    1    9    7        0.0000663176
    9    1   10    7       -0.0000030527
    9    1   11    7       -0.0000020028
    9    1   12    7        0.0000007816
    9    1   13    7       -0.0000000753
    9    1    8    8       -0.0000016361
    9    1    9    8        0.0000046644
    9    1   10    8       -0.0000000001
    9    1   11    8       -0.0000000003
    9    1   12    8        0.0000000005
    9    1   13    8        0.0000268330
    9    1    9    9        0.0000005227
    9    1   10    9       -0.0006101218
    9    1   11    9        0.0001276874
    9    1   12    9       -0.0001702237
    9    1   13    9       -0.0001120137
    9    1   10   10       -0.0000010556
    9    1   11   10        0.0000000790
    9    1   12   10        0.0000001734
    9    1   13   10        0.0000000000
    9    1   11   11       -0.0000012475
    9    1   12   11        0.0000000053
    9    1   13   11       -0.0000000033
    9    1   12   12       -0.0000011490
    9    1   13   12        0.0000000641
    9    1   13   13       -0.0000006970
   10    1   10    1        0.0027573149
   10    1   11    1       -0.0012459012
   10    1   12    1        0.0022701585
   10    1   13    1       -0.0000000082
   10    1    2    2       -0.0046563030
   10    1    3    2        0.0000003048
   10    1    4    2        0.0000000688
   10    1    5    2       -0.0019586543
   10    1    6    2        0.0006067004
   10    1    7    2        0.0000000000
   10    1    8    2        0.0000000500
   10    1    9    2        0.0000000059
   10    1   10    2       -0.0012200315
   10    1   11    2       -0.0001095410
   10    1   12    2        0.0007483669
   10    1   13    2       -0.0000000033
   10    1    3    3       -0.0054776205
   10    1    4    3        0.0000000000
   10    1    5    3       -0.0000003491
   10    1    6    3       -0.0000003827
   10    1    7    3        0.0000000792
   10    1    8    3       -0.0027515641
   10    1    9    3        0.0002881232
   10    1   10    3       -0.0000002424
   10    1   11    3       -0.0000001277
   10    1   12    3        0.0000001050
   10    1   13    3       -0.0000009261
   10    1    4    4       -0.0054776207
   10    1    5    4       -0.0000000788
   10    1    6    4       -0.0000000864
   10    1    7    4       -0.0000003509
   10    1    8    4       -0.0002881232
   10    1    9    4       -0.0027515638
   10    1   10    4       -0.0000000547
   10    1   11    4       -0.0000000288
   10    1   12    4        0.0000000239
   10    1   13    4        0.0000001803
   10    1    5    5       -0.0024600723
   10    1    6    5        0.0018696694
   10    1    7    5        0.0000000000
   10    1    8    5        0.0000002835
   10    1    9    5        0.0000000336
   10    1   10    5       -0.0016994128
   10    1   11    5        0.0004761225
   10    1   12    5       -0.0005149162
   10    1   13    5        0.0000000014
   10    1    6    6       -0.0029821112
   10    1    7    6        0.0000000000
   10    1    8    6        0.0000000801
   10    1    9    6        0.0000000095
   10    1   10    6        0.0014640627
   10    1   11    6       -0.0014880088
   10    1   12    6        0.0007705962
   10    1   13    6       -0.0000000028
   10    1    7    7       -0.0008058453
   10    1    8    7        0.0000000008
   10    1    9    7       -0.0000000069
   10    1   10    7       -0.0000000000
   10    1   11    7        0.0000000000
   10    1   12    7       -0.0000000000
   10    1   13    7        0.0000000309
   10    1    8    8       -0.0022138079
   10    1    9    8        0.0000000000
   10    1   10    8        0.0000000161
   10    1   11    8       -0.0000000761
   10    1   12    8        0.0000001434
   10    1   13    8       -0.0000013985
   10    1    9    9       -0.0022138074
   10    1   10    9        0.0000000019
   10    1   11    9       -0.0000000090
   10    1   12    9        0.0000000171
   10    1   13    9        0.0000001323
   10    1   10   10       -0.0016650776
   10    1   11   10        0.0006808224
   10    1   12   10       -0.0002335795
   10    1   13   10       -0.0000000003
   10    1   11   11       -0.0010104461
   10    1   12   11        0.0007706414
   10    1   13   11       -0.0000000024
   10    1   12   12       -0.0004378191
   10    1   13   12       -0.0000000045
   10    1   13   13       -0.0013295948
   11    1   11    1        0.0009346609
   11    1   12    1       -0.0012507862
   11    1   13    1        0.0000000046
   11    1    2    2       -0.0014504486
   11    1    3    2       -0.0000000432
   11    1    4    2       -0.0000000097
   11    1    5    2        0.0007967605
   11    1    6    2       -0.0019417699
   11    1    7    2        0.0000000000
   11    1    8    2       -0.0000000439
   11    1    9    2       -0.0000000052
   11    1   10    2        0.0006756071
   11    1   11    2       -0.0012817959
   11    1   12    2        0.0006211831
   11    1   13    2       -0.0000000023
   11    1    3    3        0.0012029853
   11    1    4    3       -0.0000000001
   11    1    5    3        0.0000000098
   11    1    6    3        0.0000001411
   11    1    7    3        0.0000000014
   11    1    8    3        0.0005552331
   11    1    9    3       -0.0000581398
   11    1   10    3        0.0000000287
   11    1   11    3       -0.0000000533
   11    1   12    3       -0.0000000657
   11    1   13    3        0.0000009591
   11    1    4    4        0.0012029857
   11    1    5    4        0.0000000022
   11    1    6    4        0.0000000319
   11    1    7    4       -0.0000000060
   11    1    8    4        0.0000581399
   11    1    9    4        0.0005552325
   11    1   10    4        0.0000000065
   11    1   11    4       -0.0000000120
   11    1   12    4       -0.0000000150
   11    1   13    4       -0.0000001074
   11    1    5    5        0.0008338937
   11    1    6    5       -0.0003841597
   11    1    7    5       -0.0000000000
   11    1    8    5       -0.0000001070
   11    1    9    5       -0.0000000127
   11    1   10    5        0.0007044966
   11    1   11    5       -0.0001235239
   11    1   12    5        0.0004655495
   11    1   13    5       -0.0000000008
   11    1    6    6        0.0004885597
   11    1    7    6        0.0000000000
   11    1    8    6       -0.0000000918
   11    1    9    6       -0.0000000109
   11    1   10    6       -0.0002211956
   11    1   11    6        0.0000865596
   11    1   12    6       -0.0001044664
   11    1   13    6        0.0000000009
   11    1    7    7        0.0006715406
   11    1    8    7       -0.0000000096
   11    1    9    7        0.0000000811
   11    1   10    7       -0.0000000000
   11    1   11    7       -0.0000000000
   11    1   12    7        0.0000000000
   11    1   13    7       -0.0000000421
   11    1    8    8        0.0006947886
   11    1    9    8       -0.0000000001
   11    1   10    8        0.0000000001
   11    1   11    8        0.0000002225
   11    1   12    8        0.0000000048
   11    1   13    8        0.0000003542
   11    1    9    9        0.0006947896
   11    1   10    9        0.0000000000
   11    1   11    9        0.0000000263
   11    1   12    9        0.0000000005
   11    1   13    9       -0.0000000357
   11    1   10   10        0.0008157881
   11    1   11   10       -0.0001920677
   11    1   12   10       -0.0000007052
   11    1   13   10        0.0000000008
   11    1   11   11        0.0000323757
   11    1   12   11       -0.0000627762
   11    1   13   11       -0.0000000001
   11    1   12   12        0.0000310092
   11    1   13   12        0.0000000034
   11    1   13   13        0.0007981057
   12    1   12    1        0.0031577179
   12    1   13    1       -0.0000000107
   12    1    2    2        0.0049441619
   12    1    3    2       -0.0000001720
   12    1    4    2       -0.0000000385
   12    1    5    2        0.0005406799
   12    1    6    2       -0.0000606131
   12    1    7    2       -0.0000000000
   12    1    8    2       -0.0000000489
   12    1    9    2       -0.0000000056
   12    1   10    2        0.0003212516
   12    1   11    2        0.0006221226
   12    1   12    2        0.0004127373
   12    1   13    2       -0.0000000051
   12    1    3    3       -0.0000202014
   12    1    4    3       -0.0000000026
   12    1    5    3        0.0000000782
   12    1    6    3        0.0000001771
   12    1    7    3       -0.0000000392
   12    1    8    3       -0.0000275659
   12    1    9    3        0.0000028861
   12    1   10    3        0.0000001090
   12    1   11    3        0.0000000349
   12    1   12    3       -0.0000001166
   12    1   13    3       -0.0000007294
   12    1    4    4       -0.0000201903
   12    1    5    4        0.0000000178
   12    1    6    4        0.0000000397
   12    1    7    4        0.0000001731
   12    1    8    4       -0.0000028867
   12    1    9    4       -0.0000275643
   12    1   10    4        0.0000000247
   12    1   11    4        0.0000000078
   12    1   12    4       -0.0000000262
   12    1   13    4        0.0000000110
   12    1    5    5       -0.0000954917
   12    1    6    5       -0.0002120732
   12    1    7    5        0.0000000000
   12    1    8    5       -0.0000001544
   12    1    9    5       -0.0000000181
   12    1   10    5       -0.0001234012
   12    1   11    5        0.0000043023
   12    1   12    5        0.0000440727
   12    1   13    5        0.0000000019
   12    1    6    6        0.0004963627
   12    1    7    6        0.0000000000
   12    1    8    6       -0.0000000258
   12    1    9    6       -0.0000000031
   12    1   10    6       -0.0002918028
   12    1   11    6        0.0002947671
   12    1   12    6       -0.0004594520
   12    1   13    6        0.0000000042
   12    1    7    7       -0.0003102472
   12    1    8    7        0.0000000008
   12    1    9    7       -0.0000000073
   12    1   10    7        0.0000000000
   12    1   11    7        0.0000000000
   12    1   12    7       -0.0000000000
   12    1   13    7        0.0000000269
   12    1    8    8       -0.0001847912
   12    1    9    8       -0.0000000006
   12    1   10    8        0.0000000365
   12    1   11    8        0.0000001263
   12    1   12    8        0.0000000794
   12    1   13    8        0.0000000602
   12    1    9    9       -0.0001847863
   12    1   10    9        0.0000000044
   12    1   11    9        0.0000000149
   12    1   12    9        0.0000000095
   12    1   13    9        0.0000000366
   12    1   10   10       -0.0002426732
   12    1   11   10        0.0000444305
   12    1   12   10        0.0002872655
   12    1   13   10        0.0000000005
   12    1   11   11        0.0001137827
   12    1   12   11       -0.0001712333
   12    1   13   11        0.0000000018
   12    1   12   12        0.0003880258
   12    1   13   12       -0.0000000031
   12    1   13   13       -0.0002731115
   13    1   13    1        0.0002656932
   13    1    2    2       -0.0000000214
   13    1    3    2       -0.0000020645
   13    1    4    2        0.0000001591
   13    1    5    2       -0.0000000026
   13    1    6    2        0.0000000015
   13    1    7    2        0.0000000264
   13    1    8    2       -0.0000010376
   13    1    9    2        0.0000002427
   13    1   10    2       -0.0000000017
   13    1   11    2       -0.0000000026
   13    1   12    2       -0.0000000046
   13    1   13    2       -0.0007486893
   13    1    3    3       -0.0012686345
   13    1    4    3       -0.0006039089
   13    1    5    3       -0.0000004459
   13    1    6    3        0.0000023812
   13    1    7    3       -0.0000001117
   13    1    8    3       -0.0001260386
   13    1    9    3       -0.0000446103
   13    1   10    3       -0.0000000939
   13    1   11    3        0.0000002481
   13    1   12    3       -0.0000000014
   13    1   13    3       -0.0000013161
   13    1    4    4        0.0012686305
   13    1    5    4        0.0000001848
   13    1    6    4       -0.0000000241
   13    1    7    4       -0.0000001550
   13    1    8    4       -0.0000446103
   13    1    9    4        0.0001260388
   13    1   10    4        0.0000000459
   13    1   11    4       -0.0000001079
   13    1   12    4        0.0000001471
   13    1   13    4       -0.0000007547
   13    1    5    5       -0.0000000148
   13    1    6    5       -0.0000000144
   13    1    7    5       -0.0000000194
   13    1    8    5       -0.0000040497
   13    1    9    5       -0.0000002134
   13    1   10    5        0.0000000035
   13    1   11    5        0.0000000220
   13    1   12    5       -0.0000000204
   13    1   13    5        0.0005845698
   13    1    6    6       -0.0000000246
   13    1    7    6       -0.0000000397
   13    1    8    6       -0.0000028428
   13    1    9    6       -0.0000004561
   13    1   10    6       -0.0000000002
   13    1   11    6        0.0000000297
   13    1   12    6       -0.0000000210
   13    1   13    6        0.0005264035
   13    1    7    7       -0.0000000106
   13    1    8    7       -0.0000005327
   13    1    9    7        0.0000035997
   13    1   10    7       -0.0000000318
   13    1   11    7       -0.0000000202
   13    1   12    7        0.0000000193
   13    1   13    7        0.0000000012
   13    1    8    8       -0.0006544825
   13    1    9    8       -0.0001571057
   13    1   10    8       -0.0000002610
   13    1   11    8        0.0000022699
   13    1   12    8       -0.0000031828
   13    1   13    8       -0.0000000378
   13    1    9    9        0.0006544721
   13    1   10    9        0.0000001213
   13    1   11    9        0.0000001205
   13    1   12    9       -0.0000002686
   13    1   13    9       -0.0000000165
   13    1   10   10       -0.0000000360
   13    1   11   10       -0.0000000009
   13    1   12   10        0.0000000113
   13    1   13   10        0.0003540006
   13    1   11   11       -0.0000000765
   13    1   12   11        0.0000000295
   13    1   13   11        0.0003238799
   13    1   12   12       -0.0000000750
   13    1   13   12       -0.0000193312
   13    1   13   13       -0.0000000026
    2    2    2    2        0.1970173993
    2    2    3    2       -0.0000004334
    2    2    4    2       -0.0000000979
    2    2    5    2        0.0150819388
    2    2    6    2        0.0137106815
    2    2    7    2       -0.0000000000
    2    2    8    2        0.0000000450
    2    2    9    2        0.0000000054
    2    2   10    2        0.0055666158
    2    2   11    2        0.0165204253
    2    2   12    2       -0.0111972555
    2    2   13    2        0.0000000428
    2    2    3    3        0.1572630181
    2    2    4    3       -0.0000000000
    2    2    5    3        0.0000020680
    2    2    6    3        0.0000014435
    2    2    7    3       -0.0000001010
    2    2    8    3        0.0334573966
    2    2    9    3       -0.0035034083
    2    2   10    3        0.0000003870
    2    2   11    3       -0.0000007691
    2    2   12    3       -0.0000001469
    2    2   13    3        0.0000003230
    2    2    4    4        0.1572630205
    2    2    5    4        0.0000004671
    2    2    6    4        0.0000003260
    2    2    7    4        0.0000004471
    2    2    8    4        0.0035034080
    2    2    9    4        0.0334573944
    2    2   10    4        0.0000000874
    2    2   11    4       -0.0000001738
    2    2   12    4       -0.0000000332
    2    2   13    4        0.0000000637
    2    2    5    5        0.1007395324
    2    2    6    5       -0.0293516896
    2    2    7    5        0.0000000000
    2    2    8    5        0.0000009325
    2    2    9    5        0.0000001103
    2    2   10    5        0.0223734391
    2    2   11    5        0.0003922067
    2    2   12    5       -0.0000675470
    2    2   13    5        0.0000000040
    2    2    6    6        0.1222334405
    2    2    7    6       -0.0000000000
    2    2    8    6        0.0000010575
    2    2    9    6        0.0000001253
    2    2   10    6       -0.0147318116
    2    2   11    6        0.0287737329
    2    2   12    6       -0.0163472709
    2    2   13    6        0.0000000612
    2    2    7    7        0.0823842334
    2    2    8    7       -0.0000000396
    2    2    9    7        0.0000003346
    2    2   10    7        0.0000000000
    2    2   11    7       -0.0000000000
    2    2   12    7        0.0000000001
    2    2   13    7       -0.0000008643
    2    2    8    8        0.0935298230
    2    2    9    8       -0.0000000003
    2    2   10    8        0.0000001607
    2    2   11    8        0.0000002120
    2    2   12    8       -0.0000001820
    2    2   13    8        0.0000146709
    2    2    9    9        0.0935298169
    2    2   10    9        0.0000000190
    2    2   11    9        0.0000000251
    2    2   12    9       -0.0000000239
    2    2   13    9       -0.0000028741
    2    2   10   10        0.0792594250
    2    2   11   10       -0.0075439283
    2    2   12   10        0.0037497018
    2    2   13   10       -0.0000000075
    2    2   11   11        0.0814643823
    2    2   12   11       -0.0120195001
    2    2   13   11        0.0000000456
    2    2   12   12        0.0758899556
    2    2   13   12        0.0000001099
    2    2   13   13        0.0976739333
    3    2    3    2        0.0281862071
    3    2    4    2        0.0000000000
    3    2    5    2       -0.0000022578
    3    2    6    2       -0.0000024091
    3    2    7    2        0.0000010831
    3    2    8    2        0.0113667163
    3    2    9    2       -0.0011902375
    3    2   10    2       -0.0000010079
    3    2   11    2       -0.0000012573
    3    2   12    2       -0.0000008293
    3    2   13    2       -0.0000003049
    3    2    3    3        0.0000012518
    3    2    4    3        0.0000003485
    3    2    5    3       -0.0009390361
    3    2    6    3       -0.0034358774
    3    2    7    3        0.0033182639
    3    2    8    3       -0.0000083295
    3    2    9    3       -0.0000008892
    3    2   10    3       -0.0015068777
    3    2   11    3       -0.0028913175
    3    2   12    3        0.0001263970
    3    2   13    3        0.0112701325
    3    2    4    4        0.0000012005
    3    2    5    4       -0.0000000005
    3    2    6    4       -0.0000000005
    3    2    7    4       -0.0069716796
    3    2    8    4       -0.0000027720
    3    2    9    4       -0.0000091045
    3    2   10    4       -0.0000000001
    3    2   11    4        0.0000000003
    3    2   12    4        0.0000000237
    3    2   13    4        0.0053646404
    3    2    5    5        0.0000512240
    3    2    6    5        0.0000458264
    3    2    7    5       -0.0000152353
    3    2    8    5        0.0098293511
    3    2    9    5       -0.0010292553
    3    2   10    5       -0.0000060452
    3    2   11    5       -0.0000031802
    3    2   12    5        0.0000262081
    3    2   13    5        0.0000083172
    3    2    6    6        0.0000506386
    3    2    7    6       -0.0000135516
    3    2    8    6       -0.0009908392
    3    2    9    6        0.0001037537
    3    2   10    6        0.0000169050
    3    2   11    6       -0.0000215664
    3    2   12    6        0.0000246235
    3    2   13    6       -0.0000120618
    3    2    7    7        0.0001174064
    3    2    8    7        0.0003598724
    3    2    9    7       -0.0010176528
    3    2   10    7       -0.0000035328
    3    2   11    7       -0.0000059220
    3    2   12    7        0.0000002414
    3    2   13    7       -0.0000026621
    3    2    8    8        0.0000474656
    3    2    9    8        0.0000110442
    3    2   10    8        0.0012921934
    3    2   11    8        0.0011918314
    3    2   12    8        0.0004370552
    3    2   13    8       -0.0046035815
    3    2    9    9        0.0000519192
    3    2   10    9       -0.0001353088
    3    2   11    9       -0.0001248004
    3    2   12    9       -0.0000457735
    3    2   13    9       -0.0016275677
    3    2   10   10        0.0000869768
    3    2   11   10       -0.0000031968
    3    2   12   10       -0.0000160307
    3    2   13   10       -0.0000015959
    3    2   11   11        0.0000944804
    3    2   12   11       -0.0000088177
    3    2   13   11        0.0000025655
    3    2   12   12        0.0000968961
    3    2   13   12       -0.0000008409
    3    2   13   13        0.0000056730
    4    2    4    2        0.0281862078
    4    2    5    2       -0.0000005099
    4    2    6    2       -0.0000005441
    4    2    7    2       -0.0000047959
    4    2    8    2        0.0011902374
    4    2    9    2        0.0113667157
    4    2   10    2       -0.0000002276
    4    2   11    2       -0.0000002840
    4    2   12    2       -0.0000001872
    4    2   13    2        0.0000000616
    4    2    3    3        0.0000008874
    4    2    4    3       -0.0000011901
    4    2    5    3       -0.0000000005
    4    2    6    3       -0.0000000005
    4    2    7    3       -0.0069716823
    4    2    8    3       -0.0000047556
    4    2    9    3        0.0000076627
    4    2   10    3       -0.0000000001
    4    2   11    3        0.0000000003
    4    2   12    3        0.0000000237
    4    2   13    3        0.0053646468
    4    2    4    4       -0.0000003366
    4    2    5    4       -0.0009390336
    4    2    6    4       -0.0034358753
    4    2    7    4       -0.0033182640
    4    2    8    4        0.0000076422
    4    2    9    4        0.0000008084
    4    2   10    4       -0.0015068771
    4    2   11    4       -0.0028913187
    4    2   12    4        0.0001262973
    4    2   13    4       -0.0112701357
    4    2    5    5        0.0000115686
    4    2    6    5        0.0000103496
    4    2    7    5        0.0000674593
    4    2    8    5        0.0010292565
    4    2    9    5        0.0098293471
    4    2   10    5       -0.0000013653
    4    2   11    5       -0.0000007183
    4    2   12    5        0.0000059176
    4    2   13    5       -0.0000006712
    4    2    6    6        0.0000114364
    4    2    7    6        0.0000600043
    4    2    8    6       -0.0001037529
    4    2    9    6       -0.0009908403
    4    2   10    6        0.0000038179
    4    2   11    6       -0.0000048706
    4    2   12    6        0.0000055630
    4    2   13    6        0.0000009572
    4    2    7    7        0.0000265155
    4    2    8    7       -0.0010176495
    4    2    9    7       -0.0003598728
    4    2   10    7        0.0000156428
    4    2   11    7        0.0000262216
    4    2   12    7       -0.0000010726
    4    2   13    7        0.0000045585
    4    2    8    8        0.0000229358
    4    2    9    8       -0.0000483972
    4    2   10    8        0.0001353088
    4    2   11    8        0.0001247993
    4    2   12    8        0.0000457606
    4    2   13    8       -0.0016276006
    4    2    9    9       -0.0000005153
    4    2   10    9        0.0012921937
    4    2   11    9        0.0011918346
    4    2   12    9        0.0004370919
    4    2   13    9        0.0046035800
    4    2   10   10        0.0000196432
    4    2   11   10       -0.0000007220
    4    2   12   10       -0.0000036202
    4    2   13   10        0.0000000725
    4    2   11   11        0.0000213378
    4    2   12   11       -0.0000019919
    4    2   13   11       -0.0000002294
    4    2   12   12        0.0000218836
    4    2   13   12        0.0000000169
    4    2   13   13        0.0000033030
    5    2    5    2        0.0089891917
    5    2    6    2       -0.0075186720
    5    2    7    2        0.0000000000
    5    2    8    2       -0.0000000617
    5    2    9    2       -0.0000000073
    5    2   10    2        0.0052431314
    5    2   11    2       -0.0009230766
    5    2   12    2        0.0005319280
    5    2   13    2       -0.0000000015
    5    2    3    3        0.0091233635
    5    2    4    3       -0.0000000005
    5    2    5    3        0.0000029746
    5    2    6    3        0.0000018636
    5    2    7    3       -0.0000006343
    5    2    8    3        0.0078815655
    5    2    9    3       -0.0008252979
    5    2   10    3        0.0000010846
    5    2   11    3        0.0000016332
    5    2   12    3       -0.0000002997
    5    2   13    3        0.0000043230
    5    2    4    4        0.0091233660
    5    2    5    4        0.0000006718
    5    2    6    4        0.0000004209
    5    2    7    4        0.0000028086
    5    2    8    4        0.0008252988
    5    2    9    4        0.0078815621
    5    2   10    4        0.0000002450
    5    2   11    4        0.0000003688
    5    2   12    4       -0.0000000689
    5    2   13    4       -0.0000013069
    5    2    5    5        0.0005947759
    5    2    6    5       -0.0023626822
    5    2    7    5       -0.0000000000
    5    2    8    5       -0.0000043036
    5    2    9    5       -0.0000005093
    5    2   10    5        0.0039018940
    5    2   11    5       -0.0030678720
    5    2   12    5        0.0017533323
    5    2   13    5       -0.0000000035
    5    2    6    6        0.0039877249
    5    2    7    6       -0.0000000000
    5    2    8    6       -0.0000016303
    5    2    9    6       -0.0000001929
    5    2   10    6       -0.0021321318
    5    2   11    6        0.0016487101
    5    2   12    6       -0.0047203378
    5    2   13    6        0.0000000226
    5    2    7    7       -0.0013899182
    5    2    8    7        0.0000000979
    5    2    9    7       -0.0000008270
    5    2   10    7       -0.0000000000
    5    2   11    7        0.0000000000
    5    2   12    7        0.0000000000
    5    2   13    7       -0.0000003501
    5    2    8    8        0.0018762969
    5    2    9    8       -0.0000000008
    5    2   10    8        0.0000012919
    5    2   11    8       -0.0000002272
    5    2   12    8       -0.0000015738
    5    2   13    8        0.0000046852
    5    2    9    9        0.0018763029
    5    2   10    9        0.0000001529
    5    2   11    9       -0.0000000269
    5    2   12    9       -0.0000001862
    5    2   13    9        0.0000006619
    5    2   10   10        0.0027695906
    5    2   11   10       -0.0010311905
    5    2   12   10        0.0012836031
    5    2   13   10       -0.0000000004
    5    2   11   11        0.0018980582
    5    2   12   11       -0.0000336026
    5    2   13   11       -0.0000000054
    5    2   12   12        0.0015713358
    5    2   13   12       -0.0000000088
    5    2   13   13       -0.0011899965
    6    2    6    2        0.0166221249
    6    2    7    2       -0.0000000000
    6    2    8    2       -0.0000000396
    6    2    9    2       -0.0000000046
    6    2   10    2       -0.0054949083
    6    2   11    2        0.0083555325
    6    2   12    2       -0.0058679485
    6    2   13    2        0.0000000209
    6    2    3    3        0.0070677480
    6    2    4    3       -0.0000000006
    6    2    5    3        0.0000025366
    6    2    6    3        0.0000020430
    6    2    7    3       -0.0000006433
    6    2    8    3       -0.0012221303
    6    2    9    3        0.0001279728
    6    2   10    3        0.0000013802
    6    2   11    3        0.0000012443
    6    2   12    3       -0.0000003675
    6    2   13    3       -0.0000125795
    6    2    4    4        0.0070677504
    6    2    5    4        0.0000005729
    6    2    6    4        0.0000004614
    6    2    7    4        0.0000028486
    6    2    8    4       -0.0001279720
    6    2    9    4       -0.0012221318
    6    2   10    4        0.0000003117
    6    2   11    4        0.0000002810
    6    2   12    4       -0.0000000815
    6    2   13    4        0.0000000631
    6    2    5    5        0.0052657621
    6    2    6    5       -0.0032932527
    6    2    7    5        0.0000000000
    6    2    8    5       -0.0000041977
    6    2    9    5       -0.0000004967
    6    2   10    5       -0.0011194105
    6    2   11    5        0.0023991904
    6    2   12    5       -0.0024542823
    6    2   13    5        0.0000000086
    6    2    6    6        0.0071948888
    6    2    7    6       -0.0000000000
    6    2    8    6       -0.0000016492
    6    2    9    6       -0.0000001951
    6    2   10    6       -0.0017896727
    6    2   11    6        0.0042983216
    6    2   12    6        0.0019907178
    6    2   13    6       -0.0000000005
    6    2    7    7        0.0025096816
    6    2    8    7        0.0000000681
    6    2    9    7       -0.0000005752
    6    2   10    7        0.0000000000
    6    2   11    7       -0.0000000000
    6    2   12    7       -0.0000000000
    6    2   13    7        0.0000003798
    6    2    8    8        0.0029920688
    6    2    9    8       -0.0000000009
    6    2   10    8        0.0000009564
    6    2   11    8        0.0000000661
    6    2   12    8       -0.0000014751
    6    2   13    8        0.0000075958
    6    2    9    9        0.0029920757
    6    2   10    9        0.0000001132
    6    2   11    9        0.0000000078
    6    2   12    9       -0.0000001750
    6    2   13    9        0.0000000009
    6    2   10   10       -0.0005538100
    6    2   11   10       -0.0003747593
    6    2   12   10       -0.0005740451
    6    2   13   10        0.0000000049
    6    2   11   11        0.0023667002
    6    2   12   11       -0.0028686149
    6    2   13   11        0.0000000087
    6    2   12   12        0.0007162896
    6    2   13   12        0.0000000210
    6    2   13   13        0.0042773298
    7    2    7    2        0.0010971526
    7    2    8    2        0.0000000634
    7    2    9    2       -0.0000005354
    7    2   10    2        0.0000000000
    7    2   11    2       -0.0000000000
    7    2   12    2        0.0000000000
    7    2   13    2       -0.0000000553
    7    2    3    3        0.0011384744
    7    2    4    3       -0.0023919380
    7    2    5    3       -0.0000009670
    7    2    6    3       -0.0000006911
    7    2    7    3        0.0000052563
    7    2    8    3        0.0002698994
[...]
   10    7   10   10        0.0000000000
   10    7   11   10        0.0000000000
   10    7   12   10        0.0000000000
   10    7   13   10       -0.0000001979
   10    7   11   11        0.0000000000
   10    7   12   11       -0.0000000000
   10    7   13   11       -0.0000000792
   10    7   12   12       -0.0000000000
   10    7   13   12        0.0000002017
   10    7   13   13        0.0000000217
   11    7   11    7        0.0048524356
   11    7   12    7       -0.0006988705
   11    7   13    7        0.0000000501
   11    7    8    8        0.0002048632
   11    7    9    8       -0.0008534952
   11    7   10    8        0.0000014214
   11    7   11    8       -0.0000024178
   11    7   12    8       -0.0000011778
   11    7   13    8       -0.0000063330
   11    7    9    9       -0.0002048636
   11    7   10    9       -0.0000120120
   11    7   11    9        0.0000204321
   11    7   12    9        0.0000099496
   11    7   13    9        0.0000457273
   11    7   10   10       -0.0000000000
   11    7   11   10        0.0000000000
   11    7   12   10        0.0000000000
   11    7   13   10       -0.0000003563
   11    7   11   11       -0.0000000000
   11    7   12   11       -0.0000000000
   11    7   13   11        0.0000001128
   11    7   12   12        0.0000000000
   11    7   13   12       -0.0000000373
   11    7   13   13        0.0000000032
   12    7   12    7        0.0015724274
   12    7   13    7        0.0000000080
   12    7    8    8        0.0000455179
   12    7    9    8       -0.0001896320
   12    7   10    8        0.0000002993
   12    7   11    8       -0.0000008072
   12    7   12    8       -0.0000019671
   12    7   13    8       -0.0000010363
   12    7    9    9       -0.0000455179
   12    7   10    9       -0.0000025271
   12    7   11    9        0.0000068194
   12    7   12    9        0.0000166234
   12    7   13    9        0.0000115190
   12    7   10   10        0.0000000000
   12    7   11   10        0.0000000000
   12    7   12   10       -0.0000000000
   12    7   13   10        0.0000002435
   12    7   11   11        0.0000000000
   12    7   12   11        0.0000000000
   12    7   13   11       -0.0000000677
   12    7   12   12        0.0000000000
   12    7   13   12       -0.0000000384
   12    7   13   13       -0.0000000007
   13    7   13    7        0.0020257191
   13    7    8    8        0.0000000184
   13    7    9    8       -0.0000000615
   13    7   10    8        0.0000008984
   13    7   11    8       -0.0000008280
   13    7   12    8       -0.0000017694
   13    7   13    8        0.0000014982
   13    7    9    9        0.0000000232
   13    7   10    9       -0.0000038042
   13    7   11    9        0.0000023718
   13    7   12    9        0.0000122295
   13    7   13    9        0.0000076440
   13    7   10   10       -0.0000004035
   13    7   11   10       -0.0000000062
   13    7   12   10        0.0000000711
   13    7   13   10        0.0000000098
   13    7   11   11       -0.0000005186
   13    7   12   11       -0.0000001856
   13    7   13   11       -0.0000000026
   13    7   12   12       -0.0000003793
   13    7   13   12        0.0000000111
   13    7   13   13       -0.0000002772
    8    8    8    8        0.0838977663
    8    8    9    8        0.0014082137
    8    8   10    8       -0.0000588366
    8    8   11    8       -0.0000220835
    8    8   12    8        0.0000954959
    8    8   13    8       -0.0000960397
    8    8    9    9        0.0688556689
    8    8   10    9       -0.0000140094
    8    8   11    9       -0.0000027803
    8    8   12    9        0.0000193624
    8    8   13    9        0.0000111494
    8    8   10   10        0.0667212452
    8    8   11   10       -0.0028797612
    8    8   12   10       -0.0003992028
    8    8   13   10        0.0003968738
    8    8   11   11        0.0638034482
    8    8   12   11       -0.0051797953
    8    8   13   11       -0.0022035059
    8    8   12   12        0.0653898612
    8    8   13   12       -0.0016793497
    8    8   13   13        0.0802456165
    9    8    9    8        0.0019921575
    9    8   10    8       -0.0000106038
    9    8   11    8       -0.0000052328
    9    8   12    8        0.0000188998
    9    8   13    8        0.0000123526
    9    8    9    9       -0.0014082124
    9    8   10    9        0.0000280995
    9    8   11    9        0.0000001019
    9    8   12    9       -0.0000313361
    9    8   13    9       -0.0000989763
    9    8   10   10        0.0000001235
    9    8   11   10        0.0000000338
    9    8   12   10       -0.0000000800
    9    8   13   10        0.0000954492
    9    8   11   11        0.0000001931
    9    8   12   11       -0.0000001371
    9    8   13   11       -0.0005289634
    9    8   12   12        0.0000002888
    9    8   13   12       -0.0004031288
    9    8   13   13       -0.0000000278
   10    8   10    8        0.0040524829
   10    8   11    8       -0.0006047683
   10    8   12    8       -0.0005126725
   10    8   13    8        0.0031610813
   10    8    9    9       -0.0000007409
   10    8   10    9        0.0000000420
   10    8   11    9        0.0000000150
   10    8   12    9       -0.0000000383
   10    8   13    9        0.0007588097
   10    8   10   10       -0.0000602873
   10    8   11   10       -0.0000188804
   10    8   12   10        0.0000254183
   10    8   13   10       -0.0000206612
   10    8   11   11       -0.0000371982
   10    8   12   11        0.0000110579
   10    8   13   11        0.0000040645
   10    8   12   12       -0.0000615521
   10    8   13   12        0.0000100110
   10    8   13   13        0.0000037460
   11    8   11    8        0.0025654937
   11    8   12    8        0.0001018747
   11    8   13    8       -0.0017429171
   11    8    9    9        0.0000208169
   11    8   10    9        0.0000000150
   11    8   11    9        0.0000000564
   11    8   12    9       -0.0000000491
   11    8   13    9       -0.0004183489
   11    8   10   10       -0.0000194024
   11    8   11   10       -0.0000027756
   11    8   12   10       -0.0000037764
   11    8   13   10        0.0000064241
   11    8   11   11       -0.0000597374
   11    8   12   11       -0.0000068060
   11    8   13   11       -0.0000115489
   11    8   12   12       -0.0000248235
   11    8   13   12        0.0000021008
   11    8   13   13       -0.0000040995
   12    8   12    8        0.0039284731
   12    8   13    8       -0.0028637779
   12    8    9    9       -0.0000273918
   12    8   10    9       -0.0000000383
   12    8   11    9       -0.0000000490
   12    8   12    9        0.0000001217
   12    8   13    9       -0.0006874090
   12    8   10   10        0.0000535076
   12    8   11   10       -0.0000013846
   12    8   12   10       -0.0000276387
   12    8   13   10       -0.0000011222
   12    8   11   11        0.0000384065
   12    8   12   11       -0.0000363042
   12    8   13   11       -0.0000102169
   12    8   12   12        0.0001024708
   12    8   13   12       -0.0000360411
   12    8   13   13        0.0000035951
   13    8   13    8        0.0121761021
   13    8    9    9       -0.0000927108
   13    8   10    9        0.0007588227
   13    8   11    9       -0.0004183484
   13    8   12    9       -0.0006874237
   13    8   13    9       -0.0000000531
   13    8   10   10       -0.0001654610
   13    8   11   10       -0.0000009585
   13    8   12   10        0.0000406311
   13    8   13   10        0.0000065470
   13    8   11   11       -0.0001660526
   13    8   12   11        0.0000309360
   13    8   13   11       -0.0000068788
   13    8   12   12       -0.0002042170
   13    8   13   12        0.0000046602
   13    8   13   13        0.0000036064
    9    9    9    9        0.0838977595
    9    9   10    9        0.0000069758
    9    9   11    9        0.0000026214
    9    9   12    9       -0.0000113204
    9    9   13    9       -0.0000376497
    9    9   10   10        0.0667202184
    9    9   11   10       -0.0028800426
    9    9   12   10       -0.0003985374
    9    9   13   10       -0.0003969831
    9    9   11   11        0.0638018425
    9    9   12   11       -0.0051786523
    9    9   13   11        0.0022036881
    9    9   12   12        0.0653874584
    9    9   13   12        0.0016794273
    9    9   13   13        0.0802455565
   10    9   10    9        0.0040521330
   10    9   11    9       -0.0006048933
   10    9   12    9       -0.0005123534
   10    9   13    9       -0.0031610933
   10    9   10   10       -0.0000071340
   10    9   11   10       -0.0000022342
   10    9   12   10        0.0000030078
   10    9   13   10       -0.0000024169
   10    9   11   11       -0.0000044018
   10    9   12   11        0.0000013087
   10    9   13   11        0.0000007895
   10    9   12   12       -0.0000072842
   10    9   13   12        0.0000006926
   10    9   13   13        0.0000016230
   11    9   11    9        0.0025650241
   11    9   12    9        0.0001022836
   11    9   13    9        0.0017429328
   11    9   10   10       -0.0000022960
   11    9   11   10       -0.0000003285
   11    9   12   10       -0.0000004470
   11    9   13   10        0.0000005613
   11    9   11   11       -0.0000070689
   11    9   12   11       -0.0000008052
   11    9   13   11       -0.0000010365
   11    9   12   12       -0.0000029369
   11    9   13   12        0.0000007760
   11    9   13   13       -0.0000018600
   12    9   12    9        0.0039274606
   12    9   13    9        0.0028638481
   12    9   10   10        0.0000063314
   12    9   11   10       -0.0000001638
   12    9   12   10       -0.0000032705
   12    9   13   10        0.0000002611
   12    9   11   11        0.0000045447
   12    9   12   11       -0.0000042956
   12    9   13   11       -0.0000013362
   12    9   12   12        0.0000121261
   12    9   13   12       -0.0000037342
   12    9   13   13        0.0000016267
   13    9   13    9        0.0121760120
   13    9   10   10       -0.0000202405
   13    9   11   10        0.0000000412
   13    9   12   10        0.0000046022
   13    9   13   10        0.0000028521
   13    9   11   11       -0.0000198189
   13    9   12   11        0.0000044336
   13    9   13   11       -0.0000030733
   13    9   12   12       -0.0000243901
   13    9   13   12        0.0000021018
   13    9   13   13       -0.0000006736
   10   10   10   10        0.0642081112
   10   10   11   10       -0.0018536648
   10   10   12   10       -0.0004201961
   10   10   13   10       -0.0000000635
   10   10   11   11        0.0616396037
   10   10   12   11       -0.0024706955
   10   10   13   11        0.0000001638
   10   10   12   12        0.0616889289
   10   10   13   12       -0.0000001955
   10   10   13   13        0.0694359815
   11   10   11   10        0.0026235964
   11   10   12   10       -0.0005169356
   11   10   13   10        0.0000001244
   11   10   11   11       -0.0024232685
   11   10   12   11        0.0010876990
   11   10   13   11       -0.0000000253
   11   10   12   12       -0.0020632489
   11   10   13   12       -0.0000000294
   11   10   13   13       -0.0027505335
   12   10   12   10        0.0024829984
   12   10   13   10       -0.0000000935
   12   10   11   11        0.0011421453
   12   10   12   11        0.0005489188
   12   10   13   11        0.0000000327
   12   10   12   12       -0.0005556624
   12   10   13   12        0.0000001716
   12   10   13   13       -0.0004882596
   13   10   13   10        0.0026824143
   13   10   11   11       -0.0000003237
   13   10   12   11        0.0000000384
   13   10   13   11        0.0003264527
   13   10   12   12       -0.0000001479
   13   10   13   12        0.0001042308
   13   10   13   13       -0.0000000065
   11   11   11   11        0.0677202760
   11   11   12   11       -0.0001762812
   11   11   13   11        0.0000004244
   11   11   12   12        0.0610990777
   11   11   13   12       -0.0000001903
   11   11   13   13        0.0674097885
   12   11   12   11        0.0043340370
   12   11   13   11       -0.0000000060
   12   11   12   12       -0.0021027057
   12   11   13   12        0.0000003104
   12   11   13   13       -0.0051652501
   13   11   13   11        0.0020614962
   13   11   12   12        0.0000001319
   13   11   13   12        0.0005591433
   13   11   13   13        0.0000000225
   12   12   12   12        0.0657320695
   12   12   13   12       -0.0000006672
   12   12   13   13        0.0675809712
   13   12   13   12        0.0017376927
   13   12   13   13        0.0000001032
   13   13   13   13        0.0924834960
 end_two_electron_integrals


 output epsi filename:./pspw_hf_LiH.emovecs

 Total PSPW energy     :  -0.6086385638E+00


=== Spin Contamination ===

 <Sexact^2> =    0.0000000000000000     
 <S^2>      =    0.0000000000000000     



== Center of Charge ==

spin up     (    0.0000,    0.0000,    5.5908 )
spin down   (    0.0000,    0.0000,    5.5908 )
     total  (    0.0000,    0.0000,    5.5908 )
ionic       (    0.0000,    0.0000,    2.3622 )


== Molecular Dipole wrt Center of Mass ==

mu   =  (   -0.0000,   -0.0000,   -6.4572 ) au
|mu| =     6.4572 au,      16.4116 Debye

 output psi filename:./pspw_hf_LiH.movecs

 Writing Crystallographic Information File:./LiH.cif
   - cell not shifted (nwpw:cif_shift_cell .false.)


== Timing ==

cputime in seconds
  prologue    :   0.892930E+02
  main loop   :   0.157567E+04
  epilogue    :   0.788030E-01
  total       :   0.166505E+04
  cputime/step:   0.703426E+01       (     224 evalulations,      96 linesearches)


Time spent doing                        total          step       percent
  total time                 :   0.166506E+04  0.743329E+01       100.0 %
  i/o time                   :   0.168275E+01  0.751226E-02         0.1 %
  FFTs                       :   0.130302E+04  0.581706E+01        78.3 %
  dot products               :   0.961028E+01  0.429030E-01         0.6 %
  geodesic                   :   0.165026E+00  0.736722E-03         0.0 %
  ffm_dgemm                  :   0.400194E-01  0.178658E-03         0.0 %
  fmf_dgemm                  :   0.680464E-01  0.303778E-03         0.0 %
  mmm_dgemm                  :   0.532102E-02  0.237545E-04         0.0 %
  m_diagonalize              :   0.213647E-02  0.953779E-05         0.0 %
  local pseudopotentials     :   0.588921E-02  0.262911E-04         0.0 %
  non-local pseudopotentials :   0.552731E+01  0.246755E-01         0.3 %
  structure factors          :   0.103673E+01  0.462827E-02         0.1 %
  phase factors              :   0.254560E-04  0.113643E-06         0.0 %
  masking and packing        :   0.272416E+02  0.121614E+00         1.6 %
  queue fft                  :   0.261034E+01  0.116533E-01         0.2 %
  queue fft (serial)         :   0.950189E+00  0.424192E-02         0.1 %
  queue fft (message passing):   0.155571E+01  0.694514E-02         0.1 %
  HFX potential              :   0.131977E+04  0.589184E+01        79.3 %
  non-local psp FFM          :   0.441574E+01  0.197131E-01         0.3 %
  non-local psp FMF          :   0.260922E+00  0.116483E-02         0.0 %
  non-local psp FFM A        :   0.517295E+00  0.230935E-02         0.0 %
  non-local psp FFM B        :   0.432964E+00  0.193288E-02         0.0 %

== HFX Counters ==
  HFX Evalulations         =   224
  Lin ACE HFX Evalulations =     0


     >>>  JOB COMPLETED     AT Sun May  4 22:15:10 2025  <<<

 Task  times  cpu:     1558.2s     wall:     1665.1s


                                NWChem Input Module
                                -------------------


 Summary of allocated global arrays
-----------------------------------
  No active global arrays


MA_summarize_allocated_blocks: starting scan ...
MA_summarize_allocated_blocks: scan completed: 0 heap blocks, 0 stack blocks
MA usage statistics:

	allocation statistics:
					      heap	     stack
					      ----	     -----
	current number of blocks	         0	         0
	maximum number of blocks	       315	        19
	current total bytes		         0	         0
	maximum total bytes		 125579648	  29398984
	maximum total K-bytes		    125580	     29399
	maximum total M-bytes		       126	        30


                                     CITATION
                                     --------
                Please cite the following reference when publishing
                           results obtained with NWChem:

          E. Apra, E. J. Bylaska, W. A. de Jong, N. Govind, K. Kowalski,
       T. P. Straatsma, M. Valiev, H. J. J. van Dam, Y. Alexeev, J. Anchell,
       V. Anisimov, F. W. Aquino, R. Atta-Fynn, J. Autschbach, N. P. Bauman,
     J. C. Becca, D. E. Bernholdt, K. Bhaskaran-Nair, S. Bogatko, P. Borowski,
         J. Boschen, J. Brabec, A. Bruner, E. Cauet, Y. Chen, G. N. Chuev,
      C. J. Cramer, J. Daily, M. J. O. Deegan, T. H. Dunning Jr., M. Dupuis,
   K. G. Dyall, G. I. Fann, S. A. Fischer, A. Fonari, H. Fruchtl, L. Gagliardi,
      J. Garza, N. Gawande, S. Ghosh, K. Glaesemann, A. W. Gotz, J. Hammond,
       V. Helms, E. D. Hermes, K. Hirao, S. Hirata, M. Jacquelin, L. Jensen,
   B. G. Johnson, H. Jonsson, R. A. Kendall, M. Klemm, R. Kobayashi, V. Konkov,
      S. Krishnamoorthy, M. Krishnan, Z. Lin, R. D. Lins, R. J. Littlefield,
      A. J. Logsdail, K. Lopata, W. Ma, A. V. Marenich, J. Martin del Campo,
   D. Mejia-Rodriguez, J. E. Moore, J. M. Mullin, T. Nakajima, D. R. Nascimento,
    J. A. Nichols, P. J. Nichols, J. Nieplocha, A. Otero-de-la-Roza, B. Palmer,
    A. Panyala, T. Pirojsirikul, B. Peng, R. Peverati, J. Pittner, L. Pollack,
   R. M. Richard, P. Sadayappan, G. C. Schatz, W. A. Shelton, D. W. Silverstein,
   D. M. A. Smith, T. A. Soares, D. Song, M. Swart, H. L. Taylor, G. S. Thomas,
            V. Tipparaju, D. G. Truhlar, K. Tsemekhman, T. Van Voorhis,
      A. Vazquez-Mayagoitia, P. Verma, O. Villa, A. Vishnu, K. D. Vogiatzis,
        D. Wang, J. H. Weare, M. J. Williamson, T. L. Windus, K. Wolinski,
        A. T. Wong, Q. Wu, C. Yang, Q. Yu, M. Zacharias, Z. Zhang, Y. Zhao,
                                and R. J. Harrison
                        "NWChem: Past, present, and future
                         J. Chem. Phys. 152, 184102 (2020)
                               doi:10.1063/5.0004997

                                      AUTHORS
                                      -------
  E. Apra, E. J. Bylaska, N. Govind, K. Kowalski, M. Valiev, D. Mejia-Rodriguez,
       A. Kunitsa, N. P. Bauman, A. Panyala, W. A. de Jong, T. P. Straatsma,
   H. J. J. van Dam, D. Wang, T. L. Windus, J. Hammond, J. Autschbach, A. Woods,
    K. Bhaskaran-Nair, J. Brabec, K. Lopata, S. A. Fischer, S. Krishnamoorthy,
     M. Jacquelin, W. Ma, M. Klemm, O. Villa, Y. Chen, V. Anisimov, F. Aquino,
     S. Hirata, M. T. Hackler, E. Hermes, L. Jensen, J. E. Moore, J. C. Becca,
      V. Konjkov, T. Risthaus, M. Malagoli, A. Marenich, A. Otero-de-la-Roza,
        J. Mullin, P. Nichols, R. Peverati, J. Pittner, Y. Zhao, P.-D. Fan,
        A. Fonari, M. J. Williamson, R. J. Harrison, J. R. Rehr, M. Dupuis,
     D. Silverstein, D. M. A. Smith, J. Nieplocha, V. Tipparaju, M. Krishnan,
     B. E. Van Kuiken, A. Vazquez-Mayagoitia, M. Swart, Q. Wu, T. Van Voorhis,
     A. A. Auer, M. Nooijen, L. D. Crosby, E. Brown, G. Cisneros, G. I. Fann,
   H. Fruchtl, J. Garza, K. Hirao, R. A. Kendall, J. A. Nichols, K. Tsemekhman,
    K. Wolinski, J. Anchell, D. E. Bernholdt, P. Borowski, T. Clark, D. Clerc,
   H. Dachsel, M. J. O. Deegan, K. Dyall, D. Elwood, E. Glendening, M. Gutowski,
   A. C. Hess, J. Jaffe, B. G. Johnson, J. Ju, R. Kobayashi, R. Kutteh, Z. Lin,
   R. Littlefield, X. Long, B. Meng, T. Nakajima, S. Niu, L. Pollack, M. Rosing,
   K. Glaesemann, G. Sandrone, M. Stave, H. Taylor, G. Thomas, J. H. van Lenthe,
                               A. T. Wong, Z. Zhang.

 Total times  cpu:     1558.2s     wall:     1665.1s
