 argument  1 = ../data/PW_LiH_data/3x3_aperiodic/NWChem/12nocovo/H1Li1-2.5.nw



============================== echo of input deck ==============================
title "swnc: e theory=pspw4 xc=pbe formula=LiH charge=0 mult=1"
#machinejob:expert

echo

start pspw_hf_LiH

memory heap 1200 mb stack 2400 mb global 400 mb

charge 0

geometry
Li    0.00000    0.00000   -1.25000
H     0.00000    0.00000    1.25000
end

nwpw
  ### pseudopotential block begin ###
  ### pseudopotential block end   ###
  simulation_cell
     SC 28.345889835
     boundary_conditions aperiodic
  end

  cutoff 50.0
  mult 1
  xc hf
  lmbfgs
  tolerances 1.0e-9 1.0e-9

  virtual 12
end
set nwpw:cif_filename LiH

#set nwpw:CI_maxit_orb 15
#set nwpw:CI_maxit_linesearch 15

set nwpw:2qintegrals .true.
#set nwpw:3x3_virtual .true.

task pspw energy
================================================================================


                                         
                                         


             Northwest Computational Chemistry Package (NWChem) 7.2.3
             --------------------------------------------------------


                    Environmental Molecular Sciences Laboratory
                       Pacific Northwest National Laboratory
                                Richland, WA 99352

                              Copyright (c) 1994-2022
                       Pacific Northwest National Laboratory
                            Battelle Memorial Institute

             NWChem is an open-source computational chemistry package
                        distributed under the terms of the
                      Educational Community License (ECL) 2.0
             A copy of the license is included with this distribution
                              in the LICENSE.TXT file

                                  ACKNOWLEDGMENT
                                  --------------

            This software and its documentation were developed at the
            EMSL at Pacific Northwest National Laboratory, a multiprogram
            national laboratory, operated for the U.S. Department of Energy
            by Battelle under Contract Number DE-AC05-76RL01830. Support
            for this work was provided by the Department of Energy Office
            of Biological and Environmental Research, Office of Basic
            Energy Sciences, and the Office of Advanced Scientific Computing.


           Job information
           ---------------

    hostname        = mqs-al
    program         = nwchem
    date            = Sun May  4 19:42:01 2025

    compiled        = Thu_Oct_31_08:55:15_2024
    source          = /home/conda/feedstock_root/build_artifacts/nwchem_1730356057992/work
    nwchem branch   = 7.2.3
    nwchem revision = c400b04
    ga revision     = 5.8.0
    use scalapack   = T
    input           = ../data/PW_LiH_data/3x3_aperiodic/NWChem/12nocovo/H1Li1-2.5.nw
    prefix          = pspw_hf_LiH.
    data base       = ./pspw_hf_LiH.db
    status          = startup
    nproc           =       24
    time left       =     -1s



           Memory information
           ------------------

    heap     =  157286396 doubles =   1200.0 Mbytes
    stack    =  314572801 doubles =   2400.0 Mbytes
    global   =   52428800 doubles =    400.0 Mbytes (distinct from heap & stack)
    total    =  524287997 doubles =   4000.0 Mbytes
    verify   = yes
    hardfail = no 


           Directory information
           ---------------------

  0 permanent = .
  0 scratch   = .




                                NWChem Input Module
                                -------------------


              swnc: e theory=pspw4 xc=pbe formula=LiH charge=0 mult=1
              -------------------------------------------------------

 Scaling coordinates for geometry "geometry" by  1.889725989
 (inverse scale =  0.529177249)

  zeroes
  zeroes
  zeroes
  zeroes
  zeroes
  zeroes
  zeroes
  zeroes
  zeroes
  zeroes
  zeroes
  zeroes
  zeroes
  zeroes
  zeroes
  zeroes
  zeroes
  zeroes
  zeroes
  zeroes
  zeroes
  zeroes
  zeroes
  zeroes
  zeroes
  zeroes
  zeroes
  zeroes
  zeroes
  zeroes
  zeroes
  zeroes
  zeroes
  zeroes
  zeroes
  zeroes
  zeroes
  zeroes
  zeroes
  zeroes
  zeroes
  zeroes
  zeroes
  zeroes
  zeroes
  zeroes
  zeroes
  zeroes
 ORDER OF PRIMARY AXIS IS BEING SET TO 4
 C4V symmetry detected

          ------
          auto-z
          ------
     1 autoz failed with cvr_scaling = 1.2 changing to 1.3
     2 autoz failed with cvr_scaling = 1.3 changing to 1.4
     3 autoz failed with cvr_scaling = 1.4 changing to 1.5
  no constraints, skipping    0.0000000000000000     
  no constraints, skipping    0.0000000000000000     


                             Geometry "geometry" -> ""
                             -------------------------

 Output coordinates in angstroms (scale by  1.889725989 to convert to a.u.)

  No.       Tag          Charge          X              Y              Z
 ---- ---------------- ---------- -------------- -------------- --------------
    1 Li                   3.0000     0.00000000     0.00000000    -0.62500000
    2 H                    1.0000     0.00000000     0.00000000     1.87500000

      Atomic Mass 
      ----------- 

      Li                 7.016000
      H                  1.007825


 Effective nuclear repulsion energy (a.u.)       0.6350126988

            Nuclear Dipole moment (a.u.) 
            ----------------------------
        X                 Y               Z
 ---------------- ---------------- ----------------
     0.0000000000     0.0000000000     0.0000000000

      Symmetry information
      --------------------

 Group name             C4v       
 Group number             18
 Group order               8
 No. of unique centers     2

      Symmetry unique atoms

     1    2



                                Z-matrix (autoz)
                                -------- 

 Units are Angstrom for bonds and degrees for angles

      Type          Name      I     J     K     L     M      Value
      ----------- --------  ----- ----- ----- ----- ----- ----------
    1 Stretch                  1     2                       2.50000


            XYZ format geometry
            -------------------
     2
 geometry
 Li                    0.00000000     0.00000000    -0.62500000
 H                     0.00000000     0.00000000     1.87500000

          ****************************************************
          *                                                  *
          *               NWPW PSPW Calculation              *
          *                                                  *
          * [ (Grassmann/Stiefel manifold implementation)  ] *
          *                                                  *
          *      [ NorthWest Chemistry implementation ]      *
          *                                                  *
          *            version #5.10   06/12/02              *
          *                                                  *
          *    This code was developed by Eric J. Bylaska,   *
          *    and was based upon algorithms and code        *
          *    developed by the group of Prof. John H. Weare *
          *                                                  *
          ****************************************************
     >>>  JOB STARTED       AT Sun May  4 19:42:01 2025  <<<
          ================ input data ========================

 input psi filename:./pspw_hf_LiH.movecs

 number of processors used:        24
 processor grid           :  24 x   1
 parallel mapping         :2d-hilbert
 parallel mapping         :  balanced
 number of threads        :         1
 parallel io              :       off

 options:
      boundary conditions  = aperiodic   (version4)
      electron spin        = restricted
      exchange-correlation = Hartree-Fock
      - HFX relaxed
      - HFX restricted orbitals :    1
      - HFX free-space coulomb solver


 elements involved in the cluster:
      1: Li  valence charge:  1.0000  lmax=  1
             comment    : Hamann pseudopotential
             pseudpotential type            :   0
             highest angular component      :   1
             local potential used           :   1
             number of non-local projections:   1
             aperiodic cutoff radius        :  1.000
             semicore corrections included  :  1.000 (radius)  0.769 (charge)
             cutoff =   1.869   1.551

      2: H   valence charge:  1.0000  lmax=  1
             comment    : Parameterized (Chem.Phys.Lett., vol 322, page 447) Hamman psp
             pseudpotential type            :   0
             highest angular component      :   1
             local potential used           :   1
             number of non-local projections:   1
             aperiodic cutoff radius        :  1.000
             cutoff =   0.800   0.800


 total charge:   0.000

 atomic composition:
     Li  :    1     H   :    1

 number of electrons: spin up=     1 (   1 per task)  down=     1 (   1 per task) (Fourier space)
 number of orbitals : spin up=     1 (   1 per task)  down=     1 (   1 per task) (Fourier space)

 supercell:
      cell_name:  cell_default                                      
      lattice:    a1=<  28.346   0.000   0.000 >
                  a2=<   0.000  28.346   0.000 >
                  a3=<   0.000   0.000  28.346 >
      reciprocal: b1=<   0.222   0.000   0.000 >
                  b2=<   0.000   0.222   0.000 >
                  b3=<   0.000   0.000   0.222 >
      lattice:    a=      28.346 b=     28.346 c=      28.346
                  alpha=  90.000 beta=  90.000 gamma=  90.000
                  omega=     22775.6

      density cutoff=100.000  fft=140x140x140(   544264 waves    22677 per task)
      wavefnc cutoff= 50.000  fft=140x140x140(   192294 waves     8012 per task)

 technical parameters:
      time step=      5.80     fictitious mass=  400000.0
      tolerance=0.100E-08 (energy)   0.100E-08 (density)
      maximum iterations =      1000 (   10 inner    100 outer )





== Energy Calculation ==


          ============ Grassmann lmbfgs iteration ============
     >>>  ITERATION STARTED AT Sun May  4 19:43:30 2025  <<<
    iter.           Energy         DeltaE       DeltaRho 
    ------------------------------------------------------
      10   -0.7007142446E+00   -0.19020E-02    0.17244E-01
     -  10 steepest descent iterations performed
      20   -0.7065612089E+00   -0.14404E-03    0.13507E-03
      30   -0.7068835919E+00   -0.95159E-05    0.71940E-05
      40   -0.7069156640E+00   -0.80132E-06    0.36161E-06
      50   -0.7069186858E+00   -0.71911E-07    0.12175E-07
      60   -0.7069189685E+00   -0.10747E-07    0.64145E-09
      70   -0.7069190134E+00   -0.18233E-08    0.12461E-09
      80   -0.7069190178E+00   -0.78705E-09    0.14336E-10
  *** tolerance ok. iteration terminated
     >>>  ITERATION ENDED   AT Sun May  4 19:45:03 2025  <<<


==  Summary Of Results  ==

 number of electrons: spin up=    1.00000  down=    1.00000 (real space)

 total     energy    :  -0.7069190178E+00 (   -0.35346E+00/ion)
 total orbital energy:  -0.5052729718E+00 (   -0.50527E+00/electron)
 hartree   energy    :   0.8266338913E+00 (    0.82663E+00/electron)
 exc-corr  energy    :   0.0000000000E+00 (    0.00000E+00/electron)
 HF exchange energy  :  -0.4133169456E+00 (   -0.41332E+00/electron)
 ion-ion   energy    :   0.2116708996E+00 (    0.10584E+00/ion)

 kinetic (planewave) :   0.4945855510E+00 (    0.49459E+00/electron)
 V_local (planewave) :  -0.1734605088E+01 (   -0.17346E+01/electron)
 V_nl    (planewave) :  -0.9188732614E-01 (   -0.91887E-01/electron)
 V_Coul  (planewave) :   0.1653267783E+01 (    0.16533E+01/electron)
 V_xc.   (planewave) :   0.0000000000E+00 (    0.00000E+00/electron)
 K.S. HFX energy     :  -0.8266338913E+00 (   -0.82663E+00/electron)
 Virial Coefficient  :  -0.3502419978E+00

 orbital energies:
    -0.2526365E+00 (  -6.875eV)


== Virtual Orbital Calculation ==


 input epsi filename:./pspw_hf_LiH.emovecs
     orbital   1 current e=-0.237E-01 (error=0.170E-08) iterations 121(  68 preconditioned, Ep,Sp= 20.0  200.0)
     orbital   1 current e=-0.237E-01 (error=0.808E-09) iterations   2(   1 preconditioned, Ep,Sp= 20.0  200.0)
     orbital   2 current e= 0.419E-02 (error=0.316E-08) iterations 121(  65 preconditioned, Ep,Sp= 20.0  200.0)
     orbital   2 current e= 0.419E-02 (error=0.957E-09) iterations  23(   1 preconditioned, Ep,Sp= 20.0  200.0)
     orbital   3 current e= 0.141E-01 (error=0.976E-09) iterations 110(  43 preconditioned, Ep,Sp= 20.0  200.0)
     orbital   4 current e= 0.141E-01 (error=0.977E-09) iterations 110(  43 preconditioned, Ep,Sp= 20.0  200.0)
     orbital   5 current e= 0.213E-01 (error=0.788E-09) iterations  75(  36 preconditioned, Ep,Sp= 20.0  200.0)
     orbital   6 current e= 0.210E-01 (error=0.417E-07) iterations 121(  81 preconditioned, Ep,Sp= 20.0  200.0)
     orbital   6 current e= 0.210E-01 (error=0.983E-09) iterations  94(   1 preconditioned, Ep,Sp= 20.0  200.0)
     orbital   7 current e= 0.301E-01 (error=0.105E-07) iterations 121(  56 preconditioned, Ep,Sp= 20.0  200.0)
     orbital   7 current e= 0.301E-01 (error=0.996E-09) iterations  91(   1 preconditioned, Ep,Sp= 20.0  200.0)
     orbital   8 current e= 0.350E-01 (error=0.160E-07) iterations 121(  65 preconditioned, Ep,Sp= 20.0  200.0)
     orbital   8 current e= 0.350E-01 (error=0.975E-09) iterations  72(   1 preconditioned, Ep,Sp= 20.0  200.0)
     orbital   9 current e= 0.373E-01 (error=0.593E-07) iterations 121(  95 preconditioned, Ep,Sp= 20.0  200.0)
     orbital   9 current e= 0.373E-01 (error=0.999E-09) iterations 102(   1 preconditioned, Ep,Sp= 20.0  200.0)
     orbital  10 current e= 0.373E-01 (error=0.609E-07) iterations 121(  95 preconditioned, Ep,Sp= 20.0  200.0)
     orbital  10 current e= 0.373E-01 (error=0.989E-09) iterations 102(   1 preconditioned, Ep,Sp= 20.0  200.0)
     orbital  11 current e= 0.437E-01 (error=0.633E-07) iterations 121(  53 preconditioned, Ep,Sp= 20.0  200.0)
     orbital  11 current e= 0.437E-01 (error=0.463E-08) iterations 121(   1 preconditioned, Ep,Sp= 20.0  200.0)
     orbital  11 current e= 0.446E-01 (error=0.224E-04) iterations 121( 120 preconditioned, Ep,Sp= 20.0  200.0)
     orbital  11 current e= 0.443E-01 (error=0.400E-08) iterations 121(  77 preconditioned, Ep,Sp= 20.0  200.0)
     orbital  11 current e= 0.443E-01 (error=0.963E-09) iterations  12(   1 preconditioned, Ep,Sp= 20.0  200.0)
     orbital  12 current e= 0.486E-01 (error=0.170E-03) iterations 121( 120 preconditioned, Ep,Sp= 20.0  200.0)
     orbital  12 current e= 0.439E-01 (error=0.198E-04) iterations 121( 120 preconditioned, Ep,Sp= 20.0  200.0)
     orbital  12 current e= 0.613E-01 (error=0.231E-05) iterations 121( 120 preconditioned, Ep,Sp= 20.0  200.0)
     orbital  12 current e= 0.612E-01 (error=0.255E-07) iterations 121(  82 preconditioned, Ep,Sp= 20.0  200.0)
     orbital  12 current e= 0.612E-01 (error=0.319E-08) iterations 121(  23 preconditioned, Ep,Sp= 20.0  200.0)
     orbital  12 current e= 0.612E-01 (error=0.985E-09) iterations  27(   1 preconditioned, Ep,Sp= 20.0  200.0)

 virtual orbital energies:
     0.6115946E-01 (   1.664eV)
     0.4431195E-01 (   1.206eV)
     0.3731651E-01 (   1.015eV)
     0.3731651E-01 (   1.015eV)
     0.3499496E-01 (   0.952eV)
     0.3011427E-01 (   0.819eV)
     0.2133836E-01 (   0.581eV)
     0.2102084E-01 (   0.572eV)
     0.1414681E-01 (   0.385eV)
     0.1414681E-01 (   0.385eV)
     0.4185828E-02 (   0.114eV)
    -0.2370991E-01 (  -0.645eV)


 == Generating One-Electron and Two-Electron Integrals ==

 begin_one_electron_integrals
    1    1        -0.6659534315
    2    1        -0.0436622204
    3    1         0.0106234294
    4    1         0.0000000636
    5    1         0.0000000383
    6    1        -0.0176497564
    7    1         0.0000005584
    8    1         0.0129582015
    9    1         0.0014341727
   10    1        -0.0000000076
   11    1        -0.0000000071
   12    1        -0.0170437498
   13    1        -0.0222558883
    2    2        -0.2738253513
    3    2         0.0440968435
    4    2         0.0000001716
    5    2         0.0000000976
    6    2        -0.0297789938
    7    2         0.0000009653
    8    2         0.0174320307
    9    2         0.0234322370
   10    2         0.0000000969
   11    2         0.0000003847
   12    2        -0.0230020621
   13    2        -0.0199027555
    3    3        -0.1432134192
    4    3         0.0000001395
    5    3         0.0000000849
    6    3         0.0056425610
    7    3        -0.0000002134
    8    3         0.0003504049
    9    3        -0.0352755176
   10    3        -0.0000000730
   11    3        -0.0000004586
   12    3         0.0072319752
   13    3         0.0018510356
    4    4        -0.1752262336
    5    4         0.0000000000
    6    4        -0.0000000225
    7    4        -0.0000000670
    8    4        -0.0000000619
    9    4         0.0000007585
   10    4         0.0000760776
   11    4        -0.0492715619
   12    4        -0.0000006222
   13    4        -0.0000054476
    5    5        -0.1752260883
    6    5        -0.0000000111
    7    5         0.0000000987
    8    5        -0.0000000224
    9    5         0.0000001538
   10    5        -0.0492703031
   11    5        -0.0000760786
   12    5        -0.0000001439
   13    5        -0.0000018690
    6    6        -0.1348302182
    7    6         0.0000005123
    8    6         0.0050196282
    9    6         0.0025981290
   10    6        -0.0000000475
   11    6        -0.0000000633
   12    6        -0.0278414952
   13    6        -0.0083632070
    7    7        -0.1186288556
    8    7        -0.0000004848
    9    7        -0.0000000836
   10    7         0.0000000974
   11    7        -0.0000000599
   12    7         0.0000000132
   13    7        -0.0000184313
    8    8        -0.1143244425
    9    8         0.0011340248
   10    8         0.0000000042
   11    8         0.0000000108
   12    8         0.0045098319
   13    8         0.0276736776
    9    9        -0.1063916076
   10    9         0.0000000879
   11    9         0.0000003889
   12    9         0.0033320877
   13    9        -0.0088166666
   10   10        -0.1299528630
   11   10         0.0000000006
   12   10        -0.0000001135
   13   10        -0.0000008935
   11   11        -0.1299543675
   12   11        -0.0000003772
   13   11        -0.0000028677
   12   12        -0.1019186895
   13   12        -0.0127855544
   13   13        -0.0904712627
 end_one_electron_integrals

 begin_two_electron_integrals
    1    1    1    1        0.4133169456
    1    1    2    1        0.0436734317
    1    1    3    1       -0.0106278053
    1    1    4    1       -0.0000000636
    1    1    5    1       -0.0000000383
    1    1    6    1        0.0176540301
    1    1    7    1       -0.0000005585
    1    1    8    1       -0.0129549658
    1    1    9    1       -0.0014395887
    1    1   10    1        0.0000000076
    1    1   11    1        0.0000000071
    1    1   12    1        0.0170472949
    1    1   13    1        0.0222518076
    1    1    2    2        0.1300199432
    1    1    3    2       -0.0236756368
    1    1    4    2       -0.0000000971
    1    1    5    2       -0.0000000555
    1    1    6    2        0.0169335908
    1    1    7    2       -0.0000005485
    1    1    8    2       -0.0099173479
    1    1    9    2       -0.0125250249
    1    1   10    2       -0.0000000524
    1    1   11    2       -0.0000002064
    1    1   12    2        0.0134911935
    1    1   13    2        0.0119733295
    1    1    3    3        0.0742997686
    1    1    4    3       -0.0000000809
    1    1    5    3       -0.0000000492
    1    1    6    3       -0.0034877007
    1    1    7    3        0.0000001283
    1    1    8    3        0.0001774330
    1    1    9    3        0.0180121908
    1    1   10    3        0.0000000308
    1    1   11    3        0.0000002231
    1    1   12    3       -0.0042783656
    1    1   13    3       -0.0014963786
    1    1    4    4        0.0953602737
    1    1    5    4       -0.0000000000
    1    1    6    4       -0.0000000025
    1    1    7    4        0.0000000235
    1    1    8    4        0.0000000362
    1    1    9    4       -0.0000004005
    1    1   10    4       -0.0000390445
    1    1   11    4        0.0252882011
    1    1   12    4        0.0000003137
    1    1   13    4        0.0000028103
    1    1    5    5        0.0953601988
    1    1    6    5       -0.0000000027
    1    1    7    5       -0.0000000324
    1    1    8    5        0.0000000142
    1    1    9    5       -0.0000000858
    1    1   10    5        0.0252875384
    1    1   11    5        0.0000390450
    1    1   12    5        0.0000000698
    1    1   13    5        0.0000009637
    1    1    6    6        0.0788103258
    1    1    7    6       -0.0000002791
    1    1    8    6       -0.0030039811
    1    1    9    6       -0.0016325112
    1    1   10    6        0.0000000175
    1    1   11    6        0.0000000186
    1    1   12    6        0.0147914787
    1    1   13    6        0.0050346066
    1    1    7    7        0.0699975461
    1    1    8    7        0.0000002499
    1    1    9    7        0.0000000569
    1    1   10    7       -0.0000000350
    1    1   11    7        0.0000000231
    1    1   12    7       -0.0000000517
    1    1   13    7        0.0000092032
    1    1    8    8        0.0725614093
    1    1    9    8       -0.0004503358
    1    1   10    8       -0.0000000004
    1    1   11    8       -0.0000000029
    1    1   12    8       -0.0027410790
    1    1   13    8       -0.0144301158
    1    1    9    9        0.0709953839
    1    1   10    9       -0.0000000511
    1    1   11    9       -0.0000002215
    1    1   12    9       -0.0019950931
    1    1   13    9        0.0042366536
    1    1   10   10        0.0842863176
    1    1   11   10       -0.0000000003
    1    1   12   10        0.0000000561
    1    1   13   10        0.0000004762
    1    1   11   11        0.0842871080
    1    1   12   11        0.0000001913
    1    1   13   11        0.0000015219
    1    1   12   12        0.0739848626
    1    1   13   12        0.0072381687
    1    1   13   13        0.0768402594
    2    1    2    1        0.0099244471
    2    1    3    1       -0.0032588650
    2    1    4    1       -0.0000000225
    2    1    5    1       -0.0000000134
    2    1    6    1        0.0040750926
    2    1    7    1       -0.0000001310
    2    1    8    1       -0.0024037542
    2    1    9    1       -0.0016203025
    2    1   10    1       -0.0000000078
    2    1   11    1       -0.0000000271
    2    1   12    1        0.0039927821
    2    1   13    1        0.0040463215
    2    1    2    2       -0.0087369047
    2    1    3    2        0.0028227937
    2    1    4    2        0.0000000388
    2    1    5    2        0.0000000233
    2    1    6    2        0.0004592031
    2    1    7    2       -0.0000000155
    2    1    8    2        0.0003882985
    2    1    9    2        0.0017878970
    2    1   10    2        0.0000000165
    2    1   11    2        0.0000000457
    2    1   12    2        0.0008980168
    2    1   13    2        0.0004030425
    2    1    3    3       -0.0020832923
    2    1    4    3        0.0000000353
    2    1    5    3        0.0000000213
    2    1    6    3        0.0005116623
    2    1    7    3       -0.0000000131
    2    1    8    3       -0.0019558167
    2    1    9    3       -0.0011005150
    2    1   10    3       -0.0000000142
    2    1   11    3       -0.0000000349
    2    1   12    3        0.0000088785
    2    1   13    3        0.0009071741
    2    1    4    4       -0.0042171204
    2    1    5    4        0.0000000014
    2    1    6    4        0.0000000068
    2    1    7    4        0.0000000107
    2    1    8    4        0.0000000105
    2    1    9    4        0.0000000443
    2    1   10    4        0.0000037029
    2    1   11    4       -0.0023978551
    2    1   12    4        0.0000000260
    2    1   13    4        0.0000001960
    2    1    5    5       -0.0042171155
    2    1    6    5        0.0000000040
    2    1    7    5       -0.0000000180
    2    1    8    5        0.0000000049
    2    1    9    5        0.0000000133
    2    1   10    5       -0.0023978843
    2    1   11    5       -0.0000037020
    2    1   12    5        0.0000000086
    2    1   13    5        0.0000000781
    2    1    6    6       -0.0013035974
    2    1    7    6       -0.0000000019
    2    1    8    6       -0.0000770352
    2    1    9    6        0.0006958802
    2    1   10    6        0.0000000037
    2    1   11    6        0.0000000124
    2    1   12    6       -0.0009220754
    2    1   13    6       -0.0006904600
    2    1    7    7       -0.0014396282
    2    1    8    7        0.0000000019
    2    1    9    7       -0.0000000211
    2    1   10    7       -0.0000000071
    2    1   11    7        0.0000000043
    2    1   12    7        0.0000000375
    2    1   13    7        0.0000001852
    2    1    8    8        0.0004546644
    2    1    9    8       -0.0008698864
    2    1   10    8       -0.0000000014
    2    1   11    8       -0.0000000103
    2    1   12    8       -0.0006000230
    2    1   13    8       -0.0004946296
    2    1    9    9       -0.0014317528
    2    1   10    9        0.0000000145
    2    1   11    9        0.0000000356
    2    1   12    9        0.0004539620
    2    1   13    9        0.0017901900
    2    1   10   10       -0.0025531998
    2    1   11   10        0.0000000006
    2    1   12   10        0.0000000060
    2    1   13   10       -0.0000000364
    2    1   11   11       -0.0025532077
    2    1   12   11        0.0000000101
    2    1   13   11       -0.0000000687
    2    1   12   12       -0.0014254816
    2    1   13   12        0.0005078938
    2    1   13   13        0.0010373177
    3    1    3    1        0.0012002899
    3    1    4    1       -0.0000000220
    3    1    5    1       -0.0000000134
    3    1    6    1       -0.0013403983
    3    1    7    1        0.0000000434
    3    1    8    1        0.0006950361
    3    1    9    1        0.0007414706
    3    1   10    1       -0.0000000115
    3    1   11    1       -0.0000000124
    3    1   12    1       -0.0013201953
    3    1   13    1       -0.0011435866
    3    1    2    2        0.0050929961
    3    1    3    2       -0.0017762997
    3    1    4    2        0.0000001324
    3    1    5    2        0.0000000801
    3    1    6    2        0.0001575067
    3    1    7    2       -0.0000000048
    3    1    8    2       -0.0004201799
    3    1    9    2       -0.0011681172
    3    1   10    2        0.0000000246
    3    1   11    2        0.0000000293
    3    1   12    2       -0.0000845517
    3    1   13    2        0.0001396992
    3    1    3    3        0.0011561542
    3    1    4    3        0.0000001189
    3    1    5    3        0.0000000719
    3    1    6    3       -0.0003629463
    3    1    7    3        0.0000000103
    3    1    8    3        0.0009231564
    3    1    9    3        0.0006909061
    3    1   10    3       -0.0000000577
    3    1   11    3       -0.0000000889
    3    1   12    3       -0.0001258188
    3    1   13    3       -0.0004960267
    3    1    4    4        0.0022182457
    3    1    5    4        0.0000000000
    3    1    6    4        0.0000000574
    3    1    7    4        0.0000000694
    3    1    8    4        0.0000000327
    3    1    9    4        0.0000000361
    3    1   10    4       -0.0000021975
    3    1   11    4        0.0014232079
    3    1   12    4        0.0000000281
    3    1   13    4       -0.0000000542
    3    1    5    5        0.0022182416
    3    1    6    5        0.0000000347
    3    1    7    5       -0.0000001145
    3    1    8    5        0.0000000203
    3    1    9    5        0.0000000300
    3    1   10    5        0.0014232109
    3    1   11    5        0.0000021976
    3    1   12    5        0.0000000184
    3    1   13    5       -0.0000000252
    3    1    6    6        0.0007344812
    3    1    7    6       -0.0000000041
    3    1    8    6       -0.0000403024
    3    1    9    6       -0.0003992727
    3    1   10    6        0.0000000122
    3    1   11    6        0.0000000167
    3    1   12    6        0.0005678179
    3    1   13    6        0.0004150064
    3    1    7    7        0.0006404869
    3    1    8    7        0.0000000020
    3    1    9    7        0.0000000124
    3    1   10    7       -0.0000000727
    3    1   11    7        0.0000000439
    3    1   12    7       -0.0000000204
    3    1   13    7       -0.0000000539
    3    1    8    8       -0.0001127310
    3    1    9    8        0.0004326695
    3    1   10    8        0.0000000200
    3    1   11    8        0.0000000373
    3    1   12    8        0.0001911801
    3    1   13    8        0.0001046190
    3    1    9    9        0.0008096391
    3    1   10    9        0.0000000393
    3    1   11    9        0.0000000581
    3    1   12    9       -0.0002827466
    3    1   13    9       -0.0008161563
    3    1   10   10        0.0014884452
    3    1   11   10       -0.0000000000
    3    1   12   10        0.0000000323
    3    1   13   10        0.0000000200
    3    1   11   11        0.0014884657
    3    1   12   11        0.0000000554
    3    1   13   11        0.0000000517
    3    1   12   12        0.0007840093
    3    1   13   12       -0.0000933249
    3    1   13   13       -0.0002736537
    4    1    4    1        0.0013475085
    4    1    5    1       -0.0000000000
    4    1    6    1       -0.0000000282
    4    1    7    1       -0.0000000202
    4    1    8    1        0.0000000113
    4    1    9    1       -0.0000000429
    4    1   10    1       -0.0000020312
    4    1   11    1        0.0013156376
    4    1   12    1        0.0000000052
    4    1   13    1        0.0000001727
    4    1    2    2        0.0000007238
    4    1    3    2        0.0000029451
    4    1    4    2       -0.0031779111
    4    1    5    2        0.0000000056
    4    1    6    2        0.0000014536
    4    1    7    2        0.0000021567
    4    1    8    2        0.0000009799
    4    1    9    2        0.0000004455
    4    1   10    2        0.0000035836
    4    1   11    2       -0.0023212066
    4    1   12    2        0.0000005376
    4    1   13    2       -0.0000004784
    4    1    3    3        0.0000147924
    4    1    4    3       -0.0001382089
    4    1    5    3        0.0000000000
    4    1    6    3        0.0000070262
    4    1    7    3        0.0000084915
    4    1    8    3        0.0000007807
    4    1    9    3       -0.0000031591
    4    1   10    3       -0.0000018903
    4    1   11    3        0.0012245236
    4    1   12    3       -0.0000008949
    4    1   13    3       -0.0000011751
    4    1    4    4        0.0000009440
    4    1    5    4        0.0000005711
    4    1    6    4       -0.0010178077
    4    1    7    4       -0.0008926894
    4    1    8    4       -0.0000689161
    4    1    9    4       -0.0002426884
    4    1   10    4       -0.0000012014
    4    1   11    4       -0.0000022579
    4    1   12    4       -0.0008316767
    4    1   13    4       -0.0002493589
    4    1    5    5        0.0000030278
    4    1    6    5        0.0000000125
    4    1    7    5        0.0004679353
    4    1    8    5        0.0000000011
    4    1    9    5        0.0000001032
    4    1   10    5       -0.0000065275
    4    1   11    5       -0.0000017511
    4    1   12    5       -0.0000004870
    4    1   13    5        0.0000017347
    4    1    6    6        0.0000111909
    4    1    7    6        0.0000034197
    4    1    8    6       -0.0000012139
    4    1    9    6        0.0000034179
    4    1   10    6        0.0000012748
    4    1   11    6       -0.0008173504
    4    1   12    6       -0.0000082351
    4    1   13    6       -0.0000010463
    4    1    7    7        0.0000202306
    4    1    8    7        0.0000016062
    4    1    9    7        0.0000033848
    4    1   10    7        0.0003906250
    4    1   11    7       -0.0007423993
    4    1   12    7        0.0000048031
    4    1   13    7       -0.0000015623
    4    1    8    8        0.0000166486
    4    1    9    8        0.0000001979
    4    1   10    8       -0.0000000348
    4    1   11    8        0.0000259858
    4    1   12    8        0.0000004657
    4    1   13    8        0.0000063523
    4    1    9    9        0.0000168611
    4    1   10    9       -0.0000000739
    4    1   11    9        0.0000454504
    4    1   12    9        0.0000052562
    4    1   13    9       -0.0000017982
    4    1   10   10        0.0000151314
    4    1   11   10        0.0000028188
    4    1   12   10        0.0000014543
    4    1   13   10        0.0000005507
    4    1   11   11        0.0000046202
    4    1   12   11       -0.0009210499
    4    1   13   11       -0.0002197692
    4    1   12   12        0.0000190181
    4    1   13   12       -0.0000006533
    4    1   13   13        0.0000186418
    5    1    5    1        0.0013475041
    5    1    6    1       -0.0000000171
    5    1    7    1        0.0000000337
    5    1    8    1        0.0000000063
    5    1    9    1       -0.0000000177
    5    1   10    1        0.0013155963
    5    1   11    1        0.0000020313
    5    1   12    1       -0.0000000044
    5    1   13    1        0.0000000587
    5    1    2    2        0.0000004374
    5    1    3    2        0.0000017815
    5    1    4    2        0.0000000058
    5    1    5    2       -0.0031779093
    5    1    6    2        0.0000008789
    5    1    7    2       -0.0000035662
    5    1    8    2        0.0000005927
    5    1    9    2        0.0000002556
    5    1   10    2       -0.0023211780
    5    1   11    2       -0.0000035843
    5    1   12    2        0.0000003296
    5    1   13    2       -0.0000002621
    5    1    3    3        0.0000089476
    5    1    4    3        0.0000000003
    5    1    5    3       -0.0001382111
    5    1    6    3        0.0000042494
    5    1    7    3       -0.0000140385
    5    1    8    3        0.0000004725
    5    1    9    3       -0.0000019037
    5    1   10    3        0.0012245187
    5    1   11    3        0.0000018906
    5    1   12    3       -0.0000005416
    5    1   13    3       -0.0000007156
    5    1    4    4        0.0000029501
    5    1    5    4       -0.0000009030
    5    1    6    4        0.0000000126
    5    1    7    4        0.0004679351
    5    1    8    4        0.0000000011
    5    1    9    4        0.0000001033
    5    1   10    4        0.0000019806
    5    1   11    4       -0.0000068795
    5    1   12    4       -0.0000004870
    5    1   13    4        0.0000017350
    5    1    5    5       -0.0000005442
    5    1    6    5       -0.0010177444
    5    1    7    5        0.0008927539
    5    1    8    5       -0.0000688952
    5    1    9    5       -0.0002427986
    5    1   10    5        0.0000012021
    5    1   11    5        0.0000022535
    5    1   12    5       -0.0008311107
    5    1   13    5       -0.0002500797
    5    1    6    6        0.0000067688
    5    1    7    6       -0.0000056530
    5    1    8    6       -0.0000007330
    5    1    9    6        0.0000020613
    5    1   10    6       -0.0008172099
    5    1   11    6       -0.0000012488
    5    1   12    6       -0.0000049666
    5    1   13    6       -0.0000005527
    5    1    7    7        0.0000122378
    5    1    8    7       -0.0000026544
    5    1    9    7       -0.0000055882
    5    1   10    7        0.0007424677
    5    1   11    7        0.0003906162
    5    1   12    7       -0.0000079361
    5    1   13    7        0.0000026139
    5    1    8    8        0.0000100697
    5    1    9    8        0.0000001202
    5    1   10    8        0.0000259956
    5    1   11    8        0.0000000454
    5    1   12    8        0.0000002784
    5    1   13    8        0.0000038232
    5    1    9    9        0.0000101993
    5    1   10    9        0.0000454583
    5    1   11    9        0.0000000663
    5    1   12    9        0.0000031748
    5    1   13    9       -0.0000010918
    5    1   10   10       -0.0000027554
    5    1   11   10       -0.0000046076
    5    1   12   10       -0.0009210041
    5    1   13   10       -0.0002186426
    5    1   11   11        0.0000147305
    5    1   12   11       -0.0000013898
    5    1   13   11       -0.0000001268
    5    1   12   12        0.0000115105
    5    1   13   12       -0.0000003667
    5    1   13   13        0.0000113328
    6    1    6    1        0.0017695980
    6    1    7    1       -0.0000000560
    6    1    8    1       -0.0009946371
    6    1    9    1       -0.0006675895
    6    1   10    1       -0.0000000125
    6    1   11    1       -0.0000000263
    6    1   12    1        0.0017505760
    6    1   13    1        0.0017066393
    6    1    2    2       -0.0022683911
    6    1    3    2        0.0007206071
    6    1    4    2        0.0000001136
    6    1    5    2        0.0000000688
    6    1    6    2       -0.0000469005
    6    1    7    2       -0.0000000030
    6    1    8    2        0.0000088340
    6    1    9    2        0.0004928857
    6    1   10    2        0.0000000262
    6    1   11    2        0.0000000482
    6    1   12    2        0.0000842303
    6    1   13    2        0.0001551244
    6    1    3    3       -0.0006341984
    6    1    4    3        0.0000001104
    6    1    5    3        0.0000000668
    6    1    6    3       -0.0000076901
    6    1    7    3       -0.0000000032
    6    1    8    3       -0.0006212867
    6    1    9    3       -0.0003351974
    6    1   10    3       -0.0000000485
    6    1   11    3       -0.0000000838
    6    1   12    3        0.0000198433
    6    1   13    3        0.0002986444
    6    1    4    4       -0.0014638560
    6    1    5    4        0.0000000026
    6    1    6    4        0.0000000578
    6    1    7    4        0.0000000549
    6    1    8    4        0.0000000233
    6    1    9    4        0.0000000672
    6    1   10    4        0.0000013745
    6    1   11    4       -0.0008882560
    6    1   12    4        0.0000000209
    6    1   13    4       -0.0000000013
    6    1    5    5       -0.0014638405
    6    1    6    5        0.0000000351
    6    1    7    5       -0.0000000910
    6    1    8    5        0.0000000140
    6    1    9    5        0.0000000354
    6    1   10    5       -0.0008882342
    6    1   11    5       -0.0000013684
    6    1   12    5        0.0000000135
    6    1   13    5        0.0000000048
    6    1    6    6       -0.0003607089
    6    1    7    6       -0.0000000097
    6    1    8    6        0.0000389479
    6    1    9    6        0.0000030387
    6    1   10    6        0.0000000072
    6    1   11    6        0.0000000118
    6    1   12    6       -0.0001245293
    6    1   13    6       -0.0002854643
    6    1    7    7       -0.0005665461
    6    1    8    7       -0.0000000057
    6    1    9    7       -0.0000000043
    6    1   10    7       -0.0000000597
    6    1   11    7        0.0000000359
    6    1   12    7       -0.0000000065
    6    1   13    7       -0.0000001224
    6    1    8    8        0.0001230728
    6    1    9    8       -0.0002812037
    6    1   10    8        0.0000000154
    6    1   11    8        0.0000000229
    6    1   12    8       -0.0001624796
    6    1   13    8       -0.0002540734
    6    1    9    9       -0.0004639013
    6    1   10    9        0.0000000391
    6    1   11    9        0.0000000699
    6    1   12    9       -0.0000051903
    6    1   13    9        0.0005933107
    6    1   10   10       -0.0009551117
    6    1   11   10        0.0000000015
    6    1   12   10        0.0000000287
    6    1   13   10       -0.0000000194
    6    1   11   11       -0.0009551251
    6    1   12   11        0.0000000454
    6    1   13   11       -0.0000000389
    6    1   12   12       -0.0003621763
    6    1   13   12        0.0001220838
    6    1   13   13        0.0004057330
    7    1    7    1        0.0000278726
    7    1    8    1        0.0000000322
    7    1    9    1        0.0000000220
    7    1   10    1        0.0000000275
    7    1   11    1       -0.0000000164
    7    1   12    1       -0.0000000550
    7    1   13    1       -0.0000000244
    7    1    2    2        0.0000000772
    7    1    3    2       -0.0000000245
    7    1    4    2        0.0000001138
    7    1    5    2       -0.0000001888
    7    1    6    2       -0.0000000022
    7    1    7    2       -0.0001414539
    7    1    8    2       -0.0000000022
    7    1    9    2       -0.0000000166
    7    1   10    2       -0.0000000657
    7    1   11    2        0.0000000393
    7    1   12    2       -0.0000000056
    7    1   13    2       -0.0000000796
    7    1    3    3        0.0000000214
    7    1    4    3        0.0000001086
    7    1    5    3       -0.0000001795
    7    1    6    3       -0.0000000043
    7    1    7    3       -0.0001313330
    7    1    8    3        0.0000000199
    7    1    9    3        0.0000000114
    7    1   10    3        0.0000001245
    7    1   11    3       -0.0000000749
    7    1   12    3       -0.0000000029
    7    1   13    3       -0.0000000497
    7    1    4    4       -0.0001866833
    7    1    5    4        0.0000978790
    7    1    6    4        0.0000000451
    7    1    7    4        0.0000001667
    7    1    8    4        0.0000000313
    7    1    9    4        0.0000000561
    7    1   10    4        0.0000979405
    7    1   11    4       -0.0001861201
    7    1   12    4        0.0000000300
    7    1   13    4       -0.0000000095
    7    1    5    5        0.0001867815
    7    1    6    5       -0.0000000747
    7    1    7    5        0.0000001010
    7    1    8    5       -0.0000000517
    7    1    9    5       -0.0000000908
    7    1   10    5        0.0001861806
    7    1   11    5        0.0000979403
    7    1   12    5       -0.0000000498
    7    1   13    5        0.0000000156
    7    1    6    6        0.0000000060
    7    1    7    6       -0.0000924194
    7    1    8    6       -0.0000000052
    7    1    9    6       -0.0000000049
    7    1   10    6       -0.0000000328
    7    1   11    6        0.0000000197
    7    1   12    6       -0.0000000070
    7    1   13    6       -0.0000001492
    7    1    7    7        0.0000000252
    7    1    8    7       -0.0000317726
    7    1    9    7       -0.0001418247
    7    1   10    7        0.0000000585
    7    1   11    7        0.0000000955
    7    1   12    7       -0.0001322610
    7    1   13    7        0.0000153445
    7    1    8    8       -0.0000000036
    7    1    9    8        0.0000000072
    7    1   10    8       -0.0000000408
    7    1   11    8        0.0000000245
    7    1   12    8        0.0000000044
    7    1   13    8        0.0000000231
    7    1    9    9        0.0000000158
    7    1   10    9       -0.0000001029
    7    1   11    9        0.0000000628
    7    1   12    9       -0.0000000053
    7    1   13    9       -0.0000001360
    7    1   10   10        0.0001030924
    7    1   11   10        0.0000544291
    7    1   12   10       -0.0000000674
    7    1   13   10        0.0000000310
    7    1   11   11       -0.0001030358
    7    1   12   11        0.0000000397
    7    1   13   11       -0.0000000236
    7    1   12   12        0.0000000056
    7    1   13   12       -0.0000000774
    7    1   13   13       -0.0000001077
    8    1    8    1        0.0006841070
    8    1    9    1        0.0002356164
    8    1   10    1        0.0000000035
    8    1   11    1        0.0000000084
    8    1   12    1       -0.0009776155
    8    1   13    1       -0.0011775026
    8    1    2    2        0.0002557053
    8    1    3    2       -0.0001495784
    8    1    4    2       -0.0000000043
    8    1    5    2       -0.0000000018
    8    1    6    2       -0.0002240645
    8    1    7    2        0.0000000051
    8    1    8    2        0.0000190407
    8    1    9    2       -0.0001376911
    8    1   10    2       -0.0000000018
    8    1   11    2       -0.0000000054
    8    1   12    2       -0.0002777928
    8    1   13    2       -0.0001831748
    8    1    3    3        0.0000820174
    8    1    4    3       -0.0000000095
    8    1    5    3       -0.0000000056
    8    1    6    3        0.0000154675
    8    1    7    3       -0.0000000027
    8    1    8    3        0.0000298475
    8    1    9    3        0.0000632469
    8    1   10    3        0.0000000141
    8    1   11    3        0.0000000246
    8    1   12    3        0.0000624366
    8    1   13    3        0.0000027088
    8    1    4    4        0.0000742321
    8    1    5    4        0.0000000007
    8    1    6    4       -0.0000000206
    8    1    7    4        0.0000000007
    8    1    8    4        0.0000000364
    8    1    9    4       -0.0000000070
    8    1   10    4       -0.0000000643
    8    1   11    4        0.0000425012
    8    1   12    4       -0.0000000065
    8    1   13    4       -0.0000000412
    8    1    5    5        0.0000742392
    8    1    6    5       -0.0000000120
    8    1    7    5       -0.0000000017
    8    1    8    5        0.0000000221
    8    1    9    5       -0.0000000039
    8    1   10    5        0.0000425136
    8    1   11    5        0.0000000670
    8    1   12    5       -0.0000000025
    8    1   13    5       -0.0000000184
    8    1    6    6       -0.0000504080
    8    1    7    6       -0.0000000006
    8    1    8    6        0.0000456499
    8    1    9    6       -0.0000390050
    8    1   10    6        0.0000000001
    8    1   11    6       -0.0000000007
    8    1   12    6       -0.0000409367
    8    1   13    6       -0.0000762577
    8    1    7    7       -0.0000024312
    8    1    8    7       -0.0000000022
    8    1    9    7       -0.0000000013
    8    1   10    7        0.0000000014
    8    1   11    7       -0.0000000012
    8    1   12    7       -0.0000000025
    8    1   13    7       -0.0000000300
    8    1    8    8       -0.0000459577
    8    1    9    8        0.0000462442
    8    1   10    8       -0.0000000207
    8    1   11    8       -0.0000000340
    8    1   12    8        0.0000698197
    8    1   13    8        0.0000905937
    8    1    9    9        0.0000508834
    8    1   10    9       -0.0000000033
    8    1   11    9       -0.0000000053
    8    1   12    9       -0.0000186675
    8    1   13    9       -0.0000587131
    8    1   10   10        0.0000309345
    8    1   11   10        0.0000000006
    8    1   12   10       -0.0000000036
    8    1   13   10       -0.0000000143
    8    1   11   11        0.0000309254
    8    1   12   11       -0.0000000076
    8    1   13   11       -0.0000000292
    8    1   12   12       -0.0000349812
    8    1   13   12       -0.0000937891
    8    1   13   13       -0.0001786578
    9    1    9    1        0.0006042005
    9    1   10    1       -0.0000000146
    9    1   11    1       -0.0000000322
    9    1   12    1       -0.0006643590
    9    1   13    1       -0.0003514342
    9    1    2    2        0.0048133614
    9    1    3    2       -0.0017490782
    9    1    4    2        0.0000001589
    9    1    5    2        0.0000000780
    9    1    6    2        0.0003870791
    9    1    7    2       -0.0000000122
    9    1    8    2       -0.0005002587
    9    1    9    2       -0.0011816795
    9    1   10    2        0.0000000312
    9    1   11    2        0.0000000632
    9    1   12    2        0.0001728317
    9    1   13    2        0.0003435667
    9    1    3    3        0.0010681978
    9    1    4    3        0.0000000950
    9    1    5    3        0.0000000576
    9    1    6    3       -0.0003868629
    9    1    7    3        0.0000000114
    9    1    8    3        0.0007819051
    9    1    9    3        0.0006673509
    9    1   10    3       -0.0000000430
    9    1   11    3       -0.0000000760
    9    1   12    3       -0.0001923849
    9    1   13    3       -0.0004701048
    9    1    4    4        0.0019563471
    9    1    5    4        0.0000000257
    9    1    6    4        0.0000000722
    9    1    7    4        0.0000000750
    9    1    8    4        0.0000000263
    9    1    9    4        0.0000000417
    9    1   10    4       -0.0000020631
    9    1   11    4        0.0013413196
    9    1   12    4        0.0000000470
    9    1   13    4       -0.0000000145
    9    1    5    5        0.0019563158
    9    1    6    5        0.0000000376
    9    1    7    5       -0.0000001145
    9    1    8    5        0.0000000160
    9    1    9    5        0.0000000322
    9    1   10    5        0.0013413074
    9    1   11    5        0.0000020790
    9    1   12    5        0.0000000235
    9    1   13    5       -0.0000000108
    9    1    6    6        0.0006646667
    9    1    7    6       -0.0000000062
    9    1    8    6       -0.0000880528
    9    1    9    6       -0.0003817024
    9    1   10    6        0.0000000163
    9    1   11    6        0.0000000319
    9    1   12    6        0.0005323839
    9    1   13    6        0.0004108911
    9    1    7    7        0.0004965525
    9    1    8    7        0.0000000034
    9    1    9    7        0.0000000120
    9    1   10    7       -0.0000000734
    9    1   11    7        0.0000000489
    9    1   12    7       -0.0000000187
    9    1   13    7       -0.0000000434
    9    1    8    8       -0.0000357841
    9    1    9    8        0.0003822401
    9    1   10    8        0.0000000173
    9    1   11    8        0.0000000316
    9    1   12    8        0.0000937897
    9    1   13    8        0.0000179036
    9    1    9    9        0.0007433783
    9    1   10    9        0.0000000292
    9    1   11    9        0.0000000403
    9    1   12    9       -0.0002817826
    9    1   13    9       -0.0006817023
    9    1   10   10        0.0014036416
    9    1   11   10        0.0000000120
    9    1   12   10        0.0000000320
    9    1   13   10        0.0000000243
    9    1   11   11        0.0014036814
    9    1   12   11        0.0000000646
    9    1   13   11        0.0000000670
    9    1   12   12        0.0007038718
    9    1   13   12        0.0000174579
    9    1   13   13       -0.0001019652
   10    1   10    1        0.0013032658
   10    1   11    1       -0.0000000000
   10    1   12    1       -0.0000000014
   10    1   13    1        0.0000000597
   10    1    2    2        0.0000003714
   10    1    3    2        0.0000014321
   10    1    4    2        0.0000045283
   10    1    5    2       -0.0029297046
   10    1    6    2        0.0000007134
   10    1    7    2       -0.0000029178
   10    1    8    2        0.0000005009
   10    1    9    2        0.0000002286
   10    1   10    2       -0.0022374175
   10    1   11    2       -0.0000000002
   10    1   12    2        0.0000002840
   10    1   13    2       -0.0000002217
   10    1    3    3        0.0000071331
   10    1    4    3       -0.0000000538
   10    1    5    3        0.0000351874
   10    1    6    3        0.0000033996
   10    1    7    3       -0.0000113851
   10    1    8    3        0.0000005464
   10    1    9    3       -0.0000013869
   10    1   10    3        0.0010909792
   10    1   11    3       -0.0000000005
   10    1   12    3       -0.0000003571
   10    1   13    3       -0.0000005351
   10    1    4    4        0.0000023632
   10    1    5    4       -0.0000007579
   10    1    6    4        0.0000014807
   10    1    7    4        0.0004185535
   10    1    8    4        0.0000000618
   10    1    9    4        0.0000002704
   10    1   10    4        0.0000016135
   10    1   11    4       -0.0000055129
   10    1   12    4        0.0000008308
   10    1   13    4        0.0000018513
   10    1    5    5       -0.0000004202
   10    1    6    5       -0.0009514816
   10    1    7    5        0.0007955533
   10    1    8    5       -0.0000390561
   10    1    9    5       -0.0001194676
   10    1   10    5        0.0000009666
   10    1   11    5        0.0000018232
   10    1   12    5       -0.0008001552
   10    1   13    5       -0.0002460118
   10    1    6    6        0.0000054066
   10    1    7    6       -0.0000046500
   10    1    8    6       -0.0000005348
   10    1    9    6        0.0000017153
   10    1   10    6       -0.0007932972
   10    1   11    6        0.0000000111
   10    1   12    6       -0.0000038619
   10    1   13    6       -0.0000003825
   10    1    7    7        0.0000099557
   10    1    8    7       -0.0000024039
   10    1    9    7       -0.0000046844
   10    1   10    7        0.0006453995
   10    1   11    7        0.0003408217
   10    1   12    7       -0.0000064756
   10    1   13    7        0.0000022117
   10    1    8    8        0.0000079050
   10    1    9    8        0.0000000484
   10    1   10    8        0.0000813524
   10    1   11    8        0.0000000046
   10    1   12    8        0.0000002676
   10    1   13    8        0.0000028640
   10    1    9    9        0.0000080923
   10    1   10    9        0.0001217054
   10    1   11    9        0.0000000007
   10    1   12    9        0.0000025637
   10    1   13    9       -0.0000009862
   10    1   10   10       -0.0000021975
   10    1   11   10       -0.0000036821
   10    1   12   10       -0.0008707977
   10    1   13   10       -0.0002434012
   10    1   11   11        0.0000116805
   10    1   12   11        0.0000000107
   10    1   13   11        0.0000002458
   10    1   12   12        0.0000090985
   10    1   13   12       -0.0000004216
   10    1   13   13        0.0000088398
   11    1   11    1        0.0013033421
   11    1   12    1        0.0000000042
   11    1   13    1        0.0000001703
   11    1    2    2        0.0000006628
   11    1    3    2        0.0000023591
   11    1    4    2       -0.0029297735
   11    1    5    2       -0.0000045187
   11    1    6    2        0.0000011879
   11    1    7    2        0.0000017585
   11    1    8    2        0.0000008261
   11    1    9    2        0.0000003902
   11    1   10    2       -0.0000000001
   11    1   11    2       -0.0022374951
   11    1   12    2        0.0000004655
   11    1   13    2       -0.0000004102
   11    1    3    3        0.0000118443
   11    1    4    3        0.0000351840
   11    1    5    3        0.0000000547
   11    1    6    3        0.0000056372
   11    1    7    3        0.0000068629
   11    1    8    3        0.0000009136
   11    1    9    3       -0.0000023053
   11    1   10    3       -0.0000000005
   11    1   11    3        0.0010910129
   11    1   12    3       -0.0000005931
   11    1   13    3       -0.0000008806
   11    1    4    4        0.0000006952
   11    1    5    4        0.0000002748
   11    1    6    4       -0.0009515698
   11    1    7    4       -0.0007955120
   11    1    8    4       -0.0000390742
   11    1    9    4       -0.0001193830
   11    1   10    4       -0.0000009806
   11    1   11    4       -0.0000018142
   11    1   12    4       -0.0008006569
   11    1   13    4       -0.0002455107
   11    1    5    5        0.0000025607
   11    1    6    5       -0.0000014575
   11    1    7    5        0.0004185643
   11    1    8    5       -0.0000000589
   11    1    9    5       -0.0000000985
   11    1   10    5       -0.0000052000
   11    1   11    5       -0.0000014267
   11    1   12    5       -0.0000016408
   11    1   13    5        0.0000010922
   11    1    6    6        0.0000089766
   11    1    7    6        0.0000028032
   11    1    8    6       -0.0000008899
   11    1    9    6        0.0000028517
   11    1   10    6        0.0000000109
   11    1   11    6       -0.0007934357
   11    1   12    6       -0.0000064221
   11    1   13    6       -0.0000007412
   11    1    7    7        0.0000165206
   11    1    8    7        0.0000014495
   11    1    9    7        0.0000028278
   11    1   10    7        0.0003408365
   11    1   11    7       -0.0006453551
   11    1   12    7        0.0000039053
   11    1   13    7       -0.0000013198
   11    1    8    8        0.0000131155
   11    1    9    8        0.0000000828
   11    1   10    8        0.0000000046
   11    1   11    8        0.0000813435
   11    1   12    8        0.0000004494
   11    1   13    8        0.0000047786
   11    1    9    9        0.0000134304
   11    1   10    9        0.0000000009
   11    1   11    9        0.0001217049
   11    1   12    9        0.0000042585
   11    1   13    9       -0.0000016331
   11    1   10   10        0.0000121153
   11    1   11   10        0.0000021250
   11    1   12   10        0.0000000108
   11    1   13   10        0.0000002463
   11    1   11   11        0.0000036492
   11    1   12   11       -0.0008708847
   11    1   13   11       -0.0002443563
   11    1   12   12        0.0000150903
   11    1   13   12       -0.0000007446
   11    1   13   13        0.0000145793
   12    1   12    1        0.0017390864
   12    1   13    1        0.0016848112
   12    1    2    2       -0.0020008280
   12    1    3    2        0.0006470855
   12    1    4    2        0.0000000151
   12    1    5    2        0.0000000224
   12    1    6    2       -0.0000769173
   12    1    7    2       -0.0000000028
   12    1    8    2       -0.0000076765
   12    1    9    2        0.0004586117
   12    1   10    2        0.0000000081
   12    1   11    2        0.0000000018
   12    1   12    2        0.0000220060
   12    1   13    2        0.0001444825
   12    1    3    3       -0.0005711837
   12    1    4    3        0.0000000426
   12    1    5    3        0.0000000271
   12    1    6    3        0.0000150324
   12    1    7    3       -0.0000000047
   12    1    8    3       -0.0005496287
   12    1    9    3       -0.0003114767
   12    1   10    3       -0.0000000099
   12    1   11    3       -0.0000000101
   12    1   12    3        0.0000169878
   12    1   13    3        0.0002676118
   12    1    4    4       -0.0013703813
   12    1    5    4       -0.0000001198
   12    1    6    4       -0.0000000076
   12    1    7    4        0.0000000213
   12    1    8    4        0.0000000117
   12    1    9    4        0.0000000366
   12    1   10    4        0.0000012993
   12    1   11    4       -0.0008635310
   12    1   12    4        0.0000000068
   12    1   13    4       -0.0000000177
   12    1    5    5       -0.0013702337
   12    1    6    5        0.0000000017
   12    1    7    5       -0.0000000427
   12    1    8    5        0.0000000066
   12    1    9    5        0.0000000186
   12    1   10    5       -0.0008634649
   12    1   11    5       -0.0000013672
   12    1   12    5        0.0000000098
   12    1   13    5       -0.0000000017
   12    1    6    6       -0.0003010668
   12    1    7    6       -0.0000000122
   12    1    8    6        0.0000320484
   12    1    9    6        0.0000041788
   12    1   10    6        0.0000000076
   12    1   11    6        0.0000000059
   12    1   12    6       -0.0001069021
   12    1   13    6       -0.0002517265
   12    1    7    7       -0.0005242808
   12    1    8    7       -0.0000000048
   12    1    9    7       -0.0000000058
   12    1   10    7       -0.0000000146
   12    1   11    7        0.0000000047
   12    1   12    7       -0.0000000078
   12    1   13    7       -0.0000001135
   12    1    8    8        0.0001100802
   12    1    9    8       -0.0002572428
   12    1   10    8        0.0000000066
   12    1   11    8        0.0000000080
   12    1   12    8       -0.0001382853
   12    1   13    8       -0.0002156154
   12    1    9    9       -0.0004236595
   12    1   10    9        0.0000000170
   12    1   11    9        0.0000000332
   12    1   12    9       -0.0000080944
   12    1   13    9        0.0005315902
   12    1   10   10       -0.0009232973
   12    1   11   10       -0.0000000553
   12    1   12   10        0.0000000016
   12    1   13   10       -0.0000000220
   12    1   11   11       -0.0009233784
   12    1   12   11       -0.0000000081
   12    1   13   11       -0.0000000490
   12    1   12   12       -0.0002949997
   12    1   13   12        0.0001122509
   12    1   13   13        0.0003688691
   13    1   13    1        0.0020497961
   13    1    2    2        0.0003971324
   13    1    3    2       -0.0000699425
   13    1    4    2       -0.0000003175
   13    1    5    2       -0.0000001106
   13    1    6    2        0.0003461443
   13    1    7    2       -0.0000001303
   13    1    8    2       -0.0001615006
   13    1    9    2        0.0000259334
   13    1   10    2       -0.0000000770
   13    1   11    2       -0.0000002259
   13    1   12    2        0.0003855547
   13    1   13    2        0.0003648661
   13    1    3    3        0.0000091180
   13    1    4    3       -0.0000000404
   13    1    5    3       -0.0000000165
   13    1    6    3       -0.0000987082
   13    1    7    3       -0.0000001070
   13    1    8    3        0.0000212798
   13    1    9    3       -0.0000095968
   13    1   10    3        0.0000000470
   13    1   11    3        0.0000001353
   13    1   12    3       -0.0001145528
   13    1   13    3       -0.0000765905
   13    1    4    4        0.0000276142
   13    1    5    4        0.0000004619
   13    1    6    4       -0.0000001423
   13    1    7    4       -0.0000000814
   13    1    8    4       -0.0000000003
   13    1    9    4       -0.0000000426
   13    1   10    4        0.0000001512
   13    1   11    4        0.0000352285
   13    1   12    4       -0.0000001072
   13    1   13    4       -0.0000000225
   13    1    5    5        0.0000275504
   13    1    6    5       -0.0000000479
   13    1    7    5        0.0000000897
   13    1    8    5       -0.0000000022
   13    1    9    5       -0.0000000157
   13    1   10    5        0.0000354459
   13    1   11    5        0.0000002602
   13    1   12    5       -0.0000000374
   13    1   13    5       -0.0000000050
   13    1    6    6        0.0001645203
   13    1    7    6       -0.0000001163
   13    1    8    6       -0.0000987070
   13    1    9    6       -0.0000308618
   13    1   10    6       -0.0000000311
   13    1   11    6       -0.0000000919
   13    1   12    6        0.0001642633
   13    1   13    6        0.0001702137
   13    1    7    7        0.0000053847
   13    1    8    7       -0.0000000093
   13    1    9    7       -0.0000001324
   13    1   10    7        0.0000000790
   13    1   11    7       -0.0000000724
   13    1   12    7       -0.0000001267
   13    1   13    7       -0.0000000101
   13    1    8    8        0.0000817227
   13    1    9    8       -0.0000215845
   13    1   10    8       -0.0000000045
   13    1   11    8       -0.0000000106
   13    1   12    8       -0.0001037113
   13    1   13    8       -0.0001501899
   13    1    9    9       -0.0000007796
   13    1   10    9       -0.0000000040
   13    1   11    9       -0.0000000079
   13    1   12    9       -0.0000401243
   13    1   13    9        0.0000211302
   13    1   10   10        0.0000494505
   13    1   11   10        0.0000002298
   13    1   12   10       -0.0000000403
   13    1   13   10       -0.0000000051
   13    1   11   11        0.0000494365
   13    1   12   11       -0.0000001155
   13    1   13   11       -0.0000000160
   13    1   12   12        0.0001663865
   13    1   13   12        0.0001815939
   13    1   13   13        0.0002853839
    2    2    2    2        0.1767009687
    2    2    3    2       -0.0351580413
    2    2    4    2       -0.0000052020
    2    2    5    2       -0.0000031469
    2    2    6    2        0.0035161244
    2    2    7    2       -0.0000001020
    2    2    8    2       -0.0102190460
    2    2    9    2       -0.0174843731
    2    2   10    2       -0.0000009670
    2    2   11    2       -0.0000017779
    2    2   12    2       -0.0020246188
    2    2   13    2        0.0047805666
    2    2    3    3        0.0849402259
    2    2    4    3       -0.0000051686
    2    2    5    3       -0.0000031270
    2    2    6    3       -0.0073812291
    2    2    7    3        0.0000002227
    2    2    8    3        0.0139738891
    2    2    9    3        0.0213786188
    2    2   10    3        0.0000023474
    2    2   11    3        0.0000041044
    2    2   12    3       -0.0018922134
    2    2   13    3       -0.0065179363
    2    2    4    4        0.1159854414
    2    2    5    4       -0.0000000290
    2    2    6    4       -0.0000009471
    2    2    7    4       -0.0000025516
    2    2    8    4       -0.0000023636
    2    2    9    4       -0.0000020932
    2    2   10    4       -0.0000491992
    2    2   11    4        0.0318624597
    2    2   12    4       -0.0000010705
    2    2   13    4        0.0000002443
    2    2    5    5        0.1159853868
    2    2    6    5       -0.0000005723
    2    2    7    5        0.0000042263
    2    2    8    5       -0.0000014196
    2    2    9    5       -0.0000010823
    2    2   10    5        0.0318625205
    2    2   11    5        0.0000491957
    2    2   12    5       -0.0000006297
    2    2   13    5        0.0000002294
    2    2    6    6        0.0877659352
    2    2    7    6       -0.0000003042
    2    2    8    6       -0.0007715908
    2    2    9    6       -0.0083750142
    2    2   10    6       -0.0000004498
    2    2   11    6       -0.0000008188
    2    2   12    6        0.0224519209
    2    2   13    6        0.0086464281
    2    2    7    7        0.0791389387
    2    2    8    7        0.0000001176
    2    2    9    7        0.0000002655
    2    2   10    7        0.0000023455
    2    2   11    7       -0.0000014123
    2    2   12    7       -0.0000005324
    2    2   13    7        0.0000040535
    2    2    8    8        0.0671758381
    2    2    9    8        0.0043823592
    2    2   10    8       -0.0000000916
    2    2   11    8       -0.0000001147
    2    2   12    8        0.0031815853
    2    2   13    8       -0.0105611873
    2    2    9    9        0.0776676176
    2    2   10    9       -0.0000018927
    2    2   11    9       -0.0000032902
    2    2   12    9       -0.0062383586
    2    2   13    9       -0.0082849326
    2    2   10   10        0.0923061774
    2    2   11   10       -0.0000000087
    2    2   12   10       -0.0000009319
    2    2   13   10        0.0000010778
    2    2   11   11        0.0923066207
    2    2   12   11       -0.0000015157
    2    2   13   11        0.0000022196
    2    2   12   12        0.0847371307
    2    2   13   12        0.0013974700
    2    2   13   13        0.0679424719
    3    2    3    2        0.0132232855
    3    2    4    2       -0.0000211052
    3    2    5    2       -0.0000127670
    3    2    6    2       -0.0032498947
    3    2    7    2        0.0000001008
    3    2    8    2        0.0047803278
    3    2    9    2        0.0080571920
    3    2   10    2       -0.0000031970
    3    2   11    2       -0.0000052243
    3    2   12    2       -0.0008598314
    3    2   13    2       -0.0031357585
    3    2    3    3       -0.0066378710
    3    2    4    3       -0.0000221469
    3    2    5    3       -0.0000133963
    3    2    6    3        0.0017587685
    3    2    7    3       -0.0000000574
    3    2    8    3       -0.0016964013
    3    2    9    3       -0.0059124768
    3    2   10    3        0.0000111208
    3    2   11    3        0.0000183925
    3    2   12    3        0.0010379216
    3    2   13    3        0.0018505664
    3    2    4    4       -0.0125483814
    3    2    5    4        0.0000000128
    3    2    6    4       -0.0000042271
    3    2    7    4       -0.0000102897
    3    2    8    4       -0.0000093106
    3    2    9    4       -0.0000057838
    3    2   10    4        0.0000148424
    3    2   11    4       -0.0096210414
    3    2   12    4       -0.0000035058
    3    2   13    4        0.0000019156
    3    2    5    5       -0.0125483656
    3    2    6    5       -0.0000025552
    3    2    7    5        0.0000170099
    3    2    8    5       -0.0000056327
    3    2    9    5       -0.0000035557
    3    2   10    5       -0.0096209301
    3    2   11    5       -0.0000148729
    3    2   12    5       -0.0000021055
    3    2   13    5        0.0000012577
    3    2    6    6       -0.0052458686
    3    2    7    6        0.0000001026
    3    2    8    6        0.0006638625
    3    2    9    6        0.0019774866
    3    2   10    6       -0.0000015667
    3    2   11    6       -0.0000025835
    3    2   12    6       -0.0047157949
    3    2   13    6       -0.0014966972
    3    2    7    7       -0.0020979703
    3    2    8    7       -0.0000000470
    3    2    9    7       -0.0000000639
    3    2   10    7        0.0000101990
    3    2   11    7       -0.0000061481
    3    2   12    7        0.0000000860
    3    2   13    7       -0.0000014931
    3    2    8    8       -0.0024090298
    3    2    9    8       -0.0017326846
    3    2   10    8       -0.0000006527
    3    2   11    8       -0.0000010994
    3    2   12    8        0.0000531612
    3    2   13    8        0.0020450997
    3    2    9    9       -0.0050597842
    3    2   10    9       -0.0000085376
    3    2   11    9       -0.0000141262
    3    2   12    9        0.0015862311
    3    2   13    9        0.0008588222
    3    2   10   10       -0.0087310478
    3    2   11   10        0.0000000241
    3    2   12   10       -0.0000041351
    3    2   13   10        0.0000024807
    3    2   11   11       -0.0087311926
    3    2   12   11       -0.0000068727
    3    2   13   11        0.0000039493
    3    2   12   12       -0.0052114262
    3    2   13   12       -0.0016992502
    3    2   13   13       -0.0027944369
    4    2    4    2        0.0179635435
    4    2    5    2       -0.0000000748
    4    2    6    2       -0.0000079298
    4    2    7    2       -0.0000154110
    4    2    8    2       -0.0000100981
    4    2    9    2       -0.0000009308
    4    2   10    2       -0.0000162331
    4    2   11    2        0.0105047995
    4    2   12    2       -0.0000050077
    4    2   13    2        0.0000024739
    4    2    3    3       -0.0001034116
    4    2    4    3        0.0036681352
    4    2    5    3       -0.0000000051
    4    2    6    3       -0.0000380102
    4    2    7    3       -0.0000593725
    4    2    8    3       -0.0000269065
    4    2    9    3        0.0000318892
    4    2   10    3        0.0000104827
    4    2   11    3       -0.0068033352
    4    2   12    3        0.0000011926
    4    2   13    3        0.0000012220
    4    2    4    4       -0.0000085926
    4    2    5    4       -0.0000078108
    4    2    6    4        0.0013540603
    4    2    7    4        0.0056317053
    4    2    8    4        0.0031711956
    4    2    9    4        0.0025809718
    4    2   10    4        0.0000103524
    4    2   11    4        0.0000171039
    4    2   12    4        0.0017580844
    4    2   13    4       -0.0016435315
    4    2    5    5       -0.0000194377
    4    2    6    5       -0.0000000702
    4    2    7    5       -0.0029519487
    4    2    8    5        0.0000000004
    4    2    9    5       -0.0000007156
    4    2   10    5        0.0000451119
    4    2   11    5        0.0000148540
    4    2   12    5        0.0000032893
    4    2   13    5       -0.0000107137
    4    2    6    6       -0.0000671777
    4    2    7    6       -0.0000161776
    4    2    8    6        0.0000003400
    4    2    9    6       -0.0000177232
    4    2   10    6       -0.0000044427
    4    2   11    6        0.0028115219
    4    2   12    6        0.0000554705
    4    2   13    6       -0.0000004507
    4    2    7    7       -0.0001414532
    4    2    8    7       -0.0000228789
    4    2    9    7       -0.0000174339
    4    2   10    7       -0.0023413205
    4    2   11    7        0.0044497251
    4    2   12    7       -0.0000354624
    4    2   13    7        0.0000154788
    4    2    8    8       -0.0000974717
    4    2    9    8        0.0000048242
    4    2   10    8        0.0000009594
    4    2   11    8       -0.0006426882
    4    2   12    8       -0.0000062554
    4    2   13    8       -0.0000364800
    4    2    9    9       -0.0001183912
    4    2   10    9       -0.0000021513
    4    2   11    9        0.0014938818
    4    2   12    9       -0.0000339768
    4    2   13    9        0.0000319740
    4    2   10   10       -0.0001048338
    4    2   11   10       -0.0000232199
    4    2   12   10       -0.0000052483
    4    2   13   10        0.0000018427
    4    2   11   11       -0.0000344868
    4    2   12   11        0.0029613634
    4    2   13   11       -0.0006420680
    4    2   12   12       -0.0001247759
    4    2   13   12        0.0000229996
    4    2   13   13       -0.0001171549
    5    2    5    2        0.0179635953
    5    2    6    2       -0.0000047924
    5    2    7    2        0.0000254817
    5    2    8    2       -0.0000061045
    5    2    9    2       -0.0000005033
    5    2   10    2        0.0105048733
    5    2   11    2        0.0000162076
    5    2   12    2       -0.0000030165
    5    2   13    2        0.0000015606
    5    2    3    3       -0.0000625518
    5    2    4    3       -0.0000000066
    5    2    5    3        0.0036681550
    5    2    6    3       -0.0000229865
    5    2    7    3        0.0000981570
    5    2    8    3       -0.0000162759
    5    2    9    3        0.0000192488
    5    2   10    3       -0.0068032346
    5    2   11    3       -0.0000105248
    5    2   12    3        0.0000007348
    5    2   13    3        0.0000008262
    5    2    4    4       -0.0000220756
    5    2    5    4        0.0000041335
    5    2    6    4       -0.0000000700
    5    2    7    4       -0.0029520063
    5    2    8    4       -0.0000000001
    5    2    9    4       -0.0000007156
    5    2   10    4       -0.0000120107
    5    2   11    4        0.0000492870
    5    2   12    4        0.0000032894
    5    2   13    4       -0.0000107156
    5    2    5    5        0.0000050973
    5    2    6    5        0.0013536709
    5    2    7    5       -0.0056317966
    5    2    8    5        0.0031711226
    5    2    9    5        0.0025817329
    5    2   10    5       -0.0000092207
    5    2   11    5       -0.0000151773
    5    2   12    5        0.0017544729
    5    2   13    5       -0.0016352859
    5    2    6    6       -0.0000406335
    5    2    7    6        0.0000267399
    5    2    8    6        0.0000001973
    5    2    9    6       -0.0000106944
    5    2   10    6        0.0028106762
    5    2   11    6        0.0000042362
    5    2   12    6        0.0000334603
    5    2   13    6       -0.0000007804
    5    2    7    7       -0.0000855667
    5    2    8    7        0.0000378144
    5    2    9    7        0.0000287801
    5    2   10    7       -0.0044501035
    5    2   11    7       -0.0023411927
    5    2   12    7        0.0000585666
    5    2   13    7       -0.0000259451
    5    2    8    8       -0.0000589551
    5    2    9    8        0.0000029152
    5    2   10    8       -0.0006427225
    5    2   11    8       -0.0000010249
    5    2   12    8       -0.0000037703
    5    2   13    8       -0.0000219863
    5    2    9    9       -0.0000715963
    5    2   10    9        0.0014937728
    5    2   11    9        0.0000024628
    5    2   12    9       -0.0000205253
    5    2   13    9        0.0000194351
    5    2   10   10        0.0000203158
    5    2   11   10        0.0000309597
    5    2   12   10        0.0029617497
    5    2   13   10       -0.0006483684
    5    2   11   11       -0.0001055297
    5    2   12   11        0.0000038971
    5    2   13   11       -0.0000001471
    5    2   12   12       -0.0000755046
    5    2   13   12        0.0000137678
    5    2   13   13       -0.0000711869
    6    2    6    2        0.0065077948
    6    2    7    2       -0.0000001444
    6    2    8    2       -0.0010251023
    6    2    9    2       -0.0033606334
    6    2   10    2       -0.0000015645
    6    2   11    2       -0.0000026276
    6    2   12    2        0.0054154875
    6    2   13    2        0.0023588878
    6    2    3    3        0.0010717737
    6    2    4    3       -0.0000079153
    6    2    5    3       -0.0000047853
    6    2    6    3        0.0024773248
    6    2    7    3        0.0000000241
    6    2    8    3       -0.0010341125
    6    2    9    3        0.0016711314
    6    2   10    3        0.0000040210
    6    2   11    3        0.0000066892
    6    2   12    3       -0.0010798465
    6    2   13    3       -0.0000285994
    6    2    4    4        0.0011725823
    6    2    5    4       -0.0000000088
    6    2    6    4       -0.0000055131
    6    2    7    4       -0.0000033896
    6    2    8    4       -0.0000023173
    6    2    9    4       -0.0000034099
    6    2   10    4       -0.0000048247
    6    2   11    4        0.0030940471
    6    2   12    4       -0.0000004175
    6    2   13    4        0.0000010465
    6    2    5    5        0.0011724160
    6    2    6    5       -0.0000033349
    6    2    7    5        0.0000056024
    6    2    8    5       -0.0000014071
    6    2    9    5       -0.0000020389
    6    2   10    5        0.0030935922
    6    2   11    5        0.0000047259
    6    2   12    5       -0.0000003117
    6    2   13    5        0.0000002798
    6    2    6    6       -0.0021835588
    6    2    7    6        0.0000000887
    6    2    8    6       -0.0009735363
    6    2    9    6        0.0030733308
    6    2   10    6        0.0000001845
    6    2   11    6        0.0000003338
    6    2   12    6       -0.0034092903
    6    2   13    6       -0.0000073160
    6    2    7    7       -0.0000794700
    6    2    8    7        0.0000001461
    6    2    9    7       -0.0000000333
    6    2   10    7        0.0000049284
    6    2   11    7       -0.0000029714
    6    2   12    7        0.0000003456
    6    2   13    7        0.0000035260
    6    2    8    8        0.0023768786
    6    2    9    8        0.0004336374
    6    2   10    8       -0.0000008566
    6    2   11    8       -0.0000014177
    6    2   12    8       -0.0013833545
    6    2   13    8       -0.0001022241
    6    2    9    9        0.0006808269
    6    2   10    9       -0.0000028295
    6    2   11    9       -0.0000047132
    6    2   12    9        0.0024667206
    6    2   13    9        0.0010903577
    6    2   10   10        0.0025223237
    6    2   11   10        0.0000000217
    6    2   12   10       -0.0000028160
    6    2   13   10        0.0000004016
    6    2   11   11        0.0025223641
    6    2   12   11       -0.0000046497
    6    2   13   11        0.0000006732
    6    2   12   12       -0.0023119809
    6    2   13   12        0.0014957713
    6    2   13   13        0.0020697453
    7    2    7    2        0.0022807492
    7    2    8    2        0.0000000403
    7    2    9    2        0.0000001054
    7    2   10    2        0.0000076522
    7    2   11    2       -0.0000046117
    7    2   12    2       -0.0000001624
    7    2   13    2        0.0000002711
    7    2    3    3       -0.0000000347
    7    2    4    3       -0.0000150011
    7    2    5    3        0.0000248014
[...]
   10    7   10   10        0.0000000741
   10    7   11   10        0.0000188630
   10    7   12   10       -0.0007633755
   10    7   13   10        0.0003329267
   10    7   11   11        0.0000643811
   10    7   12   11       -0.0004027817
   10    7   13   11        0.0001740345
   10    7   12   12        0.0000672784
   10    7   13   12       -0.0000091484
   10    7   13   13        0.0000681010
   11    7   11    7        0.0036024663
   11    7   12    7       -0.0000235450
   11    7   13    7        0.0000110057
   11    7    8    8       -0.0000303980
   11    7    9    8        0.0000012174
   11    7   10    8        0.0001749187
   11    7   11    8       -0.0003313035
   11    7   12    8       -0.0000018741
   11    7   13    8       -0.0000154701
   11    7    9    9       -0.0000395269
   11    7   10    9       -0.0008635662
   11    7   11    9        0.0016360392
   11    7   12    9       -0.0000126402
   11    7   13    9        0.0000100507
   11    7   10   10       -0.0000383252
   11    7   11   10       -0.0000321500
   11    7   12   10       -0.0004035130
   11    7   13   10        0.0001770184
   11    7   11   11        0.0000001535
   11    7   12   11        0.0007633846
   11    7   13   11       -0.0003318148
   11    7   12   12       -0.0000405587
   11    7   13   12        0.0000055103
   11    7   13   13       -0.0000409447
   12    7   12    7        0.0038586763
   12    7   13    7       -0.0018775118
   12    7    8    8        0.0000001283
   12    7    9    8        0.0000000271
   12    7   10    8        0.0000082936
   12    7   11    8       -0.0000049997
   12    7   12    8       -0.0000000791
   12    7   13    8       -0.0000000540
   12    7    9    9       -0.0000000756
   12    7   10    9        0.0000314354
   12    7   11    9       -0.0000189555
   12    7   12    9        0.0000003092
   12    7   13    9        0.0000019091
   12    7   10   10        0.0007607563
   12    7   11   10        0.0004018088
   12    7   12   10        0.0000097408
   12    7   13   10       -0.0000101400
   12    7   11   11       -0.0007608947
   12    7   12   11       -0.0000058707
   12    7   13   11        0.0000061400
   12    7   12   12       -0.0000001956
   12    7   13   12       -0.0000002809
   12    7   13   13        0.0000017829
   13    7   13    7        0.0029295067
   13    7    8    8        0.0000037336
   13    7    9    8        0.0000000808
   13    7   10    8       -0.0000026408
   13    7   11    8        0.0000015794
   13    7   12    8       -0.0000005472
   13    7   13    8       -0.0000001906
   13    7    9    9        0.0000021915
   13    7   10    9       -0.0000105291
   13    7   11    9        0.0000062901
   13    7   12    9        0.0000020961
   13    7   13    9        0.0000016553
   13    7   10   10       -0.0002548721
   13    7   11   10       -0.0001357542
   13    7   12   10       -0.0000053868
   13    7   13   10        0.0000024784
   13    7   11   11        0.0002592315
   13    7   12   11        0.0000032066
   13    7   13   11       -0.0000014456
   13    7   12   12        0.0000016702
   13    7   13   12        0.0000023395
   13    7   13   13        0.0000023092
    8    8    8    8        0.0651780560
    8    8    9    8        0.0001385455
    8    8   10    8       -0.0000256123
    8    8   11    8       -0.0000425004
    8    8   12    8       -0.0003134559
    8    8   13    8       -0.0019760337
    8    8    9    9        0.0587505984
    8    8   10    9       -0.0000456209
    8    8   11    9       -0.0000757180
    8    8   12    9        0.0011243362
    8    8   13    9        0.0024952570
    8    8   10   10        0.0621584699
    8    8   11   10        0.0000003175
    8    8   12   10       -0.0000231621
    8    8   13   10        0.0000001029
    8    8   11   11        0.0621587745
    8    8   12   11       -0.0000384326
    8    8   13   11        0.0000000221
    8    8   12   12        0.0604230471
    8    8   13   12        0.0020633711
    8    8   13   13        0.0635660218
    9    8    9    8        0.0027185363
    9    8   10    8       -0.0000178117
    9    8   11    8       -0.0000295594
    9    8   12    8        0.0008566376
    9    8   13    8        0.0007156444
    9    8    9    9       -0.0004010311
    9    8   10    9        0.0000029558
    9    8   11    9        0.0000048939
    9    8   12    9       -0.0002705532
    9    8   13    9        0.0009064274
    9    8   10   10        0.0005477382
    9    8   11   10       -0.0000000575
    9    8   12   10        0.0000020095
    9    8   13   10       -0.0000125074
    9    8   11   11        0.0005476721
    9    8   12   11        0.0000033336
    9    8   13   11       -0.0000207520
    9    8   12   12       -0.0003927346
    9    8   13   12        0.0007366402
    9    8   13   13       -0.0002503737
   10    8   10    8        0.0039508245
   10    8   11    8        0.0000002666
   10    8   12    8       -0.0000058702
   10    8   13    8       -0.0000159114
   10    8    9    9       -0.0000057141
   10    8   10    9        0.0000405643
   10    8   11    9       -0.0000000629
   10    8   12    9        0.0000004738
   10    8   13    9       -0.0000275724
   10    8   10   10        0.0000019968
   10    8   11   10        0.0000050423
   10    8   12   10       -0.0001158368
   10    8   13   10        0.0011105518
   10    8   11   11       -0.0000127418
   10    8   12   11       -0.0000001087
   10    8   13   11        0.0000002922
   10    8   12   12       -0.0000122111
   10    8   13   12       -0.0000202318
   10    8   13   13       -0.0000273798
   11    8   11    8        0.0039510485
   11    8   12    8       -0.0000097523
   11    8   13    8       -0.0000265246
   11    8    9    9       -0.0000094870
   11    8   10    9       -0.0000000648
   11    8   11    9        0.0000405217
   11    8   12    9        0.0000007865
   11    8   13    9       -0.0000457398
   11    8   10   10       -0.0000143547
   11    8   11   10       -0.0000008506
   11    8   12   10       -0.0000001092
   11    8   13   10        0.0000002942
   11    8   11   11       -0.0000032790
   11    8   12   11       -0.0001158937
   11    8   13   11        0.0011117636
   11    8   12   12       -0.0000202757
   11    8   13   12       -0.0000335948
   11    8   13   13       -0.0000456101
   12    8   12    8        0.0022370942
   12    8   13    8        0.0002197819
   12    8    9    9        0.0006411364
   12    8   10    9        0.0000015937
   12    8   11    9        0.0000026333
   12    8   12    9       -0.0007861210
   12    8   13    9       -0.0006837036
   12    8   10   10        0.0008092822
   12    8   11   10        0.0000001747
   12    8   12   10       -0.0000013119
   12    8   13   10       -0.0000062859
   12    8   11   11        0.0008094983
   12    8   12   11       -0.0000021935
   12    8   13   11       -0.0000104484
   12    8   12   12        0.0021999229
   12    8   13   12       -0.0001222738
   12    8   13   13        0.0003564063
   13    8   13    8        0.0068438759
   13    8    9    9       -0.0022150007
   13    8   10    9       -0.0000301511
   13    8   11    9       -0.0000500392
   13    8   12    9        0.0008196161
   13    8   13    9       -0.0003984165
   13    8   10   10       -0.0041305879
   13    8   11   10       -0.0000001374
   13    8   12   10       -0.0000154492
   13    8   13   10       -0.0000051288
   13    8   11   11       -0.0041305358
   13    8   12   11       -0.0000256900
   13    8   13   11       -0.0000087405
   13    8   12   12       -0.0028657306
   13    8   13   12        0.0005701645
   13    8   13   13       -0.0012206898
    9    9    9    9        0.0639853068
    9    9   10    9       -0.0000766052
    9    9   11    9       -0.0001271775
    9    9   12    9       -0.0008106156
    9    9   13    9       -0.0034559482
    9    9   10   10        0.0644972463
    9    9   11   10        0.0000009237
    9    9   12   10       -0.0000215467
    9    9   13   10        0.0000175302
    9    9   11   11        0.0644983525
    9    9   12   11       -0.0000357342
    9    9   13   11        0.0000291262
    9    9   12   12        0.0617888686
    9    9   13   12       -0.0009427563
    9    9   13   13        0.0593307263
   10    9   10    9        0.0041320644
   10    9   11    9        0.0000008985
   10    9   12    9       -0.0000148569
   10    9   13    9        0.0000180559
   10    9   10   10        0.0000263398
   10    9   11   10        0.0000042194
   10    9   12   10        0.0000514692
   10    9   13   10       -0.0009849305
   10    9   11   11       -0.0000927874
   10    9   12   11       -0.0000006952
   10    9   13   11        0.0000024629
   10    9   12   12       -0.0000528319
   10    9   13   12        0.0000097018
   10    9   13   13       -0.0000663542
   11    9   11    9        0.0041330427
   11    9   12    9       -0.0000246381
   11    9   13    9        0.0000299414
   11    9   10   10       -0.0000634771
   11    9   11   10       -0.0000515146
   11    9   12   10       -0.0000006962
   11    9   13   10        0.0000024605
   11    9   11   11       -0.0000447747
   11    9   12   11        0.0000506814
   11    9   13   11       -0.0009825565
   11    9   12   12       -0.0000877167
   11    9   13   12        0.0000160404
   11    9   13   13       -0.0001100324
   12    9   12    9        0.0031219497
   12    9   13    9       -0.0001272107
   12    9   10   10       -0.0011216738
   12    9   11   10        0.0000001425
   12    9   12   10       -0.0000116183
   12    9   13   10        0.0000051812
   12    9   11   11       -0.0011216880
   12    9   12   11       -0.0000192779
   12    9   13   11        0.0000084711
   12    9   12   12       -0.0023465782
   12    9   13   12        0.0000718830
   12    9   13   13        0.0010402386
   13    9   13    9        0.0073705105
   13    9   10   10       -0.0034294728
   13    9   11   10        0.0000005088
   13    9   12   10        0.0000062166
   13    9   13   10       -0.0000239730
   13    9   11   11       -0.0034299846
   13    9   12   11        0.0000103075
   13    9   13   11       -0.0000397214
   13    9   12   12       -0.0028663936
   13    9   13   12        0.0033133000
   13    9   13   13        0.0019327380
   10   10   10   10        0.0743073805
   10   10   11   10       -0.0001419580
   10   10   12   10        0.0000071775
   10   10   13   10       -0.0000042286
   10   10   11   11        0.0687058435
   10   10   12   11       -0.0000279748
   10   10   13   11        0.0000180314
   10   10   12   12        0.0656969615
   10   10   13   12       -0.0000504599
   10   10   13   13        0.0614442840
   11   10   11   10        0.0029948241
   11   10   12   10        0.0000064864
   11   10   13   10       -0.0000043472
   11   10   11   11        0.0001420423
   11   10   12   11       -0.0000104632
   11   10   13   11        0.0000065133
   11   10   12   12        0.0000007179
   11   10   13   12       -0.0000005668
   11   10   13   13        0.0000007260
   12   10   12   10        0.0021981686
   12   10   13   10        0.0000042730
   12   10   11   11       -0.0000313378
   12   10   12   11       -0.0000000528
   12   10   13   11       -0.0000000710
   12   10   12   12       -0.0000384969
   12   10   13   12        0.0000012049
   12   10   13   13       -0.0000341687
   13   10   13   10        0.0016874151
   13   10   11   11        0.0000201235
   13   10   12   11       -0.0000000720
   13   10   13   11       -0.0000013819
   13   10   12   12        0.0000095580
   13   10   13   12       -0.0000176790
   13   10   13   13        0.0000002758
   11   11   11   11        0.0743078785
   11   11   12   11       -0.0000118330
   11   11   13   11        0.0000079320
   11   11   12   12        0.0656979188
   11   11   13   12       -0.0000486299
   11   11   13   13        0.0614442384
   12   11   12   11        0.0021982918
   12   11   13   11        0.0000072128
   12   11   12   12       -0.0000639095
   12   11   13   12        0.0000019363
   12   11   13   13       -0.0000565986
   13   11   13   11        0.0016859051
   13   11   12   12        0.0000157455
   13   11   13   12       -0.0000293439
   13   11   13   13        0.0000002224
   12   12   12   12        0.0720425605
   12   12   13   12       -0.0005895529
   12   12   13   13        0.0611989221
   13   12   13   12        0.0038970257
   13   12   13   13        0.0016928684
   13   13   13   13        0.0649295422
 end_two_electron_integrals


 output epsi filename:./pspw_hf_LiH.emovecs

 Total PSPW energy     :  -0.7069190178E+00


=== Spin Contamination ===

 <Sexact^2> =    0.0000000000000000     
 <S^2>      =    0.0000000000000000     



== Center of Charge ==

spin up     (    0.0000,    0.0000,    2.8974 )
spin down   (    0.0000,    0.0000,    2.8974 )
     total  (    0.0000,    0.0000,    2.8974 )
ionic       (    0.0000,    0.0000,    1.1811 )


== Molecular Dipole wrt Center of Mass ==

mu   =  (   -0.0000,   -0.0000,   -3.4327 ) au
|mu| =     3.4327 au,       8.7245 Debye

 output psi filename:./pspw_hf_LiH.movecs

 Writing Crystallographic Information File:./LiH.cif
   - cell not shifted (nwpw:cif_shift_cell .false.)


== Timing ==

cputime in seconds
  prologue    :   0.891412E+02
  main loop   :   0.163793E+04
  epilogue    :   0.794624E-01
  total       :   0.172715E+04
  cputime/step:   0.930643E+01       (     176 evalulations,      74 linesearches)


Time spent doing                        total          step       percent
  total time                 :   0.172716E+04  0.981343E+01       100.0 %
  i/o time                   :   0.170353E+01  0.967914E-02         0.1 %
  FFTs                       :   0.135924E+04  0.772295E+01        78.7 %
  dot products               :   0.932326E+01  0.529730E-01         0.5 %
  geodesic                   :   0.127098E+00  0.722148E-03         0.0 %
  ffm_dgemm                  :   0.332791E-01  0.189086E-03         0.0 %
  fmf_dgemm                  :   0.531748E-01  0.302130E-03         0.0 %
  mmm_dgemm                  :   0.402986E-02  0.228969E-04         0.0 %
  m_diagonalize              :   0.164557E-02  0.934983E-05         0.0 %
  local pseudopotentials     :   0.597539E-02  0.339511E-04         0.0 %
  non-local pseudopotentials :   0.499954E+01  0.284065E-01         0.3 %
  structure factors          :   0.986103E+00  0.560286E-02         0.1 %
  phase factors              :   0.249470E-04  0.141744E-06         0.0 %
  masking and packing        :   0.274170E+02  0.155778E+00         1.6 %
  queue fft                  :   0.203382E+01  0.115558E-01         0.1 %
  queue fft (serial)         :   0.750640E+00  0.426500E-02         0.0 %
  queue fft (message passing):   0.119659E+01  0.679880E-02         0.1 %
  HFX potential              :   0.139027E+04  0.789926E+01        80.5 %
  non-local psp FFM          :   0.389535E+01  0.221327E-01         0.2 %
  non-local psp FMF          :   0.264148E+00  0.150084E-02         0.0 %
  non-local psp FFM A        :   0.507794E+00  0.288520E-02         0.0 %
  non-local psp FFM B        :   0.456441E+00  0.259341E-02         0.0 %

== HFX Counters ==
  HFX Evalulations         =   176
  Lin ACE HFX Evalulations =     0


     >>>  JOB COMPLETED     AT Sun May  4 20:10:48 2025  <<<

 Task  times  cpu:     1613.9s     wall:     1727.2s


                                NWChem Input Module
                                -------------------


 Summary of allocated global arrays
-----------------------------------
  No active global arrays


MA_summarize_allocated_blocks: starting scan ...
MA_summarize_allocated_blocks: scan completed: 0 heap blocks, 0 stack blocks
MA usage statistics:

	allocation statistics:
					      heap	     stack
					      ----	     -----
	current number of blocks	         0	         0
	maximum number of blocks	       315	        19
	current total bytes		         0	         0
	maximum total bytes		 125579680	  29398952
	maximum total K-bytes		    125580	     29399
	maximum total M-bytes		       126	        30


                                     CITATION
                                     --------
                Please cite the following reference when publishing
                           results obtained with NWChem:

          E. Apra, E. J. Bylaska, W. A. de Jong, N. Govind, K. Kowalski,
       T. P. Straatsma, M. Valiev, H. J. J. van Dam, Y. Alexeev, J. Anchell,
       V. Anisimov, F. W. Aquino, R. Atta-Fynn, J. Autschbach, N. P. Bauman,
     J. C. Becca, D. E. Bernholdt, K. Bhaskaran-Nair, S. Bogatko, P. Borowski,
         J. Boschen, J. Brabec, A. Bruner, E. Cauet, Y. Chen, G. N. Chuev,
      C. J. Cramer, J. Daily, M. J. O. Deegan, T. H. Dunning Jr., M. Dupuis,
   K. G. Dyall, G. I. Fann, S. A. Fischer, A. Fonari, H. Fruchtl, L. Gagliardi,
      J. Garza, N. Gawande, S. Ghosh, K. Glaesemann, A. W. Gotz, J. Hammond,
       V. Helms, E. D. Hermes, K. Hirao, S. Hirata, M. Jacquelin, L. Jensen,
   B. G. Johnson, H. Jonsson, R. A. Kendall, M. Klemm, R. Kobayashi, V. Konkov,
      S. Krishnamoorthy, M. Krishnan, Z. Lin, R. D. Lins, R. J. Littlefield,
      A. J. Logsdail, K. Lopata, W. Ma, A. V. Marenich, J. Martin del Campo,
   D. Mejia-Rodriguez, J. E. Moore, J. M. Mullin, T. Nakajima, D. R. Nascimento,
    J. A. Nichols, P. J. Nichols, J. Nieplocha, A. Otero-de-la-Roza, B. Palmer,
    A. Panyala, T. Pirojsirikul, B. Peng, R. Peverati, J. Pittner, L. Pollack,
   R. M. Richard, P. Sadayappan, G. C. Schatz, W. A. Shelton, D. W. Silverstein,
   D. M. A. Smith, T. A. Soares, D. Song, M. Swart, H. L. Taylor, G. S. Thomas,
            V. Tipparaju, D. G. Truhlar, K. Tsemekhman, T. Van Voorhis,
      A. Vazquez-Mayagoitia, P. Verma, O. Villa, A. Vishnu, K. D. Vogiatzis,
        D. Wang, J. H. Weare, M. J. Williamson, T. L. Windus, K. Wolinski,
        A. T. Wong, Q. Wu, C. Yang, Q. Yu, M. Zacharias, Z. Zhang, Y. Zhao,
                                and R. J. Harrison
                        "NWChem: Past, present, and future
                         J. Chem. Phys. 152, 184102 (2020)
                               doi:10.1063/5.0004997

                                      AUTHORS
                                      -------
  E. Apra, E. J. Bylaska, N. Govind, K. Kowalski, M. Valiev, D. Mejia-Rodriguez,
       A. Kunitsa, N. P. Bauman, A. Panyala, W. A. de Jong, T. P. Straatsma,
   H. J. J. van Dam, D. Wang, T. L. Windus, J. Hammond, J. Autschbach, A. Woods,
    K. Bhaskaran-Nair, J. Brabec, K. Lopata, S. A. Fischer, S. Krishnamoorthy,
     M. Jacquelin, W. Ma, M. Klemm, O. Villa, Y. Chen, V. Anisimov, F. Aquino,
     S. Hirata, M. T. Hackler, E. Hermes, L. Jensen, J. E. Moore, J. C. Becca,
      V. Konjkov, T. Risthaus, M. Malagoli, A. Marenich, A. Otero-de-la-Roza,
        J. Mullin, P. Nichols, R. Peverati, J. Pittner, Y. Zhao, P.-D. Fan,
        A. Fonari, M. J. Williamson, R. J. Harrison, J. R. Rehr, M. Dupuis,
     D. Silverstein, D. M. A. Smith, J. Nieplocha, V. Tipparaju, M. Krishnan,
     B. E. Van Kuiken, A. Vazquez-Mayagoitia, M. Swart, Q. Wu, T. Van Voorhis,
     A. A. Auer, M. Nooijen, L. D. Crosby, E. Brown, G. Cisneros, G. I. Fann,
   H. Fruchtl, J. Garza, K. Hirao, R. A. Kendall, J. A. Nichols, K. Tsemekhman,
    K. Wolinski, J. Anchell, D. E. Bernholdt, P. Borowski, T. Clark, D. Clerc,
   H. Dachsel, M. J. O. Deegan, K. Dyall, D. Elwood, E. Glendening, M. Gutowski,
   A. C. Hess, J. Jaffe, B. G. Johnson, J. Ju, R. Kobayashi, R. Kutteh, Z. Lin,
   R. Littlefield, X. Long, B. Meng, T. Nakajima, S. Niu, L. Pollack, M. Rosing,
   K. Glaesemann, G. Sandrone, M. Stave, H. Taylor, G. Thomas, J. H. van Lenthe,
                               A. T. Wong, Z. Zhang.

 Total times  cpu:     1613.9s     wall:     1727.2s
