 argument  1 = ../data/PW_LiH_data/3x3_aperiodic/NWChem/12nocovo/H1Li1-3.0.nw



============================== echo of input deck ==============================
title "swnc: e theory=pspw4 xc=pbe formula=LiH charge=0 mult=1"
#machinejob:expert

echo

start pspw_hf_LiH

memory heap 1200 mb stack 2400 mb global 400 mb

charge 0

geometry
Li    0.00000    0.00000   -1.50000
H     0.00000    0.00000    1.50000
end

nwpw
  ### pseudopotential block begin ###
  ### pseudopotential block end   ###
  simulation_cell
     SC 28.345889835
     boundary_conditions aperiodic
  end

  cutoff 50.0
  mult 1
  xc hf
  lmbfgs
  tolerances 1.0e-9 1.0e-9

  virtual 12
end
set nwpw:cif_filename LiH

#set nwpw:CI_maxit_orb 15
#set nwpw:CI_maxit_linesearch 15

set nwpw:2qintegrals .true.
#set nwpw:3x3_virtual .true.

task pspw energy
================================================================================


                                         
                                         


             Northwest Computational Chemistry Package (NWChem) 7.2.3
             --------------------------------------------------------


                    Environmental Molecular Sciences Laboratory
                       Pacific Northwest National Laboratory
                                Richland, WA 99352

                              Copyright (c) 1994-2022
                       Pacific Northwest National Laboratory
                            Battelle Memorial Institute

             NWChem is an open-source computational chemistry package
                        distributed under the terms of the
                      Educational Community License (ECL) 2.0
             A copy of the license is included with this distribution
                              in the LICENSE.TXT file

                                  ACKNOWLEDGMENT
                                  --------------

            This software and its documentation were developed at the
            EMSL at Pacific Northwest National Laboratory, a multiprogram
            national laboratory, operated for the U.S. Department of Energy
            by Battelle under Contract Number DE-AC05-76RL01830. Support
            for this work was provided by the Department of Energy Office
            of Biological and Environmental Research, Office of Basic
            Energy Sciences, and the Office of Advanced Scientific Computing.


           Job information
           ---------------

    hostname        = mqs-al
    program         = nwchem
    date            = Sun May  4 20:10:50 2025

    compiled        = Thu_Oct_31_08:55:15_2024
    source          = /home/conda/feedstock_root/build_artifacts/nwchem_1730356057992/work
    nwchem branch   = 7.2.3
    nwchem revision = c400b04
    ga revision     = 5.8.0
    use scalapack   = T
    input           = ../data/PW_LiH_data/3x3_aperiodic/NWChem/12nocovo/H1Li1-3.0.nw
    prefix          = pspw_hf_LiH.
    data base       = ./pspw_hf_LiH.db
    status          = startup
    nproc           =       24
    time left       =     -1s



           Memory information
           ------------------

    heap     =  157286400 doubles =   1200.0 Mbytes
    stack    =  314572797 doubles =   2400.0 Mbytes
    global   =   52428800 doubles =    400.0 Mbytes (distinct from heap & stack)
    total    =  524287997 doubles =   4000.0 Mbytes
    verify   = yes
    hardfail = no 


           Directory information
           ---------------------

  0 permanent = .
  0 scratch   = .




                                NWChem Input Module
                                -------------------


              swnc: e theory=pspw4 xc=pbe formula=LiH charge=0 mult=1
              -------------------------------------------------------

 Scaling coordinates for geometry "geometry" by  1.889725989
 (inverse scale =  0.529177249)

  zeroes
  zeroes
  zeroes
  zeroes
  zeroes
  zeroes
  zeroes
  zeroes
  zeroes
  zeroes
  zeroes
  zeroes
  zeroes
  zeroes
  zeroes
  zeroes
  zeroes
  zeroes
  zeroes
  zeroes
  zeroes
  zeroes
  zeroes
  zeroes
  zeroes
  zeroes
  zeroes
  zeroes
  zeroes
  zeroes
  zeroes
  zeroes
  zeroes
  zeroes
  zeroes
  zeroes
  zeroes
  zeroes
  zeroes
  zeroes
  zeroes
  zeroes
  zeroes
  zeroes
  zeroes
  zeroes
  zeroes
  zeroes
 ORDER OF PRIMARY AXIS IS BEING SET TO 4
 C4V symmetry detected

          ------
          auto-z
          ------
     1 autoz failed with cvr_scaling = 1.2 changing to 1.3
     2 autoz failed with cvr_scaling = 1.3 changing to 1.4
     3 autoz failed with cvr_scaling = 1.4 changing to 1.5
     4 autoz failed with cvr_scaling = 1.5 changing to 1.6
     5 autoz failed with cvr_scaling = 1.6 changing to 1.7

 AUTOZ failed to generate good internal coordinates.
 Cartesian coordinates will be used in optimizations.



                             Geometry "geometry" -> ""
                             -------------------------

 Output coordinates in angstroms (scale by  1.889725989 to convert to a.u.)

  No.       Tag          Charge          X              Y              Z
 ---- ---------------- ---------- -------------- -------------- --------------
    1 Li                   3.0000     0.00000000     0.00000000    -0.75000000
    2 H                    1.0000     0.00000000     0.00000000     2.25000000

      Atomic Mass 
      ----------- 

      Li                 7.016000
      H                  1.007825


 Effective nuclear repulsion energy (a.u.)       0.5291772490

            Nuclear Dipole moment (a.u.) 
            ----------------------------
        X                 Y               Z
 ---------------- ---------------- ----------------
     0.0000000000     0.0000000000     0.0000000000

      Symmetry information
      --------------------

 Group name             C4v       
 Group number             18
 Group order               8
 No. of unique centers     2

      Symmetry unique atoms

     1    2


            XYZ format geometry
            -------------------
     2
 geometry
 Li                    0.00000000     0.00000000    -0.75000000
 H                     0.00000000     0.00000000     2.25000000

          ****************************************************
          *                                                  *
          *               NWPW PSPW Calculation              *
          *                                                  *
          * [ (Grassmann/Stiefel manifold implementation)  ] *
          *                                                  *
          *      [ NorthWest Chemistry implementation ]      *
          *                                                  *
          *            version #5.10   06/12/02              *
          *                                                  *
          *    This code was developed by Eric J. Bylaska,   *
          *    and was based upon algorithms and code        *
          *    developed by the group of Prof. John H. Weare *
          *                                                  *
          ****************************************************
     >>>  JOB STARTED       AT Sun May  4 20:10:50 2025  <<<
          ================ input data ========================

 input psi filename:./pspw_hf_LiH.movecs

 number of processors used:        24
 processor grid           :  24 x   1
 parallel mapping         :2d-hilbert
 parallel mapping         :  balanced
 number of threads        :         1
 parallel io              :       off

 options:
      boundary conditions  = aperiodic   (version4)
      electron spin        = restricted
      exchange-correlation = Hartree-Fock
      - HFX relaxed
      - HFX restricted orbitals :    1
      - HFX free-space coulomb solver


 elements involved in the cluster:
      1: Li  valence charge:  1.0000  lmax=  1
             comment    : Hamann pseudopotential
             pseudpotential type            :   0
             highest angular component      :   1
             local potential used           :   1
             number of non-local projections:   1
             aperiodic cutoff radius        :  1.000
             semicore corrections included  :  1.000 (radius)  0.769 (charge)
             cutoff =   1.869   1.551

      2: H   valence charge:  1.0000  lmax=  1
             comment    : Parameterized (Chem.Phys.Lett., vol 322, page 447) Hamman psp
             pseudpotential type            :   0
             highest angular component      :   1
             local potential used           :   1
             number of non-local projections:   1
             aperiodic cutoff radius        :  1.000
             cutoff =   0.800   0.800


 total charge:   0.000

 atomic composition:
     Li  :    1     H   :    1

 number of electrons: spin up=     1 (   1 per task)  down=     1 (   1 per task) (Fourier space)
 number of orbitals : spin up=     1 (   1 per task)  down=     1 (   1 per task) (Fourier space)

 supercell:
      cell_name:  cell_default                                      
      lattice:    a1=<  28.346   0.000   0.000 >
                  a2=<   0.000  28.346   0.000 >
                  a3=<   0.000   0.000  28.346 >
      reciprocal: b1=<   0.222   0.000   0.000 >
                  b2=<   0.000   0.222   0.000 >
                  b3=<   0.000   0.000   0.222 >
      lattice:    a=      28.346 b=     28.346 c=      28.346
                  alpha=  90.000 beta=  90.000 gamma=  90.000
                  omega=     22775.6

      density cutoff=100.000  fft=140x140x140(   544264 waves    22677 per task)
      wavefnc cutoff= 50.000  fft=140x140x140(   192294 waves     8012 per task)

 technical parameters:
      time step=      5.80     fictitious mass=  400000.0
      tolerance=0.100E-08 (energy)   0.100E-08 (density)
      maximum iterations =      1000 (   10 inner    100 outer )





== Energy Calculation ==


          ============ Grassmann lmbfgs iteration ============
     >>>  ITERATION STARTED AT Sun May  4 20:12:19 2025  <<<
    iter.           Energy         DeltaE       DeltaRho 
    ------------------------------------------------------
      10   -0.6729729647E+00   -0.18889E-02    0.15213E-01
     -  10 steepest descent iterations performed
      20   -0.6787680463E+00   -0.16100E-03    0.13723E-03
      30   -0.6791521129E+00   -0.12104E-04    0.83757E-05
      40   -0.6791947995E+00   -0.12125E-05    0.42446E-06
      50   -0.6791996173E+00   -0.12869E-06    0.23288E-07
      60   -0.6792002215E+00   -0.28021E-07    0.22166E-08
      70   -0.6792003507E+00   -0.60486E-08    0.45862E-09
      80   -0.6792003790E+00   -0.15559E-08    0.16132E-09
      90   -0.6792003826E+00   -0.99827E-09    0.14274E-10
  *** tolerance ok. iteration terminated
     >>>  ITERATION ENDED   AT Sun May  4 20:14:03 2025  <<<


==  Summary Of Results  ==

 number of electrons: spin up=    1.00000  down=    1.00000 (real space)

 total     energy    :  -0.6792003826E+00 (   -0.33960E+00/ion)
 total orbital energy:  -0.4652183229E+00 (   -0.46522E+00/electron)
 hartree   energy    :   0.7807489521E+00 (    0.78075E+00/electron)
 exc-corr  energy    :   0.0000000000E+00 (    0.00000E+00/electron)
 HF exchange energy  :  -0.3903744761E+00 (   -0.39037E+00/electron)
 ion-ion   energy    :   0.1763924163E+00 (    0.88196E-01/ion)

 kinetic (planewave) :   0.4689993092E+00 (    0.46900E+00/electron)
 V_local (planewave) :  -0.1623049220E+01 (   -0.16230E+01/electron)
 V_nl    (planewave) :  -0.9191736438E-01 (   -0.91917E-01/electron)
 V_Coul  (planewave) :   0.1561497904E+01 (    0.15615E+01/electron)
 V_xc.   (planewave) :   0.0000000000E+00 (    0.00000E+00/electron)
 K.S. HFX energy     :  -0.7807489521E+00 (   -0.78075E+00/electron)
 Virial Coefficient  :  -0.3272258123E+00

 orbital energies:
    -0.2326092E+00 (  -6.330eV)


== Virtual Orbital Calculation ==


 input epsi filename:./pspw_hf_LiH.emovecs
     orbital   1 current e=-0.340E-01 (error=0.922E-09) iterations 118(  65 preconditioned, Ep,Sp= 20.0  200.0)
     orbital   2 current e= 0.220E-02 (error=0.273E-08) iterations 121(  65 preconditioned, Ep,Sp= 20.0  200.0)
     orbital   2 current e= 0.220E-02 (error=0.991E-09) iterations  18(   1 preconditioned, Ep,Sp= 20.0  200.0)
     orbital   3 current e= 0.981E-02 (error=0.973E-09) iterations 111(  43 preconditioned, Ep,Sp= 20.0  200.0)
     orbital   4 current e= 0.981E-02 (error=0.973E-09) iterations 111(  43 preconditioned, Ep,Sp= 20.0  200.0)
     orbital   5 current e= 0.190E-01 (error=0.307E-07) iterations 121(  83 preconditioned, Ep,Sp= 20.0  200.0)
     orbital   5 current e= 0.190E-01 (error=0.989E-09) iterations  69(   1 preconditioned, Ep,Sp= 20.0  200.0)
     orbital   6 current e= 0.202E-01 (error=0.902E-09) iterations  75(  36 preconditioned, Ep,Sp= 20.0  200.0)
     orbital   7 current e= 0.303E-01 (error=0.213E-07) iterations 121(  70 preconditioned, Ep,Sp= 20.0  200.0)
     orbital   7 current e= 0.303E-01 (error=0.909E-09) iterations 104(   1 preconditioned, Ep,Sp= 20.0  200.0)
     orbital   8 current e= 0.338E-01 (error=0.148E-07) iterations 121(  50 preconditioned, Ep,Sp= 20.0  200.0)
     orbital   8 current e= 0.338E-01 (error=0.970E-09) iterations  40(   1 preconditioned, Ep,Sp= 20.0  200.0)
     orbital   9 current e= 0.346E-01 (error=0.497E-07) iterations 121(  94 preconditioned, Ep,Sp= 20.0  200.0)
     orbital   9 current e= 0.346E-01 (error=0.999E-09) iterations  80(   1 preconditioned, Ep,Sp= 20.0  200.0)
     orbital  10 current e= 0.346E-01 (error=0.497E-07) iterations 121(  94 preconditioned, Ep,Sp= 20.0  200.0)
     orbital  10 current e= 0.346E-01 (error=0.999E-09) iterations  80(   1 preconditioned, Ep,Sp= 20.0  200.0)
     orbital  11 current e= 0.422E-01 (error=0.996E-08) iterations 121(  77 preconditioned, Ep,Sp= 20.0  200.0)
     orbital  11 current e= 0.422E-01 (error=0.936E-09) iterations  28(   1 preconditioned, Ep,Sp= 20.0  200.0)
     orbital  12 current e= 0.618E-01 (error=0.112E-05) iterations 121( 120 preconditioned, Ep,Sp= 20.0  200.0)
     orbital  12 current e= 0.434E-01 (error=0.583E-04) iterations 121( 120 preconditioned, Ep,Sp= 20.0  200.0)
     orbital  12 current e= 0.619E-01 (error=0.320E-05) iterations 121( 120 preconditioned, Ep,Sp= 20.0  200.0)
     orbital  12 current e= 0.595E-01 (error=0.178E-03) iterations 121( 120 preconditioned, Ep,Sp= 20.0  200.0)
     orbital  12 current e= 0.418E-01 (error=0.820E-07) iterations 121( 107 preconditioned, Ep,Sp= 20.0  200.0)
     orbital  12 current e= 0.418E-01 (error=0.443E-08) iterations 121(   1 preconditioned, Ep,Sp= 20.0  200.0)
     orbital  12 current e= 0.418E-01 (error=0.922E-09) iterations  20(   1 preconditioned, Ep,Sp= 20.0  200.0)

 virtual orbital energies:
     0.4223623E-01 (   1.149eV)
     0.4179682E-01 (   1.137eV)
     0.3458856E-01 (   0.941eV)
     0.3458856E-01 (   0.941eV)
     0.3378159E-01 (   0.919eV)
     0.3028920E-01 (   0.824eV)
     0.2016191E-01 (   0.549eV)
     0.1899920E-01 (   0.517eV)
     0.9809189E-02 (   0.267eV)
     0.9809189E-02 (   0.267eV)
     0.2201915E-02 (   0.060eV)
    -0.3401216E-01 (  -0.926eV)


 == Generating One-Electron and Two-Electron Integrals ==

 begin_one_electron_integrals
    1    1        -0.6229836375
    2    1        -0.0510788172
    3    1         0.0090277262
    4    1         0.0000001112
    5    1        -0.0000000673
    6    1         0.0204831743
    7    1        -0.0000000010
    8    1         0.0120299018
    9    1         0.0005528351
   10    1         0.0000000606
   11    1        -0.0000000352
   12    1         0.0000108146
   13    1         0.0196933981
    2    2        -0.2849902791
    3    2         0.0356209242
    4    2         0.0000002808
    5    2        -0.0000001698
    6    2         0.0311194453
    7    2         0.0000000012
    8    2         0.0164416701
    9    2        -0.0188391786
   10    2        -0.0000006034
   11    2         0.0000003263
   12    2         0.0000074195
   13    2         0.0231381644
    3    3        -0.1380000934
    4    3         0.0000003467
    5    3        -0.0000002100
    6    3        -0.0060086823
    7    3        -0.0000000003
    8    3        -0.0026961604
    9    3         0.0313360511
   10    3         0.0000007579
   11    3        -0.0000003944
   12    3        -0.0000003476
   13    3        -0.0052361273
    4    4        -0.1850395738
    5    4        -0.0000000000
    6    4         0.0000000183
    7    4        -0.0000000847
    8    4        -0.0000000842
    9    4        -0.0000013988
   10    4         0.0483091717
   11    4         0.0000995404
   12    4        -0.0000679532
   13    4         0.0000002338
    5    5        -0.1850395758
    6    5        -0.0000000109
    7    5        -0.0000001400
    8    5         0.0000000479
    9    5         0.0000007494
   10    5        -0.0000995404
   11    5         0.0483091586
   12    5         0.0000766637
   13    5        -0.0000000173
    6    6        -0.1400078714
    7    6         0.0000000020
    8    6        -0.0043546717
    9    6         0.0006393249
   10    6        -0.0000001335
   11    6         0.0000000809
   12    6         0.0000050813
   13    6        -0.0298600702
    7    7        -0.1176290726
    8    7        -0.0000000811
    9    7         0.0000000448
   10    7         0.0000000733
   11    7         0.0000001218
   12    7         0.0000329738
   13    7        -0.0000000249
    8    8        -0.1118637714
    9    8        -0.0029262421
   10    8        -0.0000000834
   11    8         0.0000000461
   12    8        -0.0000146027
   13    8        -0.0044567464
    9    9        -0.1037908353
   10    9         0.0000007012
   11    9        -0.0000003773
   12    9        -0.0000036952
   13    9         0.0022379773
   10   10        -0.1261020350
   11   10        -0.0000000000
   12   10         0.0000366959
   13   10        -0.0000001800
   11   11        -0.1261020078
   12   11        -0.0000410738
   13   11         0.0000000470
   12   12        -0.1100278971
   13   12        -0.0000122370
   13   13        -0.1041413242
 end_one_electron_integrals

 begin_two_electron_integrals
    1    1    1    1        0.3903744761
    1    1    2    1        0.0510838368
    1    1    3    1       -0.0090345075
    1    1    4    1       -0.0000001112
    1    1    5    1        0.0000000673
    1    1    6    1       -0.0204890530
    1    1    7    1        0.0000000010
    1    1    8    1       -0.0120258301
    1    1    9    1       -0.0005489507
    1    1   10    1       -0.0000000605
    1    1   11    1        0.0000000351
    1    1   12    1       -0.0000108138
    1    1   13    1       -0.0196944648
    1    1    2    2        0.1329609233
    1    1    3    2       -0.0197695329
    1    1    4    2       -0.0000001637
    1    1    5    2        0.0000000990
    1    1    6    2       -0.0186838619
    1    1    7    2       -0.0000000004
    1    1    8    2       -0.0097451082
    1    1    9    2        0.0102994712
    1    1   10    2        0.0000003287
    1    1   11    2       -0.0000001777
    1    1   12    2       -0.0000048098
    1    1   13    2       -0.0145284662
    1    1    3    3        0.0707045522
    1    1    4    3       -0.0000001956
    1    1    5    3        0.0000001185
    1    1    6    3        0.0038422789
    1    1    7    3        0.0000000001
    1    1    8    3        0.0017207565
    1    1    9    3       -0.0160414944
    1    1   10    3       -0.0000003702
    1    1   11    3        0.0000001912
    1    1   12    3        0.0000003857
    1    1   13    3        0.0034167429
    1    1    4    4        0.0983313724
    1    1    5    4        0.0000000000
    1    1    6    4        0.0000000178
    1    1    7    4        0.0000000235
    1    1    8    4        0.0000000498
    1    1    9    4        0.0000007428
    1    1   10    4       -0.0249226698
    1    1   11    4       -0.0000513525
    1    1   12    4        0.0000352590
    1    1   13    4       -0.0000001066
    1    1    5    5        0.0983313734
    1    1    6    5       -0.0000000109
    1    1    7    5        0.0000000388
    1    1    8    5       -0.0000000286
    1    1    9    5       -0.0000003994
    1    1   10    5        0.0000513525
    1    1   11    5       -0.0249226628
    1    1   12    5       -0.0000397792
    1    1   13    5        0.0000000000
    1    1    6    6        0.0809294472
    1    1    7    6       -0.0000000011
    1    1    8    6        0.0028119029
    1    1    9    6       -0.0007149217
    1    1   10    6        0.0000000426
    1    1   11    6       -0.0000000267
    1    1   12    6       -0.0000020955
    1    1   13    6        0.0163000263
    1    1    7    7        0.0689142327
    1    1    8    7        0.0000000406
    1    1    9    7       -0.0000000224
    1    1   10    7       -0.0000000239
    1    1   11    7       -0.0000000397
    1    1   12    7       -0.0000165206
    1    1   13    7        0.0000000123
    1    1    8    8        0.0714245940
    1    1    9    8        0.0013443908
    1    1   10    8        0.0000000363
    1    1   11    8       -0.0000000200
    1    1   12    8        0.0000075864
    1    1   13    8        0.0028409772
    1    1    9    9        0.0691132036
    1    1   10    9       -0.0000003773
    1    1   11    9        0.0000002032
    1    1   12    9        0.0000018303
    1    1   13    9       -0.0014805776
    1    1   10   10        0.0810142268
    1    1   11   10        0.0000000000
    1    1   12   10       -0.0000193354
    1    1   13   10        0.0000000797
    1    1   11   11        0.0810142127
    1    1   12   11        0.0000217433
    1    1   13   11       -0.0000000159
    1    1   12   12        0.0759621103
    1    1   13   12        0.0000064885
    1    1   13   13        0.0745254420
    2    1    2    1        0.0149437296
    2    1    3    1       -0.0039226041
    2    1    4    1       -0.0000000465
    2    1    5    1        0.0000000281
    2    1    6    1       -0.0062389620
    2    1    7    1        0.0000000003
    2    1    8    1       -0.0030499476
    2    1    9    1        0.0017608013
    2    1   10    1        0.0000000540
    2    1   11    1       -0.0000000291
    2    1   12    1       -0.0000021973
    2    1   13    1       -0.0059265755
    2    1    2    2       -0.0127130919
    2    1    3    2        0.0031120057
    2    1    4    2        0.0000000439
    2    1    5    2       -0.0000000266
    2    1    6    2       -0.0011952892
    2    1    7    2        0.0000000001
    2    1    8    2        0.0009015727
    2    1    9    2       -0.0020385664
    2    1   10    2       -0.0000000838
    2    1   11    2        0.0000000463
    2    1   12    2        0.0000002537
    2    1   13    2       -0.0019838422
    2    1    3    3       -0.0028149432
    2    1    4    3        0.0000000536
    2    1    5    3       -0.0000000325
    2    1    6    3       -0.0008502996
    2    1    7    3       -0.0000000000
    2    1    8    3       -0.0026300533
    2    1    9    3        0.0009854950
    2    1   10    3        0.0000000370
    2    1   11    3       -0.0000000202
    2    1   12    3       -0.0000009683
    2    1   13    3        0.0000313729
    2    1    4    4       -0.0072975285
    2    1    5    4        0.0000000000
    2    1    6    4        0.0000000000
    2    1    7    4        0.0000000033
    2    1    8    4        0.0000000036
    2    1    9    4       -0.0000001071
    2    1   10    4        0.0035648695
    2    1   11    4        0.0000073454
    2    1   12    4        0.0000021377
    2    1   13    4       -0.0000000148
    2    1    5    5       -0.0072975282
    2    1    6    5       -0.0000000000
    2    1    7    5        0.0000000055
    2    1    8    5       -0.0000000019
    2    1    9    5        0.0000000578
    2    1   10    5       -0.0000073455
    2    1   11    5        0.0035648696
    2    1   12    5       -0.0000026207
    2    1   13    5        0.0000000044
    2    1    6    6       -0.0022837846
    2    1    7    6       -0.0000000001
    2    1    8    6        0.0002461266
    2    1    9    6        0.0012063890
    2    1   10    6        0.0000000360
    2    1   11    6       -0.0000000194
    2    1   12    6       -0.0000003670
    2    1   13    6       -0.0013767291
    2    1    7    7       -0.0022584101
    2    1    8    7        0.0000000008
    2    1    9    7       -0.0000000005
    2    1   10    7        0.0000000037
    2    1   11    7        0.0000000062
    2    1   12    7       -0.0000003021
    2    1   13    7        0.0000000002
    2    1    8    8        0.0002896608
    2    1    9    8        0.0013063715
    2    1   10    8        0.0000000434
    2    1   11    8       -0.0000000235
    2    1   12    8       -0.0000000721
    2    1   13    8        0.0009924465
    2    1    9    9       -0.0018068376
    2    1   10    9        0.0000000821
    2    1   11    9       -0.0000000453
    2    1   12    9        0.0000012426
    2    1   13    9        0.0007262217
    2    1   10   10       -0.0038991169
    2    1   11   10        0.0000000000
    2    1   12   10        0.0000018302
    2    1   13   10        0.0000000223
    2    1   11   11       -0.0038991169
    2    1   12   11       -0.0000021518
    2    1   13   11       -0.0000000156
    2    1   12   12       -0.0035506004
    2    1   13   12       -0.0000002447
    2    1   13   13       -0.0019875465
    3    1    3    1        0.0012070965
    3    1    4    1       -0.0000000440
    3    1    5    1        0.0000000266
    3    1    6    1        0.0016816165
    3    1    7    1       -0.0000000001
    3    1    8    1        0.0007331410
    3    1    9    1       -0.0007411863
    3    1   10    1        0.0000000176
    3    1   11    1       -0.0000000121
    3    1   12    1        0.0000004268
    3    1   13    1        0.0015910887
    3    1    2    2        0.0060681124
    3    1    3    2       -0.0016855213
    3    1    4    2        0.0000002033
    3    1    5    2       -0.0000001231
    3    1    6    2       -0.0001349232
    3    1    7    2       -0.0000000000
    3    1    8    2       -0.0006474066
    3    1    9    2        0.0011291032
    3    1   10    2       -0.0000000355
    3    1   11    2        0.0000000237
    3    1   12    2       -0.0000002778
    3    1   13    2        0.0002504509
    3    1    3    3        0.0011751467
    3    1    4    3        0.0000001824
    3    1    5    3       -0.0000001104
    3    1    6    3        0.0004318915
    3    1    7    3        0.0000000000
    3    1    8    3        0.0009573979
    3    1    9    3       -0.0005542287
    3    1   10    3        0.0000001711
    3    1   11    3       -0.0000001042
    3    1   12    3        0.0000003733
    3    1   13    3        0.0001221494
    3    1    4    4        0.0030807234
    3    1    5    4        0.0000000000
    3    1    6    4       -0.0000000912
    3    1    7    4        0.0000001134
    3    1    8    4        0.0000000766
    3    1    9    4       -0.0000000283
    3    1   10    4       -0.0017708080
    3    1   11    4       -0.0000036487
    3    1   12    4       -0.0000001801
    3    1   13    4       -0.0000000602
    3    1    5    5        0.0030807234
    3    1    6    5        0.0000000552
    3    1    7    5        0.0000001873
    3    1    8    5       -0.0000000464
    3    1    9    5        0.0000000207
    3    1   10    5        0.0000036488
    3    1   11    5       -0.0017708078
    3    1   12    5        0.0000001361
    3    1   13    5        0.0000000365
    3    1    6    6        0.0010162097
    3    1    7    6        0.0000000000
    3    1    8    6        0.0000198411
    3    1    9    6       -0.0004909121
    3    1   10    6        0.0000000128
    3    1   11    6       -0.0000000087
    3    1   12    6        0.0000001628
    3    1   13    6        0.0007021821
    3    1    7    7        0.0007679745
    3    1    8    7        0.0000000000
    3    1    9    7       -0.0000000000
    3    1   10    7       -0.0000000489
    3    1   11    7       -0.0000000811
    3    1   12    7       -0.0000000146
    3    1   13    7        0.0000000000
    3    1    8    8        0.0000229102
    3    1    9    8       -0.0005010538
    3    1   10    8       -0.0000000663
    3    1   11    8        0.0000000389
    3    1   12    8        0.0000000878
    3    1   13    8       -0.0002451042
    3    1    9    9        0.0007955299
    3    1   10    9        0.0000000580
    3    1   11    9       -0.0000000369
    3    1   12    9       -0.0000004322
    3    1   13    9       -0.0003162235
    3    1   10   10        0.0017965893
    3    1   11   10        0.0000000000
    3    1   12   10       -0.0000013817
    3    1   13   10        0.0000000739
    3    1   11   11        0.0017965890
    3    1   12   11        0.0000014745
    3    1   13   11       -0.0000000429
    3    1   12   12        0.0012526069
    3    1   13   12        0.0000001601
    3    1   13   13        0.0009034017
    4    1    4    1        0.0018139815
    4    1    5    1        0.0000000000
    4    1    6    1        0.0000000557
    4    1    7    1       -0.0000000376
    4    1    8    1        0.0000000157
    4    1    9    1        0.0000000870
    4    1   10    1       -0.0015432355
    4    1   11    1       -0.0000031798
    4    1   12    1        0.0000025515
    4    1   13    1        0.0000000207
    4    1    2    2        0.0000004035
    4    1    3    2        0.0000022648
    4    1    4    2       -0.0044433948
    4    1    5    2        0.0000000002
    4    1    6    2       -0.0000011731
    4    1    7    2        0.0000017038
    4    1    8    2        0.0000008481
    4    1    9    2       -0.0000003356
    4    1   10    2        0.0029296761
    4    1   11    2        0.0000060366
    4    1   12    2       -0.0000016889
    4    1   13    2       -0.0000004189
    4    1    3    3        0.0000173083
    4    1    4    3       -0.0002325801
    4    1    5    3       -0.0000000001
    4    1    6    3       -0.0000088320
    4    1    7    3        0.0000102905
    4    1    8    3        0.0000004661
    4    1    9    3        0.0000037094
    4    1   10    3       -0.0015161425
    4    1   11    3       -0.0000031237
    4    1   12    3        0.0000003742
    4    1   13    3        0.0000014241
    4    1    4    4        0.0000007632
    4    1    5    4       -0.0000004477
    4    1    6    4        0.0013596421
    4    1    7    4       -0.0011921833
    4    1    8    4       -0.0002654923
    4    1    9    4        0.0002231769
    4    1   10    4        0.0000019271
    4    1   11    4       -0.0000011656
    4    1   12    4        0.0011314164
    4    1   13    4        0.0011510126
    4    1    5    5        0.0000023875
    4    1    6    5       -0.0000000003
    4    1    7    5       -0.0006238395
    4    1    8    5       -0.0000000016
    4    1    9    5        0.0000000071
    4    1   10    5       -0.0000012288
    4    1   11    5        0.0000062993
    4    1   12    5       -0.0021600304
    4    1   13    5       -0.0000007520
    4    1    6    6        0.0000124245
    4    1    7    6       -0.0000044351
    4    1    8    6        0.0000011629
    4    1    9    6        0.0000044289
    4    1   10    6       -0.0010469517
    4    1   11    6       -0.0000021574
    4    1   12    6        0.0000058800
    4    1   13    6       -0.0000096397
    4    1    7    7        0.0000242074
    4    1    8    7        0.0000025308
    4    1    9    7       -0.0000030884
    4    1   10    7        0.0007642351
    4    1   11    7        0.0004019135
    4    1   12    7        0.0000003924
    4    1   13    7       -0.0000054583
    4    1    8    8        0.0000199603
    4    1    9    8        0.0000003155
    4    1   10    8       -0.0000670060
    4    1   11    8       -0.0000001367
    4    1   12    8        0.0000008536
    4    1   13    8       -0.0000017396
    4    1    9    9        0.0000203983
    4    1   10    9        0.0001472389
    4    1   11    9        0.0000003035
    4    1   12    9        0.0000005967
    4    1   13    9        0.0000050400
    4    1   10   10        0.0000054685
    4    1   11   10       -0.0000033338
    4    1   12   10        0.0001283638
    4    1   13   10       -0.0011090917
    4    1   11   11        0.0000179407
    4    1   12   11       -0.0002464983
    4    1   13   11       -0.0000023703
    4    1   12   12        0.0000073820
    4    1   13   12        0.0000010977
    4    1   13   13        0.0000235563
    5    1    5    1        0.0018139816
    5    1    6    1       -0.0000000337
    5    1    7    1       -0.0000000621
    5    1    8    1       -0.0000000094
    5    1    9    1       -0.0000000496
    5    1   10    1        0.0000031798
    5    1   11    1       -0.0015432349
    5    1   12    1       -0.0000028910
    5    1   13    1       -0.0000000172
    5    1    2    2       -0.0000002442
    5    1    3    2       -0.0000013710
    5    1    4    2        0.0000000001
    5    1    5    2       -0.0044433948
    5    1    6    2        0.0000007101
    5    1    7    2        0.0000028146
    5    1    8    2       -0.0000005134
    5    1    9    2        0.0000001973
    5    1   10    2       -0.0000060365
    5    1   11    2        0.0029296759
    5    1   12    2        0.0000018324
    5    1   13    2        0.0000002565
    5    1    3    3       -0.0000104777
    5    1    4    3       -0.0000000002
    5    1    5    3       -0.0002325802
    5    1    6    3        0.0000053465
    5    1    7    3        0.0000169990
    5    1    8    3       -0.0000002821
    5    1    9    3       -0.0000022425
    5    1   10    3        0.0000031241
    5    1   11    3       -0.0015161422
    5    1   12    3       -0.0000004152
    5    1   13    3       -0.0000008627
    5    1    4    4       -0.0000023172
    5    1    5    4       -0.0000007001
    5    1    6    4       -0.0000000003
    5    1    7    4       -0.0006238394
    5    1    8    4       -0.0000000016
    5    1    9    4        0.0000000071
    5    1   10    4       -0.0000061786
    5    1   11    4       -0.0000019155
    5    1   12    4       -0.0021600211
    5    1   13    4       -0.0000007520
    5    1    5    5        0.0000004090
    5    1    6    5        0.0013596419
    5    1    7    5        0.0011921833
    5    1    8    5       -0.0002654874
    5    1    9    5        0.0002231808
    5    1   10    5       -0.0000019263
    5    1   11    5        0.0000011661
    5    1   12    5       -0.0011318345
    5    1   13    5        0.0011502277
    5    1    6    6       -0.0000075213
    5    1    7    6       -0.0000073264
    5    1    8    6       -0.0000007037
    5    1    9    6       -0.0000026789
    5    1   10    6        0.0000021568
    5    1   11    6       -0.0010469507
    5    1   12    6       -0.0000066257
    5    1   13    6        0.0000058247
    5    1    7    7       -0.0000146542
    5    1    8    7        0.0000041804
    5    1    9    7       -0.0000050990
    5    1   10    7        0.0004019126
    5    1   11    7       -0.0007642356
    5    1   12    7        0.0000016300
    5    1   13    7       -0.0000090133
    5    1    8    8       -0.0000120830
    5    1    9    8       -0.0000001908
    5    1   10    8        0.0000001394
    5    1   11    8       -0.0000670115
    5    1   12    8       -0.0000010490
    5    1   13    8        0.0000010513
    5    1    9    9       -0.0000123488
    5    1   10    9       -0.0000003032
    5    1   11    9        0.0001472426
    5    1   12    9       -0.0000006832
    5    1   13    9       -0.0000030500
    5    1   10   10       -0.0000174297
    5    1   11   10       -0.0000054465
    5    1   12   10       -0.0002464760
    5    1   13   10        0.0000022005
    5    1   11   11        0.0000032520
    5    1   12   11       -0.0001280924
    5    1   13   11       -0.0011091829
    5    1   12   12       -0.0000018215
    5    1   13   12       -0.0000012625
    5    1   13   13       -0.0000142642
    6    1    6    1        0.0028518269
    6    1    7    1       -0.0000000002
    6    1    8    1        0.0012806917
    6    1    9    1       -0.0007906711
    6    1   10    1       -0.0000000482
    6    1   11    1        0.0000000275
    6    1   12    1        0.0000008820
    6    1   13    1        0.0027520678
    6    1    2    2        0.0033202842
    6    1    3    2       -0.0008688396
    6    1    4    2       -0.0000001586
    6    1    5    2        0.0000000960
    6    1    6    2       -0.0000249499
    6    1    7    2       -0.0000000001
    6    1    8    2       -0.0001280169
    6    1    9    2        0.0006716945
    6    1   10    2        0.0000000722
    6    1   11    2       -0.0000000422
    6    1   12    2        0.0000000275
    6    1   13    2        0.0002232719
    6    1    3    3        0.0008984418
    6    1    4    3       -0.0000001722
    6    1    5    3        0.0000001042
    6    1    6    3        0.0000030623
    6    1    7    3        0.0000000000
    6    1    8    3        0.0008529026
    6    1    9    3       -0.0003459516
    6    1   10    3       -0.0000001410
    6    1   11    3        0.0000000842
    6    1   12    3        0.0000003344
    6    1   13    3        0.0000317492
    6    1    4    4        0.0026237616
    6    1    5    4       -0.0000000001
    6    1    6    4        0.0000000840
    6    1    7    4       -0.0000000825
    6    1    8    4       -0.0000000497
    6    1    9    4        0.0000001198
    6    1   10    4       -0.0014552829
    6    1   11    4       -0.0000029986
    6    1   12    4        0.0000011233
    6    1   13    4        0.0000000358
    6    1    5    5        0.0026237615
    6    1    6    5       -0.0000000509
    6    1    7    5       -0.0000001362
    6    1    8    5        0.0000000301
    6    1    9    5       -0.0000000696
    6    1   10    5        0.0000029986
    6    1   11    5       -0.0014552825
    6    1   12    5       -0.0000011095
    6    1   13    5       -0.0000000232
    6    1    6    6        0.0005906844
    6    1    7    6       -0.0000000000
    6    1    8    6       -0.0000196852
    6    1    9    6       -0.0000329930
    6    1   10    6       -0.0000000060
    6    1   11    6        0.0000000036
    6    1   12    6        0.0000002453
    6    1   13    6        0.0001875986
    6    1    7    7        0.0008765912
    6    1    8    7        0.0000000011
    6    1    9    7       -0.0000000006
    6    1   10    7        0.0000000375
    6    1   11    7        0.0000000623
    6    1   12    7       -0.0000004296
    6    1   13    7        0.0000000003
    6    1    8    8       -0.0000282663
    6    1    9    8       -0.0004243893
    6    1   10    8        0.0000000304
    6    1   11    8       -0.0000000192
    6    1   12    8       -0.0000000755
    6    1   13    8       -0.0003029326
    6    1    9    9        0.0006411328
    6    1   10    9       -0.0000001029
    6    1   11    9        0.0000000602
    6    1   12    9       -0.0000005278
    6    1   13    9       -0.0000387431
    6    1   10   10        0.0015341602
    6    1   11   10       -0.0000000001
    6    1   12   10       -0.0000006088
    6    1   13   10       -0.0000000682
    6    1   11   11        0.0015341600
    6    1   12   11        0.0000007973
    6    1   13   11        0.0000000425
    6    1   12   12        0.0012751209
    6    1   13   12        0.0000001423
    6    1   13   13        0.0005298077
    7    1    7    1        0.0000374852
    7    1    8    1        0.0000000001
    7    1    9    1       -0.0000000000
    7    1   10    1        0.0000000257
    7    1   11    1        0.0000000426
    7    1   12    1       -0.0000000695
    7    1   13    1       -0.0000000001
    7    1    2    2       -0.0000000000
    7    1    3    2        0.0000000000
    7    1    4    2        0.0000001615
    7    1    5    2        0.0000002668
    7    1    6    2       -0.0000000000
    7    1    7    2       -0.0001630760
    7    1    8    2       -0.0000000004
    7    1    9    2        0.0000000002
    7    1   10    2       -0.0000000492
    7    1   11    2       -0.0000000816
    7    1   12    2        0.0000001550
    7    1   13    2       -0.0000000002
    7    1    3    3       -0.0000000000
    7    1    4    3        0.0000001692
    7    1    5    3        0.0000002795
    7    1    6    3        0.0000000000
    7    1    7    3       -0.0001893739
    7    1    8    3       -0.0000000002
    7    1    9    3        0.0000000001
    7    1   10    3        0.0000001350
    7    1   11    3        0.0000002241
    7    1   12    3        0.0000000869
    7    1   13    3       -0.0000000001
    7    1    4    4       -0.0002769252
    7    1    5    4       -0.0001449080
    7    1    6    4       -0.0000000682
    7    1    7    4        0.0000002588
    7    1    8    4        0.0000000655
    7    1    9    4       -0.0000000785
    7    1   10    4        0.0002193001
    7    1   11    4        0.0001153304
    7    1   12    4        0.0000002129
    7    1   13    4       -0.0000000519
    7    1    5    5        0.0002769251
    7    1    6    5       -0.0000001126
    7    1    7    5       -0.0000001567
    7    1    8    5        0.0000001082
    7    1    9    5       -0.0000001289
    7    1   10    5        0.0001153304
    7    1   11    5       -0.0002193000
    7    1   12    5        0.0000003828
    7    1   13    5       -0.0000000857
    7    1    6    6       -0.0000000000
    7    1    7    6        0.0001118427
    7    1    8    6        0.0000000009
    7    1    9    6       -0.0000000005
    7    1   10    6        0.0000000216
    7    1   11    6        0.0000000359
    7    1   12    6       -0.0000003518
    7    1   13    6        0.0000000003
    7    1    7    7       -0.0000000000
    7    1    8    7       -0.0000862262
    7    1    9    7        0.0001628478
    7    1   10    7       -0.0000000937
    7    1   11    7        0.0000000568
    7    1   12    7       -0.0000000854
    7    1   13    7        0.0001682603
    7    1    8    8       -0.0000000001
    7    1    9    8        0.0000000007
    7    1   10    8       -0.0000000393
    7    1   11    8       -0.0000000652
    7    1   12    8        0.0000000309
    7    1   13    8        0.0000000003
    7    1    9    9       -0.0000000008
    7    1   10    9        0.0000000795
    7    1   11    9        0.0000001315
    7    1   12    9       -0.0000002709
    7    1   13    9        0.0000000000
    7    1   10   10       -0.0000968643
    7    1   11   10       -0.0000511962
    7    1   12   10        0.0000002762
    7    1   13   10        0.0000000559
    7    1   11   11        0.0000968641
    7    1   12   11        0.0000007287
    7    1   13   11        0.0000000937
    7    1   12   12       -0.0000000001
    7    1   13   12       -0.0000001423
    7    1   13   13        0.0000000002
    8    1    8    1        0.0006962206
    8    1    9    1       -0.0002392843
    8    1   10    1       -0.0000000110
    8    1   11    1        0.0000000060
    8    1   12    1        0.0000005710
    8    1   13    1        0.0012343134
    8    1    2    2        0.0010854119
    8    1    3    2       -0.0003909591
    8    1    4    2        0.0000000091
    8    1    5    2       -0.0000000057
    8    1    6    2        0.0002748740
    8    1    7    2       -0.0000000006
    8    1    8    2       -0.0001218008
    8    1    9    2        0.0003114568
    8    1   10    2        0.0000000119
    8    1   11    2       -0.0000000064
    8    1   12    2       -0.0000000170
    8    1   13    2        0.0004067870
    8    1    3    3        0.0002059636
    8    1    4    3        0.0000000062
    8    1    5    3       -0.0000000038
    8    1    6    3        0.0000518939
    8    1    7    3       -0.0000000006
    8    1    8    3        0.0001227400
    8    1    9    3       -0.0001342047
    8    1   10    3       -0.0000000239
    8    1   11    3        0.0000000140
    8    1   12    3        0.0000000645
    8    1   13    3       -0.0000470465
    8    1    4    4        0.0004888849
    8    1    5    4       -0.0000000006
    8    1    6    4        0.0000000223
    8    1    7    4        0.0000000137
    8    1    8    4        0.0000000537
    8    1    9    4        0.0000000177
    8    1   10    4       -0.0003157757
    8    1   11    4       -0.0000006502
    8    1   12    4       -0.0000002449
    8    1   13    4        0.0000000001
    8    1    5    5        0.0004888868
    8    1    6    5       -0.0000000134
    8    1    7    5        0.0000000227
    8    1    8    5       -0.0000000325
    8    1    9    5       -0.0000000101
    8    1   10    5        0.0000006511
    8    1   11    5       -0.0003157774
    8    1   12    5        0.0000002877
    8    1   13    5        0.0000000005
    8    1    6    6        0.0000413226
    8    1    7    6        0.0000000006
    8    1    8    6       -0.0000362562
    8    1    9    6       -0.0001223502
    8    1   10    6        0.0000000043
    8    1   11    6       -0.0000000029
    8    1   12    6       -0.0000000259
    8    1   13    6        0.0000186909
    8    1    7    7        0.0000461830
    8    1    8    7       -0.0000000004
    8    1    9    7        0.0000000008
    8    1   10    7       -0.0000000015
    8    1   11    7       -0.0000000025
    8    1   12    7        0.0000000728
    8    1   13    7        0.0000000006
    8    1    8    8       -0.0000120870
    8    1    9    8       -0.0001058582
    8    1   10    8        0.0000000538
    8    1   11    8       -0.0000000326
    8    1   12    8       -0.0000000210
    8    1   13    8       -0.0000959826
    8    1    9    9        0.0001308505
    8    1   10    9        0.0000000047
    8    1   11    9       -0.0000000031
    8    1   12    9       -0.0000000797
    8    1   13    9       -0.0000710166
    8    1   10   10        0.0002863902
    8    1   11   10       -0.0000000003
    8    1   12   10       -0.0000001130
    8    1   13   10       -0.0000000038
    8    1   11   11        0.0002863910
    8    1   12   11        0.0000001226
    8    1   13   11        0.0000000023
    8    1   12   12        0.0001178427
    8    1   13   12       -0.0000000336
    8    1   13   13        0.0000301001
    9    1    9    1        0.0006539786
    9    1   10    1       -0.0000000527
    9    1   11    1        0.0000000303
    9    1   12    1       -0.0000000035
    9    1   13    1       -0.0007372473
    9    1    2    2       -0.0056862074
    9    1    3    2        0.0016525670
    9    1    4    2       -0.0000002604
    9    1    5    2        0.0000001505
    9    1    6    2        0.0004865534
    9    1    7    2        0.0000000003
    9    1    8    2        0.0007040556
    9    1    9    2       -0.0011211748
    9    1   10    2        0.0000000998
    9    1   11    2       -0.0000000574
    9    1   12    2        0.0000003441
    9    1   13    2        0.0001442256
    9    1    3    3       -0.0010405297
    9    1    4    3       -0.0000001332
    9    1    5    3        0.0000000807
    9    1    6    3       -0.0004500371
    9    1    7    3        0.0000000004
    9    1    8    3       -0.0008044814
    9    1    9    3        0.0005231517
    9    1   10    3       -0.0000001427
    9    1   11    3        0.0000000848
    9    1   12    3       -0.0000003203
    9    1   13    3       -0.0001935516
    9    1    4    4       -0.0026905555
    9    1    5    4        0.0000000020
    9    1    6    4        0.0000001280
    9    1    7    4       -0.0000001132
    9    1    8    4       -0.0000000536
    9    1    9    4        0.0000000382
    9    1   10    4        0.0016534334
    9    1   11    4        0.0000034062
    9    1   12    4       -0.0000002256
    9    1   13    4        0.0000000874
    9    1    5    5       -0.0026905549
    9    1    6    5       -0.0000000752
    9    1    7    5       -0.0000001836
    9    1    8    5        0.0000000322
    9    1    9    5       -0.0000000263
    9    1   10    5       -0.0000034075
    9    1   11    5        0.0016534337
    9    1   12    5        0.0000003239
    9    1   13    5       -0.0000000503
    9    1    6    6       -0.0009170162
    9    1    7    6       -0.0000000004
    9    1    8    6       -0.0000855252
    9    1    9    6        0.0004488117
    9    1   10    6       -0.0000000389
    9    1   11    6        0.0000000225
    9    1   12    6       -0.0000001763
    9    1   13    6       -0.0006745827
    9    1    7    7       -0.0005919499
    9    1    8    7        0.0000000001
    9    1    9    7       -0.0000000004
    9    1   10    7        0.0000000549
    9    1   11    7        0.0000000890
    9    1   12    7        0.0000000096
    9    1   13    7       -0.0000000004
    9    1    8    8       -0.0000748522
    9    1    9    8        0.0004290407
    9    1   10    8        0.0000000631
    9    1   11    8       -0.0000000373
    9    1   12    8       -0.0000001070
    9    1   13    8        0.0001191335
    9    1    9    9       -0.0007002736
    9    1   10    9       -0.0000000184
    9    1   11    9        0.0000000134
    9    1   12    9        0.0000003455
    9    1   13    9        0.0002975614
    9    1   10   10       -0.0016560842
    9    1   11   10        0.0000000009
    9    1   12   10        0.0000013953
    9    1   13   10       -0.0000000899
    9    1   11   11       -0.0016560835
    9    1   12   11       -0.0000015143
    9    1   13   11        0.0000000505
    9    1   12   12       -0.0010027195
    9    1   13   12       -0.0000001839
    9    1   13   13       -0.0008316301
   10    1   10    1        0.0013378635
   10    1   11    1        0.0000000000
   10    1   12    1       -0.0000021667
   10    1   13    1       -0.0000000212
   10    1    2    2       -0.0000004411
   10    1    3    2       -0.0000014896
   10    1    4    2        0.0035576404
   10    1    5    2       -0.0000073305
   10    1    6    2        0.0000008196
   10    1    7    2       -0.0000011607
   10    1    8    2       -0.0000005770
   10    1    9    2        0.0000002413
   10    1   10    2       -0.0024665453
   10    1   11    2        0.0000000000
   10    1   12    2        0.0000015216
   10    1   13    2        0.0000003059
   10    1    3    3       -0.0000115869
   10    1    4    3       -0.0000319596
   10    1    5    3        0.0000000662
   10    1    6    3        0.0000059488
   10    1    7    3       -0.0000069449
   10    1    8    3       -0.0000006068
   10    1    9    3       -0.0000022250
   10    1   10    3        0.0011370906
   10    1   11    3        0.0000000006
   10    1   12    3       -0.0000005133
   10    1   13    3       -0.0000008368
   10    1    4    4       -0.0000005519
   10    1    5    4        0.0000002233
   10    1    6    4       -0.0011413598
   10    1    7    4        0.0009024538
   10    1    8    4        0.0001376720
   10    1    9    4       -0.0000462930
   10    1   10    4       -0.0000012281
   10    1   11    4        0.0000007448
   10    1   12    4       -0.0008043466
   10    1   13    4       -0.0009736742
   10    1    5    5       -0.0000017188
   10    1    6    5        0.0000023517
   10    1    7    5        0.0004746027
   10    1    8    5       -0.0000002824
   10    1    9    5        0.0000000904
   10    1   10    5        0.0000007750
   10    1   11    5       -0.0000041808
   10    1   12    5        0.0015276418
   10    1   13    5        0.0000025377
   10    1    6    6       -0.0000083784
   10    1    7    6        0.0000030639
   10    1    8    6       -0.0000006740
   10    1    9    6       -0.0000031034
   10    1   10    6        0.0008943957
   10    1   11    6       -0.0000000003
   10    1   12    6       -0.0000040814
   10    1   13    6        0.0000062483
   10    1    7    7       -0.0000165398
   10    1    8    7       -0.0000018496
   10    1    9    7        0.0000021991
   10    1   10    7       -0.0005688286
   10    1   11    7       -0.0003006458
   10    1   12    7       -0.0000001884
   10    1   13    7        0.0000036932
   10    1    8    8       -0.0000130934
   10    1    9    8       -0.0000002561
   10    1   10    8        0.0001181886
   10    1   11    8       -0.0000000012
   10    1   12    8       -0.0000006736
   10    1   13    8        0.0000012381
   10    1    9    9       -0.0000135627
   10    1   10    9       -0.0002047394
   10    1   11    9        0.0000000008
   10    1   12    9       -0.0000003101
   10    1   13    9       -0.0000034122
   10    1   10   10       -0.0000036692
   10    1   11   10        0.0000021387
   10    1   12   10       -0.0000433404
   10    1   13   10        0.0009201738
   10    1   11   11       -0.0000119902
   10    1   12   11        0.0000839098
   10    1   13   11        0.0000000290
   10    1   12   12       -0.0000055602
   10    1   13   12       -0.0000010381
   10    1   13   13       -0.0000155990
   11    1   11    1        0.0013378625
   11    1   12    1        0.0000024481
   11    1   13    1        0.0000000154
   11    1    2    2        0.0000002545
   11    1    3    2        0.0000009009
   11    1    4    2        0.0000073303
   11    1    5    2        0.0035576393
   11    1    6    2       -0.0000004929
   11    1    7    2       -0.0000019263
   11    1    8    2        0.0000003491
   11    1    9    2       -0.0000001427
   11    1   10    2        0.0000000001
   11    1   11    2       -0.0024665442
   11    1   12    2       -0.0000016836
   11    1   13    2       -0.0000001867
   11    1    3    3        0.0000069796
   11    1    4    3       -0.0000000655
   11    1    5    3       -0.0000319593
   11    1    6    3       -0.0000035853
   11    1    7    3       -0.0000115258
   11    1    8    3        0.0000003641
   11    1    9    3        0.0000013394
   11    1   10    3        0.0000000007
   11    1   11    3        0.0011370907
   11    1   12    3        0.0000005079
   11    1   13    3        0.0000005045
   11    1    4    4        0.0000015755
   11    1    5    4        0.0000005091
   11    1    6    4       -0.0000023517
   11    1    7    4        0.0004746021
   11    1    8    4        0.0000002850
   11    1    9    4       -0.0000001004
   11    1   10    4        0.0000040900
   11    1   11    4        0.0000013187
   11    1   12    4        0.0015276353
   11    1   13    4       -0.0000014735
   11    1    5    5       -0.0000002173
   11    1    6    5       -0.0011413593
   11    1    7    5       -0.0009024535
   11    1    8    5        0.0001376679
   11    1    9    5       -0.0000462952
   11    1   10    5        0.0000013047
   11    1   11    5       -0.0000008011
   11    1   12    5        0.0008046258
   11    1   13    5       -0.0009731158
   11    1    6    6        0.0000050466
   11    1    7    6        0.0000050848
   11    1    8    6        0.0000004057
   11    1    9    6        0.0000018690
   11    1   10    6       -0.0000000002
   11    1   11    6        0.0008943942
   11    1   12    6        0.0000046127
   11    1   13    6       -0.0000037587
   11    1    7    7        0.0000099649
   11    1    8    7       -0.0000030696
   11    1    9    7        0.0000036476
   11    1   10    7       -0.0003006462
   11    1   11    7        0.0005688287
   11    1   12    7       -0.0000008558
   11    1   13    7        0.0000061275
   11    1    8    8        0.0000078891
   11    1    9    8        0.0000001549
   11    1   10    8       -0.0000000011
   11    1   11    8        0.0001181926
   11    1   12    8        0.0000007926
   11    1   13    8       -0.0000007445
   11    1    9    9        0.0000081715
   11    1   10    9        0.0000000007
   11    1   11    9       -0.0002047414
   11    1   12    9        0.0000003613
   11    1   13    9        0.0000020555
   11    1   10   10        0.0000115676
   11    1   11   10        0.0000036545
   11    1   12   10        0.0000838943
   11    1   13   10        0.0000000290
   11    1   11   11       -0.0000021369
   11    1   12   11        0.0000432001
   11    1   13   11        0.0009202054
   11    1   12   12        0.0000013699
   11    1   13   12        0.0000011749
   11    1   13   13        0.0000094013
   12    1   12    1        0.0000995010
   12    1   13    1        0.0000008971
   12    1    2    2       -0.0000006279
   12    1    3    2        0.0000000717
   12    1    4    2       -0.0000046324
   12    1    5    2        0.0000051664
   12    1    6    2        0.0000003398
   12    1    7    2        0.0000002309
   12    1    8    2        0.0000000642
   12    1    9    2        0.0000000210
   12    1   10    2        0.0000028561
   12    1   11    2       -0.0000033276
   12    1   12    2       -0.0003799681
   12    1   13    2        0.0000002372
   12    1    3    3       -0.0000000792
   12    1    4    3       -0.0000011287
   12    1    5    3        0.0000008994
   12    1    6    3       -0.0000000570
   12    1    7    3        0.0000002483
   12    1    8    3       -0.0000001660
   12    1    9    3        0.0000000354
   12    1   10    3       -0.0000038073
   12    1   11    3        0.0000032262
   12    1   12    3       -0.0002610946
   12    1   13    3       -0.0000001464
   12    1    4    4        0.0002972102
   12    1    5    4       -0.0005677206
   12    1    6    4        0.0000027929
   12    1    7    4       -0.0000001579
   12    1    8    4       -0.0000002275
   12    1    9    4        0.0000002060
   12    1   10    4       -0.0000767812
   12    1   11    4        0.0001455292
   12    1   12    4        0.0000052534
   12    1   13    4        0.0000013365
   12    1    5    5       -0.0002980102
   12    1    6    5       -0.0000028982
   12    1    7    5       -0.0000015083
   12    1    8    5        0.0000002048
   12    1    9    5       -0.0000003511
   12    1   10    5        0.0001455285
   12    1   11    5        0.0000771888
   12    1   12    5       -0.0000012945
   12    1   13    5       -0.0000017117
   12    1    6    6       -0.0000002145
   12    1    7    6       -0.0000002415
   12    1    8    6       -0.0000000751
   12    1    9    6       -0.0000000441
   12    1   10    6       -0.0000000649
   12    1   11    6        0.0000006984
   12    1   12    6        0.0002119548
   12    1   13    6       -0.0000001433
   12    1    7    7       -0.0000001583
   12    1    8    7        0.0000000960
   12    1    9    7       -0.0000002702
   12    1   10    7        0.0000013315
   12    1   11    7        0.0000031592
   12    1   12    7       -0.0000000027
   12    1   13    7       -0.0000002545
   12    1    8    8        0.0000000309
   12    1    9    8        0.0000000400
   12    1   10    8        0.0000001686
   12    1   11    8       -0.0000001629
   12    1   12    8       -0.0001232907
   12    1   13    8       -0.0000000833
   12    1    9    9       -0.0000000297
   12    1   10    9       -0.0000007110
   12    1   11    9        0.0000003626
   12    1   12    9        0.0001296727
   12    1   13    9        0.0000000585
   12    1   10   10        0.0001344718
   12    1   11   10       -0.0002543681
   12    1   12   10       -0.0000000124
   12    1   13   10       -0.0000023845
   12    1   11   11       -0.0001348900
   12    1   12   11        0.0000000076
   12    1   13   11        0.0000022613
   12    1   12   12       -0.0000002904
   12    1   13   12        0.0000723655
   12    1   13   13       -0.0000001051
   13    1   13    1        0.0026733344
   13    1    2    2        0.0023997668
   13    1    3    2       -0.0006377927
   13    1    4    2       -0.0000000481
   13    1    5    2        0.0000000374
   13    1    6    2       -0.0000342271
   13    1    7    2       -0.0000000003
   13    1    8    2       -0.0000291678
   13    1    9    2        0.0005365501
   13    1   10    2        0.0000000282
   13    1   11    2       -0.0000000215
   13    1   12    2       -0.0000000541
   13    1   13    2        0.0001355777
   13    1    3    3        0.0007159626
   13    1    4    3       -0.0000000693
   13    1    5    3        0.0000000427
   13    1    6    3        0.0000078613
   13    1    7    3       -0.0000000002
   13    1    8    3        0.0006832500
   13    1    9    3       -0.0002766665
   13    1   10    3       -0.0000000306
   13    1   11    3        0.0000000211
   13    1   12    3        0.0000001844
   13    1   13    3        0.0000097886
   13    1    4    4        0.0022175914
   13    1    5    4       -0.0000001977
   13    1    6    4       -0.0000000001
   13    1    7    4       -0.0000000382
   13    1    8    4       -0.0000000194
   13    1    9    4        0.0000000712
   13    1   10    4       -0.0012669876
   13    1   11    4       -0.0000025596
   13    1   12    4        0.0000009671
   13    1   13    4        0.0000000236
   13    1    5    5        0.0022173853
   13    1    6    5       -0.0000000042
   13    1    7    5       -0.0000000675
   13    1    8    5        0.0000000120
   13    1    9    5       -0.0000000413
   13    1   10    5        0.0000026615
   13    1   11    5       -0.0012669344
   13    1   12    5       -0.0000010112
   13    1   13    5       -0.0000000189
   13    1    6    6        0.0004173085
   13    1    7    6        0.0000000002
   13    1    8    6       -0.0000303642
   13    1    9    6       -0.0000121599
   13    1   10    6       -0.0000000192
   13    1   11    6        0.0000000138
   13    1   12    6        0.0000002642
   13    1   13    6        0.0001108876
   13    1    7    7        0.0007452466
   13    1    8    7        0.0000000008
   13    1    9    7       -0.0000000003
   13    1   10    7        0.0000000045
   13    1   11    7        0.0000000109
   13    1   12    7       -0.0000003640
   13    1   13    7        0.0000000005
   13    1    8    8       -0.0000365785
   13    1    9    8       -0.0003518583
   13    1   10    8        0.0000000070
   13    1   11    8       -0.0000000052
   13    1   12    8       -0.0000001108
   13    1   13    8       -0.0002494461
   13    1    9    9        0.0005152771
   13    1   10    9       -0.0000000527
   13    1   11    9        0.0000000299
   13    1   12    9       -0.0000003946
   13    1   13    9       -0.0000157826
   13    1   10   10        0.0013252377
   13    1   11   10       -0.0000000885
   13    1   12   10       -0.0000007317
   13    1   13   10        0.0000000056
   13    1   11   11        0.0013251443
   13    1   12   11        0.0000008772
   13    1   13   11        0.0000000010
   13    1   12   12        0.0010493134
   13    1   13   12        0.0000001472
   13    1   13   13        0.0003626311
    2    2    2    2        0.1931045188
    2    2    3    2       -0.0310942460
    2    2    4    2       -0.0000021241
    2    2    5    2        0.0000012859
    2    2    6    2       -0.0027594479
    2    2    7    2       -0.0000000005
    2    2    8    2       -0.0131307338
    2    2    9    2        0.0157729642
    2    2   10    2        0.0000010484
    2    2   11    2       -0.0000005999
    2    2   12    2       -0.0000058566
    2    2   13    2        0.0044463218
    2    2    3    3        0.0841617711
    2    2    4    3       -0.0000023764
    2    2    5    3        0.0000014386
    2    2    6    3        0.0094870005
    2    2    7    3        0.0000000001
    2    2    8    3        0.0158008116
    2    2    9    3       -0.0186513750
    2    2   10    3       -0.0000022215
    2    2   11    3        0.0000013010
    2    2   12    3        0.0000051963
    2    2   13    3        0.0016454776
    2    2    4    4        0.1287524490
    2    2    5    4       -0.0000000013
    2    2    6    4        0.0000004028
    2    2    7    4       -0.0000010249
    2    2    8    4       -0.0000009952
    2    2    9    4        0.0000015083
    2    2   10    4       -0.0344989559
    2    2   11    4       -0.0000710859
    2    2   12    4        0.0000012178
    2    2   13    4        0.0000005438
    2    2    5    5        0.1287524465
    2    2    6    5       -0.0000002439
    2    2    7    5       -0.0000016929
    2    2    8    5        0.0000006013
    2    2    9    5       -0.0000008444
    2    2   10    5        0.0000710847
    2    2   11    5       -0.0344989560
    2    2   12    5        0.0000010285
    2    2   13    5       -0.0000003236
    2    2    6    6        0.0939513413
    2    2    7    6       -0.0000000004
    2    2    8    6        0.0003141296
    2    2    9    6       -0.0096339557
    2    2   10    6       -0.0000004831
    2    2   11    6        0.0000002726
    2    2   12    6       -0.0000010928
    2    2   13    6        0.0250202646
    2    2    7    7        0.0804421810
    2    2    8    7        0.0000000216
    2    2    9    7       -0.0000000117
    2    2   10    7        0.0000003019
    2    2   11    7        0.0000005010
    2    2   12    7       -0.0000088940
    2    2   13    7        0.0000000063
    2    2    8    8        0.0681266900
    2    2    9    8       -0.0049351382
    2    2   10    8       -0.0000000866
    2    2   11    8        0.0000000417
    2    2   12    8        0.0000083231
    2    2   13    8       -0.0035585026
    2    2    9    9        0.0769578461
    2    2   10    9       -0.0000016786
    2    2   11    9        0.0000009768
    2    2   12    9       -0.0000037733
    2    2   13    9       -0.0065933753
    2    2   10   10        0.0941521527
    2    2   11   10       -0.0000000013
    2    2   12   10       -0.0000191728
    2    2   13   10       -0.0000006688
    2    2   11   11        0.0941521422
    2    2   12   11        0.0000231771
    2    2   13   11        0.0000004301
    2    2   12   12        0.0941883103
    2    2   13   12        0.0000066675
    2    2   13   13        0.0857985766
    3    2    3    2        0.0098274243
    3    2    4    2       -0.0000121244
    3    2    5    2        0.0000073397
    3    2    6    2        0.0031995674
    3    2    7    2        0.0000000001
    3    2    8    2        0.0046766461
    3    2    9    2       -0.0061017235
    3    2   10    2        0.0000026382
    3    2   11    2       -0.0000016019
    3    2   12    2        0.0000021261
    3    2   13    2        0.0005152252
    3    2    3    3       -0.0038795054
    3    2    4    3       -0.0000137707
    3    2    5    3        0.0000083362
    3    2    6    3       -0.0011650621
    3    2    7    3        0.0000000001
    3    2    8    3       -0.0012574665
    3    2    9    3        0.0040453585
    3    2   10    3       -0.0000128921
    3    2   11    3        0.0000077762
    3    2   12    3       -0.0000008896
    3    2   13    3       -0.0006868532
    3    2    4    4       -0.0118329282
    3    2    5    4       -0.0000000122
    3    2    6    4        0.0000027756
    3    2    7    4       -0.0000067656
    3    2    8    4       -0.0000064524
    3    2    9    4        0.0000028976
    3    2   10    4        0.0087514348
    3    2   11    4        0.0000180219
    3    2   12    4        0.0000100325
    3    2   13    4        0.0000027957
    3    2    5    5       -0.0118329411
    3    2    6    5       -0.0000016802
    3    2    7    5       -0.0000111763
    3    2    8    5        0.0000039059
    3    2    9    5       -0.0000017716
    3    2   10    5       -0.0000180426
    3    2   11    5        0.0087514222
    3    2   12    5       -0.0000028175
    3    2   13    5       -0.0000016809
    3    2    6    6       -0.0041730888
    3    2    7    6        0.0000000003
    3    2    8    6       -0.0006602682
    3    2    9    6        0.0011795326
    3    2   10    6       -0.0000012382
    3    2   11    6        0.0000007484
    3    2   12    6        0.0000003255
    3    2   13    6       -0.0036374852
    3    2    7    7       -0.0010463796
    3    2    8    7       -0.0000000067
    3    2    9    7        0.0000000038
    3    2   10    7        0.0000024466
    3    2   11    7        0.0000040604
    3    2   12    7        0.0000027034
    3    2   13    7       -0.0000000022
    3    2    8    8       -0.0023322884
    3    2    9    8        0.0012856543
    3    2   10    8        0.0000009466
    3    2   11    8       -0.0000005677
    3    2   12    8       -0.0000009858
    3    2   13    8       -0.0001011836
    3    2    9    9       -0.0030863564
    3    2   10    9       -0.0000079756
    3    2   11    9        0.0000048131
    3    2   12    9        0.0000004161
    3    2   13    9        0.0008441004
    3    2   10   10       -0.0067786252
    3    2   11   10       -0.0000000176
    3    2   12   10        0.0000190146
    3    2   13   10       -0.0000040641
    3    2   11   11       -0.0067786413
    3    2   12   11       -0.0000136828
    3    2   13   11        0.0000024427
    3    2   12   12       -0.0027796582
    3    2   13   12       -0.0000009659
    3    2   13   13       -0.0037492349
    4    2    4    2        0.0202317455
    4    2    5    2       -0.0000000019
    4    2    6    2        0.0000051289
    4    2    7    2       -0.0000091235
    4    2    8    2       -0.0000056949
    4    2    9    2        0.0000002655
    4    2   10    2       -0.0112015248
    4    2   11    2       -0.0000230828
    4    2   12    2       -0.0000004904
    4    2   13    2        0.0000029188
    4    2    3    3       -0.0000908610
    4    2    4    3        0.0035846882
    4    2    5    3       -0.0000000067
    4    2    6    3        0.0000379506
    4    2    7    3       -0.0000543074
    4    2    8    3       -0.0000171705
    4    2    9    3       -0.0000300524
    4    2   10    3        0.0070272548
    4    2   11    3        0.0000144584
    4    2   12    3       -0.0000029255
    4    2   13    3       -0.0000027479
    4    2    4    4       -0.0000047127
    4    2    5    4        0.0000039018
    4    2    6    4       -0.0018173036
    4    2    7    4        0.0060094979
    4    2    8    4        0.0032853412
    4    2    9    4       -0.0019186957
    4    2   10    4       -0.0000108364
    4    2   11    4        0.0000071283
    4    2   12    4       -0.0058540058
    4    2   13    4       -0.0023495110
    4    2    5    5       -0.0000116832
    4    2    6    5        0.0000000055
    4    2    7    5        0.0031446139
    4    2    8    5        0.0000000035
    4    2    9    5       -0.0000000400
    4    2   10    5        0.0000078072
    4    2   11    5       -0.0000327771
    4    2   12    5        0.0111839360
    4    2   13    5        0.0000038875
    4    2    6    6       -0.0000555946
    4    2    7    6        0.0000176111
    4    2    8    6        0.0000012112
    4    2    9    6       -0.0000159359
    4    2   10    6        0.0032583323
    4    2   11    6        0.0000067240
    4    2   12    6       -0.0000296254
    4    2   13    6        0.0000474258
    4    2    7    7       -0.0001274848
    4    2    8    7       -0.0000212485
    4    2    9    7        0.0000093110
    4    2   10    7       -0.0034187321
    4    2   11    7       -0.0017979352
    4    2   12    7       -0.0000043288
    4    2   13    7        0.0000304247
    4    2    8    8       -0.0000842633
    4    2    9    8       -0.0000021520
    4    2   10    8        0.0008212024
    4    2   11    8        0.0000016861
    4    2   12    8       -0.0000021035
    4    2   13    8        0.0000103678
    4    2    9    9       -0.0001067721
    4    2   10    9        0.0007172993
    4    2   11    9        0.0000014550
    4    2   12    9        0.0000018068
    4    2   13    9       -0.0000251501
    4    2   10   10       -0.0000297323
    4    2   11   10        0.0000193490
    4    2   12   10       -0.0014635461
    4    2   13   10        0.0030351707
    4    2   11   11       -0.0000939583
    4    2   12   11        0.0027910941
    4    2   13   11        0.0000072123
    4    2   12   12       -0.0000125881
    4    2   13   12       -0.0000031870
    4    2   13   13       -0.0001154709
    5    2    5    2        0.0202317438
    5    2    6    2       -0.0000031048
    5    2    7    2       -0.0000150712
    5    2    8    2        0.0000034470
    5    2    9    2       -0.0000001384
    5    2   10    2        0.0000230789
    5    2   11    2       -0.0112015276
    5    2   12    2        0.0000014750
    5    2   13    2       -0.0000017630
    5    2    3    3        0.0000550036
    5    2    4    3       -0.0000000064
    5    2    5    3        0.0035846811
    5    2    6    3       -0.0000229738
    5    2    7    3       -0.0000897109
    5    2    8    3        0.0000103941
    5    2    9    3        0.0000181784
    5    2   10    3       -0.0000145000
    5    2   11    3        0.0070272315
    5    2   12    3        0.0000048680
    5    2   13    3        0.0000016743
    5    2    4    4        0.0000126512
    5    2    5    4        0.0000027676
    5    2    6    4        0.0000000057
    5    2    7    4        0.0031446230
    5    2    8    4        0.0000000036
    5    2    9    4       -0.0000000399
    5    2   10    4        0.0000330762
    5    2   11    4        0.0000091589
    5    2   12    4        0.0111838942
    5    2   13    4        0.0000038875
    5    2    5    5       -0.0000027211
    5    2    6    5       -0.0018172987
    5    2    7    5       -0.0060094976
    5    2    8    5        0.0032853270
    5    2    9    5       -0.0019187277
    5    2   10    5        0.0000097897
    5    2   11    5       -0.0000065049
    5    2   12    5        0.0058578325
    5    2   13    5       -0.0023454481
    5    2    6    6        0.0000336549
    5    2    7    6        0.0000290919
    5    2    8    6       -0.0000007347
    5    2    9    6        0.0000096399
    5    2   10    6       -0.0000067023
    5    2   11    6        0.0032583376
    5    2   12    6        0.0000329594
    5    2   13    6       -0.0000286570
    5    2    7    7        0.0000771742
    5    2    8    7       -0.0000350992
    5    2    9    7        0.0000153685
    5    2   10    7       -0.0017979039
    5    2   11    7        0.0034187354
    5    2   12    7       -0.0000164555
    5    2   13    7        0.0000502269
    5    2    8    8        0.0000510091
    5    2    9    8        0.0000013014
    5    2   10    8       -0.0000016977
    5    2   11    8        0.0008212208
    5    2   12    8        0.0000033502
    5    2   13    8       -0.0000062694
    5    2    9    9        0.0000646324
    5    2   10    9       -0.0000015014
    5    2   11    9        0.0007172630
    5    2   12    9       -0.0000018162
    5    2   13    9        0.0000152169
    5    2   10   10        0.0000927848
    5    2   11   10        0.0000278407
    5    2   12   10        0.0027909935
    5    2   13   10       -0.0000052978
    5    2   11   11       -0.0000178201
    5    2   12   11        0.0014620401
    5    2   13   11        0.0030361845
    5    2   12   12        0.0000032480
    5    2   13   12        0.0000038958
    5    2   13   13        0.0000699148
    6    2    6    2        0.0070655219
    6    2    7    2        0.0000000004
    6    2    8    2        0.0010237913
    6    2    9    2       -0.0032839169
    6    2   10    2       -0.0000016021
    6    2   11    2        0.0000009589
    6    2   12    2        0.0000002100
    6    2   13    2        0.0057226536
    6    2    3    3        0.0001831036
    6    2    4    3        0.0000054930
    6    2    5    3       -0.0000033252
    6    2    6    3        0.0028826617
    6    2    7    3        0.0000000003
    6    2    8    3        0.0009315476
    6    2    9    3        0.0012686759
    6    2   10    3        0.0000051598
    6    2   11    3       -0.0000031065
    6    2   12    3        0.0000002158
    6    2   13    3       -0.0005126130
    6    2    4    4       -0.0011741529
    6    2    5    4        0.0000000104
    6    2    6    4       -0.0000031707
    6    2    7    4        0.0000025606
    6    2    8    4        0.0000022376
    6    2    9    4       -0.0000022135
    6    2   10    4        0.0036706889
    6    2   11    4        0.0000075704
    6    2   12    4       -0.0000246692
    6    2   13    4       -0.0000007120
    6    2    5    5       -0.0011741432
    6    2    6    5        0.0000019195
    6    2    7    5        0.0000042298
    6    2    8    5       -0.0000013555
    6    2    9    5        0.0000013324
    6    2   10    5       -0.0000075555
    6    2   11    5        0.0036706934
    6    2   12    5        0.0000242767
    6    2   13    5        0.0000004636
    6    2    6    6        0.0034401031
    6    2    7    6        0.0000000003
    6    2    8    6       -0.0007547216
    6    2    9    6       -0.0036798313
    6    2   10    6       -0.0000004874
    6    2   11    6        0.0000002865
    6    2   12    6       -0.0000008615
    6    2   13    6        0.0034030785
    6    2    7    7        0.0005606501
    6    2    8    7       -0.0000000142
    6    2    9    7        0.0000000078
    6    2   10    7       -0.0000015035
    6    2   11    7       -0.0000024952
    6    2   12    7        0.0000057948
    6    2   13    7       -0.0000000047
    6    2    8    8       -0.0021796323
    6    2    9    8        0.0000336937
    6    2   10    8       -0.0000009395
    6    2   11    8        0.0000005660
    6    2   12    8        0.0000002768
    6    2   13    8       -0.0010485493
    6    2    9    9        0.0000501017
    6    2   10    9        0.0000029107
    6    2   11    9       -0.0000017500
    6    2   12    9        0.0000004832
    6    2   13    9       -0.0025270997
    6    2   10   10       -0.0019163205
    6    2   11   10        0.0000000128
    6    2   12   10       -0.0000063665
    6    2   13   10        0.0000028804
    6    2   11   11       -0.0019163058
    6    2   12   11        0.0000044315
    6    2   13   11       -0.0000017386
    6    2   12   12        0.0011834101
    6    2   13   12       -0.0000005624
    6    2   13   13        0.0022539126
    7    2    7    2        0.0016784700
    7    2    8    2        0.0000000016
    7    2    9    2       -0.0000000008
    7    2   10    2        0.0000023553
    7    2   11    2        0.0000039088
    7    2   12    2       -0.0000006487
    7    2   13    2        0.0000000006
    7    2    3    3       -0.0000000001
    7    2    4    3       -0.0000098957
    7    2    5    3       -0.0000163469
    7    2    6    3        0.0000000003
    7    2    7    3        0.0028013941
    7    2    8    3       -0.0000000008
    7    2    9    3        0.0000000007
    7    2   10    3       -0.0000081563
    7    2   11    3       -0.0000135363
    7    2   12    3        0.0000003158
    7    2   13    3       -0.0000000004
    7    2    4    4        0.0021526816
    7    2    5    4        0.0011264441
    7    2    6    4        0.0000018644
    7    2    7    4       -0.0000148565
    7    2    8    4       -0.0000049213
[...]
   10    7   10   10        0.0000050739
   10    7   11   10       -0.0000297864
   10    7   12   10       -0.0000000558
   10    7   13   10       -0.0006156902
   10    7   11   11        0.0000188093
   10    7   12   11       -0.0016791137
   10    7   13   11       -0.0003258210
   10    7   12   12        0.0000031103
   10    7   13   12       -0.0000018905
   10    7   13   13        0.0000298113
   11    7   11    7        0.0030660092
   11    7   12    7       -0.0000147718
   11    7   13    7        0.0000061285
   11    7    8    8        0.0000339520
   11    7    9    8        0.0000005741
   11    7   10    8       -0.0002090435
   11    7   11    8        0.0003955262
   11    7   12    8       -0.0000189976
   11    7   13    8       -0.0000040413
   11    7    9    9        0.0000473279
   11    7   10    9       -0.0007241038
   11    7   11    9        0.0013693959
   11    7   12    9       -0.0000057122
   11    7   13    9        0.0000144672
   11    7   10   10        0.0000484413
   11    7   11   10       -0.0000282562
   11    7   12   10        0.0016793244
   11    7   13   10       -0.0003250077
   11    7   11   11       -0.0000087194
   11    7   12   11       -0.0000005404
   11    7   13   11        0.0006156910
   11    7   12   12        0.0000027714
   11    7   13   12       -0.0000041813
   11    7   13   13        0.0000494682
   12    7   12    7        0.0018164589
   12    7   13    7       -0.0000017352
   12    7    8    8       -0.0000068708
   12    7    9    8       -0.0000003543
   12    7   10    8       -0.0000037874
   12    7   11    8       -0.0000066765
   12    7   12    8        0.0000000138
   12    7   13    8       -0.0000000541
   12    7    9    9       -0.0000039269
   12    7   10    9       -0.0000060071
   12    7   11    9       -0.0000126835
   12    7   12    9       -0.0000000028
   12    7   13    9       -0.0000035076
   12    7   10   10       -0.0000037364
   12    7   11   10       -0.0000003147
   12    7   12   10       -0.0000111352
   12    7   13   10        0.0000003429
   12    7   11   11       -0.0000024270
   12    7   12   11       -0.0000098702
   12    7   13   11       -0.0000004630
   12    7   12   12       -0.0000032538
   12    7   13   12        0.0000000251
   12    7   13   13       -0.0000033664
   13    7   13    7        0.0041067096
   13    7    8    8        0.0000000023
   13    7    9    8        0.0000000101
   13    7   10    8       -0.0000049262
   13    7   11    8       -0.0000081772
   13    7   12    8        0.0000005812
   13    7   13    8       -0.0000000033
   13    7    9    9       -0.0000000077
   13    7   10    9        0.0000155544
   13    7   11    9        0.0000258085
   13    7   12    9       -0.0000036582
   13    7   13    9        0.0000000073
   13    7   10   10        0.0009835169
   13    7   11   10        0.0005198236
   13    7   12   10        0.0000343075
   13    7   13   10        0.0000031174
   13    7   11   11       -0.0009835134
   13    7   12   11        0.0000597488
   13    7   13   11        0.0000051803
   13    7   12   12       -0.0000000198
   13    7   13   12        0.0000012910
   13    7   13   13       -0.0000000003
    8    8    8    8        0.0652606327
    8    8    9    8        0.0003688793
    8    8   10    8        0.0000590279
    8    8   11    8       -0.0000355654
    8    8   12    8        0.0000010020
    8    8   13    8       -0.0002514915
    8    8    9    9        0.0577190492
    8    8   10    9       -0.0000571039
    8    8   11    9        0.0000344011
    8    8   12    9        0.0000005591
    8    8   13    9        0.0005991183
    8    8   10   10        0.0610843949
    8    8   11   10       -0.0000003219
    8    8   12   10        0.0001124498
    8    8   13   10       -0.0000352160
    8    8   11   11        0.0610840506
    8    8   12   11       -0.0000694070
    8    8   13   11        0.0000212149
    8    8   12   12        0.0625791998
    8    8   13   12        0.0000019050
    8    8   13   13        0.0599135051
    9    8    9    8        0.0021461552
    9    8   10    8       -0.0000169946
    9    8   11    8        0.0000102373
    9    8   12    8       -0.0000001356
    9    8   13    8        0.0007664005
    9    8    9    9        0.0003132411
    9    8   10    9        0.0000001625
    9    8   11    9       -0.0000000963
    9    8   12    9       -0.0000000764
    9    8   13    9        0.0005863232
    9    8   10   10       -0.0006151766
    9    8   11   10        0.0000000561
    9    8   12   10        0.0000043511
    9    8   13   10       -0.0000057804
    9    8   11   11       -0.0006151253
    9    8   12   11       -0.0000035259
    9    8   13   11        0.0000034803
    9    8   12   12       -0.0004823783
    9    8   13   12       -0.0000006425
    9    8   13   13        0.0005698556
   10    8   10    8        0.0036447716
   10    8   11    8       -0.0000002103
   10    8   12    8        0.0000292177
   10    8   13    8       -0.0000092227
   10    8    9    9        0.0000125538
   10    8   10    9        0.0002552510
   10    8   11    9       -0.0000000289
   10    8   12    9        0.0000079786
   10    8   13    9       -0.0000041431
   10    8   10   10        0.0000048012
   10    8   11   10       -0.0000033148
   10    8   12   10        0.0000664534
   10    8   13   10        0.0003178257
   10    8   11   11        0.0000143689
   10    8   12   11       -0.0001273506
   10    8   13   11       -0.0000000459
   10    8   12   12        0.0000064219
   10    8   13   12        0.0000009381
   10    8   13   13        0.0000235516
   11    8   11    8        0.0036445434
   11    8   12    8       -0.0000196983
   11    8   13    8        0.0000055513
   11    8    9    9       -0.0000075644
   11    8   10    9       -0.0000000288
   11    8   11    9        0.0002552184
   11    8   12    9       -0.0000058029
   11    8   13    9        0.0000024936
   11    8   10   10       -0.0000144630
   11    8   11   10       -0.0000040990
   11    8   12   10       -0.0001273256
   11    8   13   10       -0.0000000458
   11    8   11   11        0.0000029066
   11    8   12   11       -0.0000671104
   11    8   13   11        0.0003177875
   11    8   12   12       -0.0000013496
   11    8   13   12       -0.0000000531
   11    8   13   13       -0.0000141860
   12    8   12    8        0.0034039730
   12    8   13    8        0.0000005262
   12    8    9    9        0.0000016081
   12    8   10    9        0.0000187185
   12    8   11    9       -0.0000113859
   12    8   12    9        0.0001223159
   12    8   13    9       -0.0000008701
   12    8   10   10       -0.0005762610
   12    8   11   10        0.0010964280
   12    8   12   10        0.0000053159
   12    8   13   10        0.0000064732
   12    8   11   11        0.0005826071
   12    8   12   11       -0.0000010050
   12    8   13   11       -0.0000033656
   12    8   12   12        0.0000053131
   12    8   13   12        0.0001914742
   12    8   13   13        0.0000023907
   13    8   13    8        0.0021689666
   13    8    9    9       -0.0006267721
   13    8   10    9       -0.0000019696
   13    8   11    9        0.0000011873
   13    8   12    9        0.0000001495
   13    8   13    9        0.0008214989
   13    8   10   10       -0.0010352632
   13    8   11   10        0.0000004246
   13    8   12   10       -0.0000056674
   13    8   13   10        0.0000046165
   13    8   11   11       -0.0010348045
   13    8   12   11        0.0000033685
   13    8   13   11       -0.0000027782
   13    8   12   12       -0.0022274264
   13    8   13   12       -0.0000001007
   13    8   13   13       -0.0020249619
    9    9    9    9        0.0651043411
    9    9   10    9       -0.0001252226
    9    9   11    9        0.0000754349
    9    9   12    9       -0.0000022099
    9    9   13    9       -0.0003699232
    9    9   10   10        0.0650183993
    9    9   11   10       -0.0000009148
    9    9   12   10        0.0001534990
    9    9   13   10       -0.0000408033
    9    9   11   11        0.0650174379
    9    9   12   11       -0.0000903925
    9    9   13   11        0.0000245924
    9    9   12   12        0.0670586840
    9    9   13   12        0.0000007500
    9    9   13   13        0.0623739428
   10    9   10    9        0.0044076473
   10    9   11    9       -0.0000005783
   10    9   12    9        0.0000262454
   10    9   13    9       -0.0000273083
   10    9   10   10       -0.0000455164
   10    9   11   10        0.0000558574
   10    9   12   10       -0.0017581896
   10    9   13   10        0.0000401307
   10    9   11   11       -0.0000547238
   10    9   12   11        0.0033243733
   10    9   13   11        0.0000009777
   10    9   12   12        0.0000023322
   10    9   13   12        0.0000050642
   10    9   13   13       -0.0000821062
   11    9   11    9        0.0044070421
   11    9   12    9       -0.0000155188
   11    9   13    9        0.0000164580
   11    9   10   10        0.0000878519
   11    9   11   10       -0.0000016704
   11    9   12   10        0.0033243024
   11    9   13   10        0.0000009774
   11    9   11   11       -0.0000273626
   11    9   12   11        0.0017573204
   11    9   13   11        0.0000411573
   11    9   12   12       -0.0000005186
   11    9   13   12       -0.0000046647
   11    9   13   13        0.0000494536
   12    9   12    9        0.0017675414
   12    9   13    9       -0.0000007407
   12    9   10   10       -0.0004686026
   12    9   11   10        0.0008798272
   12    9   12   10        0.0000034708
   12    9   13   10       -0.0000028311
   12    9   11   11        0.0004647364
   12    9   12   11       -0.0000008969
   12    9   13   11        0.0000025481
   12    9   12   12       -0.0000028069
   12    9   13   12       -0.0001025706
   12    9   13   13       -0.0000016686
   13    9   13    9        0.0031069170
   13    9   10   10       -0.0013445432
   13    9   11   10       -0.0000000697
   13    9   12   10        0.0000351546
   13    9   13   10       -0.0000166760
   13    9   11   11       -0.0013446246
   13    9   12   11       -0.0000231752
   13    9   13   11        0.0000100460
   13    9   12   12       -0.0017580427
   13    9   13   12       -0.0000007463
   13    9   13   13       -0.0024418575
   10   10   10   10        0.0750251359
   10   10   11   10       -0.0006327005
   10   10   12   10        0.0001225330
   10   10   13   10       -0.0000144890
   10   10   11   11        0.0692158023
   10   10   12   11        0.0000365875
   10   10   13   11        0.0000326257
   10   10   12   12        0.0744205919
   10   10   13   12        0.0000689034
   10   10   13   13        0.0661407777
   11   10   11   10        0.0037673506
   11   10   12   10        0.0000297127
   11   10   13   10        0.0000155755
   11   10   11   11        0.0006327054
   11   10   12   11        0.0000403462
   11   10   13   11        0.0000032480
   11   10   12   12        0.0000001720
   11   10   13   12       -0.0001205984
   11   10   13   13       -0.0000008943
   12   10   12   10        0.0073183298
   12   10   13   10       -0.0002568077
   12   10   11   11        0.0000343667
   12   10   12   11       -0.0000013738
   12   10   13   11        0.0004935147
   12   10   12   12       -0.0000080018
   12   10   13   12       -0.0000113834
   12   10   13   13        0.0001471203
   13   10   13   10        0.0022636827
   13   10   11   11       -0.0000250187
   13   10   12   11        0.0004935499
   13   10   13   11        0.0000001193
   13   10   12   12       -0.0000167217
   13   10   13   12        0.0000151635
   13   10   13   13       -0.0000666979
   11   11   11   11        0.0750251285
   11   11   12   11       -0.0001219995
   11   11   13   11       -0.0000087795
   11   11   12   12        0.0744209638
   11   11   13   12       -0.0000627352
   11   11   13   13        0.0661398351
   12   11   12   11        0.0073171879
   12   11   13   11        0.0002601715
   12   11   12   12        0.0000096114
   12   11   13   12        0.0000029395
   12   11   13   13       -0.0000877010
   13   11   13   11        0.0022638165
   13   11   12   12        0.0000041428
   13   11   13   12       -0.0000104668
   13   11   13   13        0.0000401784
   12   12   12   12        0.0862298154
   12   12   13   12        0.0000045354
   12   12   13   13        0.0700690287
   13   12   13   12        0.0008562761
   13   12   13   13       -0.0000006896
   13   13   13   13        0.0712080764
 end_two_electron_integrals


 output epsi filename:./pspw_hf_LiH.emovecs

 Total PSPW energy     :  -0.6792003826E+00


=== Spin Contamination ===

 <Sexact^2> =    0.0000000000000000     
 <S^2>      =    0.0000000000000000     



== Center of Charge ==

spin up     (    0.0000,    0.0000,    3.4557 )
spin down   (    0.0000,    0.0000,    3.4557 )
     total  (    0.0000,    0.0000,    3.4557 )
ionic       (    0.0000,    0.0000,    1.4173 )


== Molecular Dipole wrt Center of Mass ==

mu   =  (   -0.0000,   -0.0000,   -4.0769 ) au
|mu| =     4.0769 au,      10.3618 Debye

 output psi filename:./pspw_hf_LiH.movecs

 Writing Crystallographic Information File:./LiH.cif
   - cell not shifted (nwpw:cif_shift_cell .false.)


== Timing ==

cputime in seconds
  prologue    :   0.890786E+02
  main loop   :   0.146561E+04
  epilogue    :   0.791300E-01
  total       :   0.155477E+04
  cputime/step:   0.747761E+01       (     196 evalulations,      83 linesearches)


Time spent doing                        total          step       percent
  total time                 :   0.155478E+04  0.793255E+01       100.0 %
  i/o time                   :   0.168830E+01  0.861377E-02         0.1 %
  FFTs                       :   0.121711E+04  0.620974E+01        78.3 %
  dot products               :   0.835292E+01  0.426169E-01         0.5 %
  geodesic                   :   0.142286E+00  0.725948E-03         0.0 %
  ffm_dgemm                  :   0.357484E-01  0.182390E-03         0.0 %
  fmf_dgemm                  :   0.577486E-01  0.294636E-03         0.0 %
  mmm_dgemm                  :   0.464987E-02  0.237238E-04         0.0 %
  m_diagonalize              :   0.195102E-02  0.995419E-05         0.0 %
  local pseudopotentials     :   0.599359E-02  0.305796E-04         0.0 %
  non-local pseudopotentials :   0.474641E+01  0.242164E-01         0.3 %
  structure factors          :   0.943580E+00  0.481419E-02         0.1 %
  phase factors              :   0.233050E-04  0.118903E-06         0.0 %
  masking and packing        :   0.253719E+02  0.129448E+00         1.6 %
  queue fft                  :   0.230111E+01  0.117403E-01         0.1 %
  queue fft (serial)         :   0.840350E+00  0.428750E-02         0.1 %
  queue fft (message passing):   0.136436E+01  0.696100E-02         0.1 %
  HFX potential              :   0.122520E+04  0.625104E+01        78.8 %
  non-local psp FFM          :   0.370458E+01  0.189009E-01         0.2 %
  non-local psp FMF          :   0.239744E+00  0.122318E-02         0.0 %
  non-local psp FFM A        :   0.484818E+00  0.247356E-02         0.0 %
  non-local psp FFM B        :   0.410211E+00  0.209291E-02         0.0 %

== HFX Counters ==
  HFX Evalulations         =   196
  Lin ACE HFX Evalulations =     0


     >>>  JOB COMPLETED     AT Sun May  4 20:36:45 2025  <<<

 Task  times  cpu:     1459.8s     wall:     1554.8s


                                NWChem Input Module
                                -------------------


 Summary of allocated global arrays
-----------------------------------
  No active global arrays


MA_summarize_allocated_blocks: starting scan ...
MA_summarize_allocated_blocks: scan completed: 0 heap blocks, 0 stack blocks
MA usage statistics:

	allocation statistics:
					      heap	     stack
					      ----	     -----
	current number of blocks	         0	         0
	maximum number of blocks	       315	        19
	current total bytes		         0	         0
	maximum total bytes		 125579648	  29398984
	maximum total K-bytes		    125580	     29399
	maximum total M-bytes		       126	        30


                                     CITATION
                                     --------
                Please cite the following reference when publishing
                           results obtained with NWChem:

          E. Apra, E. J. Bylaska, W. A. de Jong, N. Govind, K. Kowalski,
       T. P. Straatsma, M. Valiev, H. J. J. van Dam, Y. Alexeev, J. Anchell,
       V. Anisimov, F. W. Aquino, R. Atta-Fynn, J. Autschbach, N. P. Bauman,
     J. C. Becca, D. E. Bernholdt, K. Bhaskaran-Nair, S. Bogatko, P. Borowski,
         J. Boschen, J. Brabec, A. Bruner, E. Cauet, Y. Chen, G. N. Chuev,
      C. J. Cramer, J. Daily, M. J. O. Deegan, T. H. Dunning Jr., M. Dupuis,
   K. G. Dyall, G. I. Fann, S. A. Fischer, A. Fonari, H. Fruchtl, L. Gagliardi,
      J. Garza, N. Gawande, S. Ghosh, K. Glaesemann, A. W. Gotz, J. Hammond,
       V. Helms, E. D. Hermes, K. Hirao, S. Hirata, M. Jacquelin, L. Jensen,
   B. G. Johnson, H. Jonsson, R. A. Kendall, M. Klemm, R. Kobayashi, V. Konkov,
      S. Krishnamoorthy, M. Krishnan, Z. Lin, R. D. Lins, R. J. Littlefield,
      A. J. Logsdail, K. Lopata, W. Ma, A. V. Marenich, J. Martin del Campo,
   D. Mejia-Rodriguez, J. E. Moore, J. M. Mullin, T. Nakajima, D. R. Nascimento,
    J. A. Nichols, P. J. Nichols, J. Nieplocha, A. Otero-de-la-Roza, B. Palmer,
    A. Panyala, T. Pirojsirikul, B. Peng, R. Peverati, J. Pittner, L. Pollack,
   R. M. Richard, P. Sadayappan, G. C. Schatz, W. A. Shelton, D. W. Silverstein,
   D. M. A. Smith, T. A. Soares, D. Song, M. Swart, H. L. Taylor, G. S. Thomas,
            V. Tipparaju, D. G. Truhlar, K. Tsemekhman, T. Van Voorhis,
      A. Vazquez-Mayagoitia, P. Verma, O. Villa, A. Vishnu, K. D. Vogiatzis,
        D. Wang, J. H. Weare, M. J. Williamson, T. L. Windus, K. Wolinski,
        A. T. Wong, Q. Wu, C. Yang, Q. Yu, M. Zacharias, Z. Zhang, Y. Zhao,
                                and R. J. Harrison
                        "NWChem: Past, present, and future
                         J. Chem. Phys. 152, 184102 (2020)
                               doi:10.1063/5.0004997

                                      AUTHORS
                                      -------
  E. Apra, E. J. Bylaska, N. Govind, K. Kowalski, M. Valiev, D. Mejia-Rodriguez,
       A. Kunitsa, N. P. Bauman, A. Panyala, W. A. de Jong, T. P. Straatsma,
   H. J. J. van Dam, D. Wang, T. L. Windus, J. Hammond, J. Autschbach, A. Woods,
    K. Bhaskaran-Nair, J. Brabec, K. Lopata, S. A. Fischer, S. Krishnamoorthy,
     M. Jacquelin, W. Ma, M. Klemm, O. Villa, Y. Chen, V. Anisimov, F. Aquino,
     S. Hirata, M. T. Hackler, E. Hermes, L. Jensen, J. E. Moore, J. C. Becca,
      V. Konjkov, T. Risthaus, M. Malagoli, A. Marenich, A. Otero-de-la-Roza,
        J. Mullin, P. Nichols, R. Peverati, J. Pittner, Y. Zhao, P.-D. Fan,
        A. Fonari, M. J. Williamson, R. J. Harrison, J. R. Rehr, M. Dupuis,
     D. Silverstein, D. M. A. Smith, J. Nieplocha, V. Tipparaju, M. Krishnan,
     B. E. Van Kuiken, A. Vazquez-Mayagoitia, M. Swart, Q. Wu, T. Van Voorhis,
     A. A. Auer, M. Nooijen, L. D. Crosby, E. Brown, G. Cisneros, G. I. Fann,
   H. Fruchtl, J. Garza, K. Hirao, R. A. Kendall, J. A. Nichols, K. Tsemekhman,
    K. Wolinski, J. Anchell, D. E. Bernholdt, P. Borowski, T. Clark, D. Clerc,
   H. Dachsel, M. J. O. Deegan, K. Dyall, D. Elwood, E. Glendening, M. Gutowski,
   A. C. Hess, J. Jaffe, B. G. Johnson, J. Ju, R. Kobayashi, R. Kutteh, Z. Lin,
   R. Littlefield, X. Long, B. Meng, T. Nakajima, S. Niu, L. Pollack, M. Rosing,
   K. Glaesemann, G. Sandrone, M. Stave, H. Taylor, G. Thomas, J. H. van Lenthe,
                               A. T. Wong, Z. Zhang.

 Total times  cpu:     1459.9s     wall:     1554.8s
