 argument  1 = ../data/PW_LiH_data/3x3_aperiodic/NWChem/12nocovo/H1Li1-1.9.nw



============================== echo of input deck ==============================
title "swnc: e theory=pspw4 xc=pbe formula=LiH charge=0 mult=1"
#machinejob:expert

echo

start pspw_hf_LiH

memory heap 1200 mb stack 2400 mb global 400 mb

charge 0

geometry
Li    0.00000    0.00000   -0.95000
H     0.00000    0.00000    0.95000
end

nwpw
  ### pseudopotential block begin ###
  ### pseudopotential block end   ###
  simulation_cell
     SC 28.345889835
     boundary_conditions aperiodic
  end

  cutoff 50.0
  mult 1
  xc hf
  lmbfgs
  tolerances 1.0e-9 1.0e-9

  virtual 12
end
set nwpw:cif_filename LiH

#set nwpw:CI_maxit_orb 15
#set nwpw:CI_maxit_linesearch 15

set nwpw:2qintegrals .true.
#set nwpw:3x3_virtual .true.

task pspw energy
================================================================================


                                         
                                         


             Northwest Computational Chemistry Package (NWChem) 7.2.3
             --------------------------------------------------------


                    Environmental Molecular Sciences Laboratory
                       Pacific Northwest National Laboratory
                                Richland, WA 99352

                              Copyright (c) 1994-2022
                       Pacific Northwest National Laboratory
                            Battelle Memorial Institute

             NWChem is an open-source computational chemistry package
                        distributed under the terms of the
                      Educational Community License (ECL) 2.0
             A copy of the license is included with this distribution
                              in the LICENSE.TXT file

                                  ACKNOWLEDGMENT
                                  --------------

            This software and its documentation were developed at the
            EMSL at Pacific Northwest National Laboratory, a multiprogram
            national laboratory, operated for the U.S. Department of Energy
            by Battelle under Contract Number DE-AC05-76RL01830. Support
            for this work was provided by the Department of Energy Office
            of Biological and Environmental Research, Office of Basic
            Energy Sciences, and the Office of Advanced Scientific Computing.


           Job information
           ---------------

    hostname        = mqs-al
    program         = nwchem
    date            = Sun May  4 19:01:43 2025

    compiled        = Thu_Oct_31_08:55:15_2024
    source          = /home/conda/feedstock_root/build_artifacts/nwchem_1730356057992/work
    nwchem branch   = 7.2.3
    nwchem revision = c400b04
    ga revision     = 5.8.0
    use scalapack   = T
    input           = ../data/PW_LiH_data/3x3_aperiodic/NWChem/12nocovo/H1Li1-1.9.nw
    prefix          = pspw_hf_LiH.
    data base       = ./pspw_hf_LiH.db
    status          = startup
    nproc           =       24
    time left       =     -1s



           Memory information
           ------------------

    heap     =  157286394 doubles =   1200.0 Mbytes
    stack    =  314572799 doubles =   2400.0 Mbytes
    global   =   52428800 doubles =    400.0 Mbytes (distinct from heap & stack)
    total    =  524287993 doubles =   4000.0 Mbytes
    verify   = yes
    hardfail = no 


           Directory information
           ---------------------

  0 permanent = .
  0 scratch   = .




                                NWChem Input Module
                                -------------------


              swnc: e theory=pspw4 xc=pbe formula=LiH charge=0 mult=1
              -------------------------------------------------------

 Scaling coordinates for geometry "geometry" by  1.889725989
 (inverse scale =  0.529177249)

  zeroes
  zeroes
  zeroes
  zeroes
  zeroes
  zeroes
  zeroes
  zeroes
  zeroes
  zeroes
  zeroes
  zeroes
  zeroes
  zeroes
  zeroes
  zeroes
  zeroes
  zeroes
  zeroes
  zeroes
  zeroes
  zeroes
  zeroes
  zeroes
  zeroes
  zeroes
  zeroes
  zeroes
  zeroes
  zeroes
  zeroes
  zeroes
  zeroes
  zeroes
  zeroes
  zeroes
  zeroes
  zeroes
  zeroes
  zeroes
  zeroes
  zeroes
  zeroes
  zeroes
  zeroes
  zeroes
  zeroes
  zeroes
 ORDER OF PRIMARY AXIS IS BEING SET TO 4
 C4V symmetry detected

          ------
          auto-z
          ------
  no constraints, skipping    0.0000000000000000     
  no constraints, skipping    0.0000000000000000     


                             Geometry "geometry" -> ""
                             -------------------------

 Output coordinates in angstroms (scale by  1.889725989 to convert to a.u.)

  No.       Tag          Charge          X              Y              Z
 ---- ---------------- ---------- -------------- -------------- --------------
    1 Li                   3.0000     0.00000000     0.00000000    -0.47500000
    2 H                    1.0000     0.00000000     0.00000000     1.42500000

      Atomic Mass 
      ----------- 

      Li                 7.016000
      H                  1.007825


 Effective nuclear repulsion energy (a.u.)       0.8355430247

            Nuclear Dipole moment (a.u.) 
            ----------------------------
        X                 Y               Z
 ---------------- ---------------- ----------------
     0.0000000000     0.0000000000    -0.0000000000

      Symmetry information
      --------------------

 Group name             C4v       
 Group number             18
 Group order               8
 No. of unique centers     2

      Symmetry unique atoms

     1    2



                                Z-matrix (autoz)
                                -------- 

 Units are Angstrom for bonds and degrees for angles

      Type          Name      I     J     K     L     M      Value
      ----------- --------  ----- ----- ----- ----- ----- ----------
    1 Stretch                  1     2                       1.90000


            XYZ format geometry
            -------------------
     2
 geometry
 Li                    0.00000000     0.00000000    -0.47500000
 H                     0.00000000     0.00000000     1.42500000

          ****************************************************
          *                                                  *
          *               NWPW PSPW Calculation              *
          *                                                  *
          * [ (Grassmann/Stiefel manifold implementation)  ] *
          *                                                  *
          *      [ NorthWest Chemistry implementation ]      *
          *                                                  *
          *            version #5.10   06/12/02              *
          *                                                  *
          *    This code was developed by Eric J. Bylaska,   *
          *    and was based upon algorithms and code        *
          *    developed by the group of Prof. John H. Weare *
          *                                                  *
          ****************************************************
     >>>  JOB STARTED       AT Sun May  4 19:01:43 2025  <<<
          ================ input data ========================

 input psi filename:./pspw_hf_LiH.movecs

 number of processors used:        24
 processor grid           :  24 x   1
 parallel mapping         :2d-hilbert
 parallel mapping         :  balanced
 number of threads        :         1
 parallel io              :       off

 options:
      boundary conditions  = aperiodic   (version4)
      electron spin        = restricted
      exchange-correlation = Hartree-Fock
      - HFX relaxed
      - HFX restricted orbitals :    1
      - HFX free-space coulomb solver


 elements involved in the cluster:
      1: Li  valence charge:  1.0000  lmax=  1
             comment    : Hamann pseudopotential
             pseudpotential type            :   0
             highest angular component      :   1
             local potential used           :   1
             number of non-local projections:   1
             aperiodic cutoff radius        :  1.000
             semicore corrections included  :  1.000 (radius)  0.769 (charge)
             cutoff =   1.869   1.551

      2: H   valence charge:  1.0000  lmax=  1
             comment    : Parameterized (Chem.Phys.Lett., vol 322, page 447) Hamman psp
             pseudpotential type            :   0
             highest angular component      :   1
             local potential used           :   1
             number of non-local projections:   1
             aperiodic cutoff radius        :  1.000
             cutoff =   0.800   0.800


 total charge:   0.000

 atomic composition:
     Li  :    1     H   :    1

 number of electrons: spin up=     1 (   1 per task)  down=     1 (   1 per task) (Fourier space)
 number of orbitals : spin up=     1 (   1 per task)  down=     1 (   1 per task) (Fourier space)

 supercell:
      cell_name:  cell_default                                      
      lattice:    a1=<  28.346   0.000   0.000 >
                  a2=<   0.000  28.346   0.000 >
                  a3=<   0.000   0.000  28.346 >
      reciprocal: b1=<   0.222   0.000   0.000 >
                  b2=<   0.000   0.222   0.000 >
                  b3=<   0.000   0.000   0.222 >
      lattice:    a=      28.346 b=     28.346 c=      28.346
                  alpha=  90.000 beta=  90.000 gamma=  90.000
                  omega=     22775.6

      density cutoff=100.000  fft=140x140x140(   544264 waves    22677 per task)
      wavefnc cutoff= 50.000  fft=140x140x140(   192294 waves     8012 per task)

 technical parameters:
      time step=      5.80     fictitious mass=  400000.0
      tolerance=0.100E-08 (energy)   0.100E-08 (density)
      maximum iterations =      1000 (   10 inner    100 outer )





== Energy Calculation ==


          ============ Grassmann lmbfgs iteration ============
     >>>  ITERATION STARTED AT Sun May  4 19:03:13 2025  <<<
    iter.           Energy         DeltaE       DeltaRho 
    ------------------------------------------------------
      10   -0.7386360105E+00   -0.91281E-04    0.91255E-03
      20   -0.7388756175E+00   -0.48833E-05    0.51974E-05
      30   -0.7388927636E+00   -0.44881E-06    0.75362E-07
      40   -0.7388942127E+00   -0.39328E-07    0.34344E-08
      50   -0.7388943466E+00   -0.39185E-08    0.17669E-09
      60   -0.7388943609E+00   -0.84094E-09    0.34702E-10
  *** tolerance ok. iteration terminated
     >>>  ITERATION ENDED   AT Sun May  4 19:04:20 2025  <<<


==  Summary Of Results  ==

 number of electrons: spin up=    1.00000  down=    1.00000 (real space)

 total     energy    :  -0.7388943609E+00 (   -0.36945E+00/ion)
 total orbital energy:  -0.5636315809E+00 (   -0.56363E+00/electron)
 hartree   energy    :   0.9075542432E+00 (    0.90755E+00/electron)
 exc-corr  energy    :   0.0000000000E+00 (    0.00000E+00/electron)
 HF exchange energy  :  -0.4537771216E+00 (   -0.45378E+00/electron)
 ion-ion   energy    :   0.2785143416E+00 (    0.13926E+00/ion)

 kinetic (planewave) :   0.5597630226E+00 (    0.55976E+00/electron)
 V_local (planewave) :  -0.1940112380E+01 (   -0.19401E+01/electron)
 V_nl    (planewave) :  -0.9083646640E-01 (   -0.90836E-01/electron)
 V_Coul  (planewave) :   0.1815108486E+01 (    0.18151E+01/electron)
 V_xc.   (planewave) :   0.0000000000E+00 (    0.00000E+00/electron)
 K.S. HFX energy     :  -0.9075542432E+00 (   -0.90755E+00/electron)
 Virial Coefficient  :  -0.3855923875E+00

 orbital energies:
    -0.2818158E+00 (  -7.669eV)


== Virtual Orbital Calculation ==


 input epsi filename:./pspw_hf_LiH.emovecs
     orbital   1 current e=-0.133E-01 (error=0.937E-09) iterations  86(  22 preconditioned, Ep,Sp= 20.0  200.0)
     orbital   2 current e= 0.710E-02 (error=0.910E-09) iterations  69(  15 preconditioned, Ep,Sp= 20.0  200.0)
     orbital   3 current e= 0.180E-01 (error=0.968E-09) iterations  67(  14 preconditioned, Ep,Sp= 20.0  200.0)
     orbital   4 current e= 0.180E-01 (error=0.957E-09) iterations  68(  14 preconditioned, Ep,Sp= 20.0  200.0)
     orbital   5 current e= 0.225E-01 (error=0.902E-09) iterations  51(   1 preconditioned, Ep,Sp= 20.0  200.0)
     orbital   6 current e= 0.226E-01 (error=0.953E-09) iterations  77(  16 preconditioned, Ep,Sp= 20.0  200.0)
     orbital   7 current e= 0.297E-01 (error=0.947E-09) iterations  80(  14 preconditioned, Ep,Sp= 20.0  200.0)
     orbital   8 current e= 0.367E-01 (error=0.970E-09) iterations  90(  27 preconditioned, Ep,Sp= 20.0  200.0)
     orbital   9 current e= 0.403E-01 (error=0.136E-08) iterations 121(  22 preconditioned, Ep,Sp= 20.0  200.0)
     orbital   9 current e= 0.403E-01 (error=0.649E-09) iterations   2(   1 preconditioned, Ep,Sp= 20.0  200.0)
     orbital  10 current e= 0.403E-01 (error=0.304E-08) iterations 121(  22 preconditioned, Ep,Sp= 20.0  200.0)
     orbital  10 current e= 0.403E-01 (error=0.933E-09) iterations  35(   1 preconditioned, Ep,Sp= 20.0  200.0)
     orbital  11 current e= 0.462E-01 (error=0.139E-08) iterations 121(  17 preconditioned, Ep,Sp= 20.0  200.0)
     orbital  11 current e= 0.462E-01 (error=0.707E-09) iterations   2(   1 preconditioned, Ep,Sp= 20.0  200.0)
     orbital  12 current e= 0.465E-01 (error=0.467E-06) iterations 121( 120 preconditioned, Ep,Sp= 20.0  200.0)
     orbital  12 current e= 0.465E-01 (error=0.446E-08) iterations 121(  34 preconditioned, Ep,Sp= 20.0  200.0)
     orbital  12 current e= 0.603E-01 (error=0.265E-05) iterations 121( 120 preconditioned, Ep,Sp= 20.0  200.0)
     orbital  12 current e= 0.542E-01 (error=0.976E-04) iterations 121( 120 preconditioned, Ep,Sp= 20.0  200.0)
     orbital  12 current e= 0.466E-01 (error=0.130E-05) iterations 121( 120 preconditioned, Ep,Sp= 20.0  200.0)
     orbital  12 current e= 0.465E-01 (error=0.127E-06) iterations 121(  73 preconditioned, Ep,Sp= 20.0  200.0)
     orbital  12 current e= 0.465E-01 (error=0.951E-07) iterations 121(   1 preconditioned, Ep,Sp= 20.0  200.0)

 virtual orbital energies:
     0.4651002E-01 (   1.266eV)
     0.4621365E-01 (   1.258eV)
     0.4026322E-01 (   1.096eV)
     0.4026321E-01 (   1.096eV)
     0.3671991E-01 (   0.999eV)
     0.2973167E-01 (   0.809eV)
     0.2263889E-01 (   0.616eV)
     0.2245411E-01 (   0.611eV)
     0.1800448E-01 (   0.490eV)
     0.1800448E-01 (   0.490eV)
     0.7102313E-02 (   0.193eV)
    -0.1331122E-01 (  -0.362eV)


 == Generating One-Electron and Two-Electron Integrals ==

 begin_one_electron_integrals
    1    1        -0.7355929121
    2    1        -0.0357338417
    3    1        -0.0144623001
    4    1        -0.0000000209
    5    1        -0.0000001827
    6    1        -0.0000000843
    7    1        -0.0157680711
    8    1        -0.0142363856
    9    1         0.0039412114
   10    1        -0.0000024994
   11    1         0.0000000002
   12    1         0.0154676871
   13    1        -0.0001056019
    2    2        -0.2505044865
    3    2        -0.0579610184
    4    2        -0.0000000521
    5    2        -0.0000013564
    6    2        -0.0000002560
    7    2        -0.0291264367
    8    2        -0.0205757342
    9    2         0.0269707862
   10    2        -0.0000023229
   11    2        -0.0000000403
   12    2         0.0228865105
   13    2        -0.0003603489
    3    3        -0.1572244049
    4    3         0.0000000219
    5    3         0.0000007614
    6    3        -0.0000004961
    7    3        -0.0082043057
    8    3         0.0001738265
    9    3         0.0430994539
   10    3         0.0000010137
   11    3        -0.0000000317
   12    3         0.0120371033
   13    3        -0.0003064479
    4    4        -0.1645320956
    5    4        -0.0000000038
    6    4         0.0000000614
    7    4         0.0000000160
    8    4        -0.0000000333
    9    4        -0.0000000704
   10    4         0.0000589998
   11    4        -0.0481512445
   12    4        -0.0000012213
   13    4        -0.0000553740
    5    5        -0.1645259937
    6    5        -0.0000024301
    7    5        -0.0000038078
    8    5         0.0000122210
    9    5         0.0000132247
   10    5        -0.0481540050
   11    5        -0.0000589271
   12    5         0.0005186286
   13    5         0.0261403235
    6    6        -0.1198324268
    7    6         0.0000010452
    8    6        -0.0000042095
    9    6        -0.0000040409
   10    6         0.0000146123
   11    6         0.0000000692
   12    6        -0.0001730825
   13    6        -0.0000554440
    7    7        -0.1318410455
    8    7        -0.0058020997
    9    7         0.0056197947
   10    7        -0.0000036590
   11    7         0.0000000288
   12    7         0.0278513255
   13    7        -0.0004426338
    8    8        -0.1171030393
    9    8         0.0007895392
   10    8         0.0000059104
   11    8        -0.0000000043
   12    8         0.0052708149
   13    8         0.0000818334
    9    9        -0.1122945350
   10    9         0.0000074805
   11    9        -0.0000000329
   12    9        -0.0060474329
   13    9         0.0003073562
   10   10        -0.1327018951
   11   10         0.0000000368
   12   10         0.0002990790
   13   10         0.0150287599
   11   11        -0.1326735338
   12   11        -0.0000003864
   13   11        -0.0000132429
   12   12        -0.1020598609
   13   12        -0.0002950457
   13   13        -0.1123210596
 end_one_electron_integrals

 begin_two_electron_integrals
    1    1    1    1        0.4537771216
    1    1    2    1        0.0357459464
    1    1    3    1        0.0144651957
    1    1    4    1        0.0000000209
    1    1    5    1        0.0000001827
    1    1    6    1        0.0000000844
    1    1    7    1        0.0157685077
    1    1    8    1        0.0142379230
    1    1    9    1       -0.0039433109
    1    1   10    1        0.0000024993
    1    1   11    1       -0.0000000002
    1    1   12    1       -0.0154686093
    1    1   13    1        0.0001056365
    1    1    2    2        0.1213238310
    1    1    3    2        0.0303003028
    1    1    4    2        0.0000000290
    1    1    5    2        0.0000007079
    1    1    6    2        0.0000001405
    1    1    7    2        0.0157671000
    1    1    8    2        0.0111978328
    1    1    9    2       -0.0141238504
    1    1   10    2        0.0000013610
    1    1   11    2        0.0000000220
    1    1   12    2       -0.0126671692
    1    1   13    2        0.0001911434
    1    1    3    3        0.0828531939
    1    1    4    3       -0.0000000132
    1    1    5    3       -0.0000003856
    1    1    6    3        0.0000002543
    1    1    7    3        0.0046758809
    1    1    8    3        0.0003064685
    1    1    9    3       -0.0219309672
    1    1   10    3       -0.0000004618
    1    1   11    3        0.0000000133
    1    1   12    3       -0.0066132261
    1    1   13    3        0.0001606519
    1    1    4    4        0.0917233349
    1    1    5    4        0.0000000020
    1    1    6    4       -0.0000000239
    1    1    7    4       -0.0000000047
    1    1    8    4        0.0000000185
    1    1    9    4        0.0000000387
    1    1   10    4       -0.0000301237
    1    1   11    4        0.0245831671
    1    1   12    4        0.0000006243
    1    1   13    4        0.0000283958
    1    1    5    5        0.0917202110
    1    1    6    5        0.0000012191
    1    1    7    5        0.0000019513
    1    1    8    5       -0.0000062475
    1    1    9    5       -0.0000067706
    1    1   10    5        0.0245844918
    1    1   11    5        0.0000300863
    1    1   12    5       -0.0002658916
    1    1   13    5       -0.0134017848
    1    1    6    6        0.0711527848
    1    1    7    6       -0.0000005144
    1    1    8    6        0.0000021044
    1    1    9    6        0.0000020161
    1    1   10    6       -0.0000072903
    1    1   11    6       -0.0000000281
    1    1   12    6        0.0000866274
    1    1   13    6        0.0000273590
    1    1    7    7        0.0777871449
    1    1    8    7        0.0033008076
    1    1    9    7       -0.0030816921
    1    1   10    7        0.0000019932
    1    1   11    7       -0.0000000116
    1    1   12    7       -0.0144805346
    1    1   13    7        0.0002252432
    1    1    8    8        0.0737727678
    1    1    9    8       -0.0005332184
    1    1   10    8       -0.0000031400
    1    1   11    8        0.0000000033
    1    1   12    8       -0.0030397642
    1    1   13    8       -0.0000340657
    1    1    9    9        0.0747737540
    1    1   10    9       -0.0000039963
    1    1   11    9        0.0000000198
    1    1   12    9        0.0033114134
    1    1   13    9       -0.0001557281
    1    1   10   10        0.0870572215
    1    1   11   10       -0.0000000193
    1    1   12   10       -0.0001569064
    1    1   13   10       -0.0078774538
    1    1   11   11        0.0870429079
    1    1   12   11        0.0000002000
    1    1   13   11        0.0000069456
    1    1   12   12        0.0747072864
    1    1   13   12        0.0001496277
    1    1   13   13        0.0796664227
    2    1    2    1        0.0054543971
    2    1    3    1        0.0026495039
    2    1    4    1        0.0000000059
    2    1    5    1        0.0000000588
    2    1    6    1        0.0000000243
    2    1    7    1        0.0024063630
    2    1    8    1        0.0018171360
    2    1    9    1       -0.0012748242
    2    1   10    1        0.0000003620
    2    1   11    1        0.0000000038
    2    1   12    1       -0.0024439833
    2    1   13    1        0.0000246122
    2    1    2    2       -0.0040212989
    2    1    3    2       -0.0019735404
    2    1    4    2       -0.0000000217
    2    1    5    2       -0.0000000658
    2    1    6    2       -0.0000000107
    2    1    7    2        0.0001727206
    2    1    8    2        0.0000795280
    2    1    9    2        0.0010605546
    2    1   10    2        0.0000000508
    2    1   11    2       -0.0000000096
    2    1   12    2       -0.0003354634
    2    1   13    2       -0.0000022377
    2    1    3    3       -0.0014389772
    2    1    4    3        0.0000000146
    2    1    5    3        0.0000000142
    2    1    6    3       -0.0000000109
    2    1    7    3       -0.0001708970
    2    1    8    3       -0.0011462978
    2    1    9    3        0.0008898598
    2    1   10    3       -0.0000000266
    2    1   11    3       -0.0000000121
    2    1   12    3       -0.0000341129
    2    1   13    3       -0.0000012550
    2    1    4    4       -0.0017980882
    2    1    5    4        0.0000000016
    2    1    6    4       -0.0000000312
    2    1    7    4       -0.0000000062
    2    1    8    4        0.0000000038
    2    1    9    4       -0.0000000080
    2    1   10    4        0.0000015064
    2    1   11    4       -0.0012304756
    2    1   12    4        0.0000000225
    2    1   13    4        0.0000010057
    2    1    5    5       -0.0017981337
    2    1    6    5        0.0000000491
    2    1    7    5        0.0000000114
    2    1    8    5       -0.0000001776
    2    1    9    5       -0.0000001943
    2    1   10    5       -0.0012305716
    2    1   11    5       -0.0000015037
    2    1   12    5       -0.0000093218
    2    1   13    5       -0.0004680102
    2    1    6    6       -0.0007103953
    2    1    7    6        0.0000000096
    2    1    8    6        0.0000000119
    2    1    9    6        0.0000000339
    2    1   10    6       -0.0000000686
    2    1   11    6       -0.0000000271
    2    1   12    6        0.0000010364
    2    1   13    6        0.0000003593
    2    1    7    7       -0.0005380280
    2    1    8    7       -0.0000246156
    2    1    9    7        0.0002692074
    2    1   10    7       -0.0000000776
    2    1   11    7       -0.0000000034
    2    1   12    7        0.0004178031
    2    1   13    7       -0.0000073821
    2    1    8    8        0.0003782876
    2    1    9    8        0.0005388503
    2    1   10    8        0.0000000998
    2    1   11    8        0.0000000022
    2    1   12    8       -0.0002780854
    2    1   13    8        0.0000000458
    2    1    9    9       -0.0008176705
    2    1   10    9        0.0000000298
    2    1   11    9       -0.0000000111
    2    1   12    9       -0.0001670726
    2    1   13    9        0.0000000125
    2    1   10   10       -0.0012490953
    2    1   11   10        0.0000000014
    2    1   12   10        0.0000001015
    2    1   13   10        0.0000014471
    2    1   11   11       -0.0012493269
    2    1   12   11        0.0000000087
    2    1   13   11       -0.0000000132
    2    1   12   12       -0.0007263678
    2    1   13   12        0.0000050763
    2    1   13   13       -0.0005401522
    3    1    3    1        0.0013796700
    3    1    4    1       -0.0000000045
    3    1    5    1       -0.0000000177
    3    1    6    1        0.0000000155
    3    1    7    1        0.0011596855
    3    1    8    1        0.0007935946
    3    1    9    1       -0.0007664211
    3    1   10    1        0.0000001112
    3    1   11    1       -0.0000000052
    3    1   12    1       -0.0011922082
    3    1   13    1        0.0000138708
    3    1    2    2       -0.0034822050
    3    1    3    2       -0.0018004293
    3    1    4    2        0.0000000442
    3    1    5    2        0.0000001190
    3    1    6    2       -0.0000000149
    3    1    7    2       -0.0001103169
    3    1    8    2       -0.0001335928
    3    1    9    2        0.0010315890
    3    1   10    2        0.0000000988
    3    1   11    2        0.0000000138
    3    1   12    2       -0.0000056652
    3    1   13    2       -0.0000050120
    3    1    3    3       -0.0012741260
    3    1    4    3       -0.0000000315
    3    1    5    3       -0.0000000576
    3    1    6    3       -0.0000000089
    3    1    7    3       -0.0002570896
    3    1    8    3       -0.0008574943
    3    1    9    3        0.0008282380
    3    1   10    3        0.0000000751
    3    1   11    3        0.0000000268
    3    1   12    3        0.0001079627
    3    1   13    3       -0.0000033303
    3    1    4    4       -0.0014237094
    3    1    5    4       -0.0000000007
    3    1    6    4        0.0000000585
    3    1    7    4        0.0000000176
    3    1    8    4       -0.0000000050
    3    1    9    4        0.0000000154
    3    1   10    4        0.0000013005
    3    1   11    4       -0.0010640326
    3    1   12    4        0.0000000007
    3    1   13    4        0.0000004585
    3    1    5    5       -0.0014237101
    3    1    6    5       -0.0000000345
    3    1    7    5        0.0000000598
    3    1    8    5       -0.0000000748
    3    1    9    5       -0.0000000328
    3    1   10    5       -0.0010640904
    3    1   11    5       -0.0000013030
    3    1   12    5       -0.0000041956
    3    1   13    5       -0.0002082639
    3    1    6    6       -0.0004879150
    3    1    7    6        0.0000000026
    3    1    8    6        0.0000000050
    3    1    9    6        0.0000000204
    3    1   10    6       -0.0000001014
    3    1   11    6        0.0000000517
    3    1   12    6        0.0000006084
    3    1   13    6        0.0000002014
    3    1    7    7       -0.0004757241
    3    1    8    7       -0.0000746293
    3    1    9    7        0.0002791344
    3    1   10    7       -0.0000000389
    3    1   11    7        0.0000000088
    3    1   12    7        0.0004058911
    3    1   13    7       -0.0000069811
    3    1    8    8        0.0001825418
    3    1    9    8        0.0004133276
    3    1   10    8        0.0000001015
    3    1   11    8       -0.0000000090
    3    1   12    8       -0.0001274992
    3    1   13    8       -0.0000005645
    3    1    9    9       -0.0007388111
    3    1   10    9        0.0000001390
    3    1   11    9        0.0000000233
    3    1   12    9       -0.0002107094
    3    1   13    9        0.0000022194
    3    1   10   10       -0.0011108384
    3    1   11   10       -0.0000000003
    3    1   12   10        0.0000025282
    3    1   13   10        0.0001275835
    3    1   11   11       -0.0011109283
    3    1   12   11       -0.0000000172
    3    1   13   11       -0.0000001220
    3    1   12   12       -0.0006158947
    3    1   13   12        0.0000035066
    3    1   13   13       -0.0004539102
    4    1    4    1        0.0009100900
    4    1    5    1        0.0000000001
    4    1    6    1        0.0000000137
    4    1    7    1        0.0000000066
    4    1    8    1        0.0000000037
    4    1    9    1        0.0000000070
    4    1   10    1       -0.0000012459
    4    1   11    1        0.0010164428
    4    1   12    1        0.0000000272
    4    1   13    1        0.0000014052
    4    1    2    2       -0.0000009734
    4    1    3    2        0.0000023348
    4    1    4    2       -0.0020795440
    4    1    5    2        0.0000000045
    4    1    6    2       -0.0000046481
    4    1    7    2       -0.0000011146
    4    1    8    2        0.0000006967
    4    1    9    2       -0.0000003195
    4    1   10    2        0.0000019594
    4    1   11    2       -0.0015942432
    4    1   12    2        0.0000003192
    4    1   13    2       -0.0000009415
    4    1    3    3       -0.0000066612
    4    1    4    3       -0.0000804404
    4    1    5    3       -0.0000000022
    4    1    6    3        0.0000101866
    4    1    7    3        0.0000029440
    4    1    8    3       -0.0000004078
    4    1    9    3       -0.0000015803
    4    1   10    3        0.0000012860
    4    1   11    3       -0.0010546651
    4    1   12    3        0.0000004968
    4    1   13    3        0.0000000059
    4    1    4    4        0.0000006287
    4    1    5    4        0.0000010199
    4    1    6    4       -0.0006018550
    4    1    7    4       -0.0007314770
    4    1    8    4       -0.0000952012
    4    1    9    4       -0.0001561037
    4    1   10    4       -0.0000016910
    4    1   11    4       -0.0000011145
    4    1   12    4        0.0005450714
    4    1   13    4        0.0000347953
    4    1    5    5       -0.0000033496
    4    1    6    5       -0.0003193132
    4    1    7    5        0.0000000234
    4    1    8    5       -0.0000000389
    4    1    9    5       -0.0000000402
    4    1   10    5        0.0000059807
    4    1   11    5       -0.0000018557
    4    1   12    5       -0.0000016278
    4    1   13    5       -0.0000782198
    4    1    6    6       -0.0000094111
    4    1    7    6       -0.0000040783
    4    1    8    6        0.0000014279
    4    1    9    6       -0.0000053336
    4    1   10    6       -0.0003379099
    4    1   11    6       -0.0006386362
    4    1   12    6        0.0000051796
    4    1   13    6       -0.0000451532
    4    1    7    7       -0.0000054617
    4    1    8    7       -0.0000005151
    4    1    9    7       -0.0000014834
    4    1   10    7        0.0000007934
    4    1   11    7       -0.0006162628
    4    1   12    7       -0.0000039355
    4    1   13    7       -0.0000025747
    4    1    8    8       -0.0000075542
    4    1    9    8        0.0000003462
    4    1   10    8        0.0000000084
    4    1   11    8       -0.0000457198
    4    1   12    8        0.0000002664
    4    1   13    8       -0.0000007797
    4    1    9    9       -0.0000079212
    4    1   10    9       -0.0000000693
    4    1   11    9        0.0000187715
    4    1   12    9        0.0000027047
    4    1   13    9       -0.0000002259
    4    1   10   10       -0.0000107852
    4    1   11   10        0.0000037600
    4    1   12   10       -0.0000029248
    4    1   13   10       -0.0000090297
    4    1   11   11        0.0000021214
    4    1   12   11        0.0006967832
    4    1   13   11       -0.0000085565
    4    1   12   12       -0.0000083686
    4    1   13   12        0.0000028266
    4    1   13   13        0.0000597033
    5    1    5    1        0.0009099438
    5    1    6    1        0.0000000194
    5    1    7    1        0.0000001135
    5    1    8    1       -0.0000002954
    5    1    9    1       -0.0000003236
    5    1   10    1        0.0010164790
    5    1   11    1        0.0000012441
    5    1   12    1       -0.0000131605
    5    1   13    1       -0.0006622503
    5    1    2    2       -0.0000016481
    5    1    3    2        0.0000038983
    5    1    4    2        0.0000000043
    5    1    5    2       -0.0020793527
    5    1    6    2        0.0000027631
    5    1    7    2       -0.0000019818
    5    1    8    2        0.0000013634
    5    1    9    2       -0.0000002906
    5    1   10    2       -0.0015943974
    5    1   11    2       -0.0000019453
    5    1   12    2        0.0000092402
    5    1   13    2        0.0004364745
    5    1    3    3       -0.0000110678
    5    1    4    3       -0.0000000021
    5    1    5    3       -0.0000804228
    5    1    6    3       -0.0000061229
    5    1    7    3        0.0000049237
    5    1    8    3       -0.0000006472
    5    1    9    3       -0.0000025932
    5    1   10    3       -0.0010545451
    5    1   11    3       -0.0000012937
    5    1   12    3        0.0000008931
    5    1   13    3        0.0000070842
    5    1    4    4       -0.0000034256
    5    1    5    4       -0.0000006580
    5    1    6    4       -0.0003192861
    5    1    7    4        0.0000000245
    5    1    8    4       -0.0000000400
    5    1    9    4       -0.0000000411
    5    1   10    4        0.0000012634
    5    1   11    4        0.0000060054
    5    1   12    4       -0.0000016861
    5    1   13    4       -0.0000811486
    5    1    5    5       -0.0000010193
    5    1    6    5        0.0006017912
    5    1    7    5       -0.0007313332
    5    1    8    5       -0.0000950607
    5    1    9    5       -0.0001559529
    5    1   10    5        0.0000015970
    5    1   11    5        0.0000010946
    5    1   12    5        0.0005500127
    5    1   13    5       -0.0000475995
    5    1    6    6       -0.0000156439
    5    1    7    6        0.0000024000
    5    1    8    6       -0.0000008553
    5    1    9    6        0.0000032096
    5    1   10    6        0.0006387328
    5    1   11    6       -0.0003377990
    5    1   12    6       -0.0000019793
    5    1   13    6        0.0000853175
    5    1    7    7       -0.0000094159
    5    1    8    7       -0.0000003453
    5    1    9    7       -0.0000018938
    5    1   10    7       -0.0006169395
    5    1   11    7       -0.0000007268
    5    1   12    7        0.0000183398
    5    1   13    7        0.0012371117
    5    1    8    8       -0.0000122302
    5    1    9    8        0.0000007863
    5    1   10    8       -0.0000452043
    5    1   11    8       -0.0000001036
    5    1   12    8        0.0000076830
    5    1   13    8        0.0003674734
    5    1    9    9       -0.0000130803
    5    1   10    9        0.0000190059
    5    1   11    9       -0.0000000259
    5    1   12    9        0.0000062396
    5    1   13    9        0.0000890141
    5    1   10   10       -0.0000042540
    5    1   11   10       -0.0000019385
    5    1   12   10        0.0007042882
    5    1   13   10       -0.0000123104
    5    1   11   11       -0.0000114792
    5    1   12   11       -0.0000011170
    5    1   13   11       -0.0000044295
    5    1   12   12       -0.0000255902
    5    1   13   12       -0.0002918631
    5    1   13   13        0.0000323275
    6    1    6    1        0.0000190335
    6    1    7    1        0.0000000092
    6    1    8    1        0.0000000092
    6    1    9    1       -0.0000000061
    6    1   10    1        0.0000000041
    6    1   11    1        0.0000000131
    6    1   12    1        0.0000001818
    6    1   13    1        0.0000000486
    6    1    2    2       -0.0000000547
    6    1    3    2       -0.0000000295
    6    1    4    2       -0.0000001174
    6    1    5    2        0.0000000168
    6    1    6    2       -0.0001208304
    6    1    7    2        0.0000000062
    6    1    8    2       -0.0000000152
    6    1    9    2        0.0000000028
    6    1   10    2        0.0000000426
    6    1   11    2       -0.0000000428
    6    1   12    2       -0.0000005922
    6    1   13    2       -0.0000001809
    6    1    3    3       -0.0000000208
    6    1    4    3        0.0000000830
    6    1    5    3       -0.0000000485
    6    1    6    3        0.0000705413
    6    1    7    3       -0.0000000078
    6    1    8    3       -0.0000000118
    6    1    9    3        0.0000000172
    6    1   10    3       -0.0000000085
    6    1   11    3       -0.0000000617
    6    1   12    3        0.0000002119
    6    1   13    3        0.0000000785
    6    1    4    4       -0.0001096249
    6    1    5    4       -0.0000581472
    6    1    6    4       -0.0000000602
    6    1    7    4       -0.0000000430
    6    1    8    4        0.0000000201
    6    1    9    4       -0.0000000429
    6    1   10    4       -0.0000740724
    6    1   11    4       -0.0001400083
    6    1   12    4        0.0000001072
    6    1   13    4        0.0000043146
    6    1    5    5        0.0001095695
    6    1    6    5       -0.0000000705
    6    1    7    5       -0.0000000025
    6    1    8    5       -0.0000000227
    6    1    9    5        0.0000000101
    6    1   10    5        0.0001399989
    6    1   11    5       -0.0000740478
    6    1   12    5       -0.0000001550
    6    1   13    5       -0.0000081688
    6    1    6    6       -0.0000000176
    6    1    7    6       -0.0000736382
    6    1    8    6       -0.0000029211
    6    1    9    6       -0.0001050316
    6    1   10    6       -0.0000000555
    6    1   11    6       -0.0000000521
    6    1   12    6        0.0000952355
    6    1   13    6       -0.0000016658
    6    1    7    7        0.0000000123
    6    1    8    7       -0.0000000286
    6    1    9    7       -0.0000000169
    6    1   10    7        0.0000001047
    6    1   11    7       -0.0000000287
    6    1   12    7       -0.0000011094
    6    1   13    7       -0.0000004032
    6    1    8    8       -0.0000000113
    6    1    9    8       -0.0000000164
    6    1   10    8       -0.0000000158
    6    1   11    8        0.0000000353
    6    1   12    8       -0.0000002752
    6    1   13    8       -0.0000000983
    6    1    9    9       -0.0000000479
    6    1   10    9        0.0000000692
    6    1   11    9       -0.0000000464
    6    1   12    9       -0.0000006997
    6    1   13    9       -0.0000002273
    6    1   10   10        0.0000966175
    6    1   11   10       -0.0000509456
    6    1   12   10       -0.0000012738
    6    1   13   10       -0.0000615273
    6    1   11   11       -0.0000965707
    6    1   12   11        0.0000006812
    6    1   13   11        0.0000323597
    6    1   12   12        0.0000010647
    6    1   13   12        0.0000004596
    6    1   13   13        0.0000155960
    7    1    7    1        0.0010943511
    7    1    8    1        0.0008118873
    7    1    9    1       -0.0005493282
    7    1   10    1        0.0000002606
    7    1   11    1        0.0000000056
    7    1   12    1       -0.0011150748
    7    1   13    1        0.0000110470
    7    1    2    2       -0.0010973877
    7    1    3    2       -0.0004976524
    7    1    4    2       -0.0000000424
    7    1    5    2       -0.0000002459
    7    1    6    2        0.0000000080
    7    1    7    2       -0.0000327485
    7    1    8    2        0.0001033665
    7    1    9    2        0.0002614435
    7    1   10    2       -0.0000001295
    7    1   11    2       -0.0000000151
    7    1   12    2       -0.0000330335
    7    1   13    2       -0.0000019811
    7    1    3    3       -0.0004150027
    7    1    4    3        0.0000000310
    7    1    5    3        0.0000000534
    7    1    6    3       -0.0000000073
    7    1    7    3        0.0000335030
    7    1    8    3       -0.0003808210
    7    1    9    3        0.0002505163
    7    1   10    3       -0.0000001317
    7    1   11    3       -0.0000000247
    7    1   12    3       -0.0000011689
    7    1   13    3       -0.0000003677
    7    1    4    4       -0.0006619946
    7    1    5    4        0.0000000062
    7    1    6    4       -0.0000000764
    7    1    7    4       -0.0000000194
    7    1    8    4        0.0000000042
    7    1    9    4       -0.0000000173
    7    1   10    4        0.0000005649
    7    1   11    4       -0.0004550654
    7    1   12    4        0.0000000041
    7    1   13    4       -0.0000000119
    7    1    5    5       -0.0006619841
    7    1    6    5        0.0000000755
    7    1    7    5       -0.0000001163
    7    1    8    5        0.0000000033
    7    1    9    5       -0.0000000303
    7    1   10    5       -0.0004552293
    7    1   11    5       -0.0000005490
    7    1   12    5        0.0000001398
    7    1   13    5        0.0000045458
    7    1    6    6       -0.0003110654
    7    1    7    6        0.0000000219
    7    1    8    6       -0.0000000211
    7    1    9    6       -0.0000000078
    7    1   10    6        0.0000001343
    7    1   11    6       -0.0000000732
    7    1   12    6       -0.0000006217
    7    1   13    6       -0.0000001740
    7    1    7    7       -0.0001742401
    7    1    8    7       -0.0000552965
    7    1    9    7       -0.0000293379
    7    1   10    7       -0.0000000956
    7    1   11    7       -0.0000000071
    7    1   12    7        0.0000500050
    7    1   13    7        0.0000002600
    7    1    8    8        0.0001345284
    7    1    9    8        0.0001865487
    7    1   10    8        0.0000000607
    7    1   11    8        0.0000000075
    7    1   12    8       -0.0000655247
    7    1   13    8       -0.0000009256
    7    1    9    9       -0.0002501666
    7    1   10    9       -0.0000000091
    7    1   11    9       -0.0000000234
    7    1   12    9        0.0000400917
    7    1   13    9       -0.0000021527
    7    1   10   10       -0.0004765438
    7    1   11   10        0.0000000055
    7    1   12   10        0.0000006124
    7    1   13   10        0.0000251909
    7    1   11   11       -0.0004765423
    7    1   12   11        0.0000000161
    7    1   13   11       -0.0000000304
    7    1   12   12       -0.0001881978
    7    1   13   12       -0.0000015707
    7    1   13   13       -0.0002476775
    8    1    8    1        0.0007108305
    8    1    9    1       -0.0002817260
    8    1   10    1       -0.0000002124
    8    1   11    1        0.0000000022
    8    1   12    1       -0.0008145182
    8    1   13    1        0.0000064786
    8    1    2    2        0.0002353832
    8    1    3    2        0.0000976722
    8    1    4    2       -0.0000000056
    8    1    5    2        0.0000005727
    8    1    6    2       -0.0000000241
    8    1    7    2        0.0001830140
    8    1    8    2        0.0000923667
    8    1    9    2       -0.0000426022
    8    1   10    2        0.0000004620
    8    1   11    2       -0.0000000006
    8    1   12    2       -0.0002008330
    8    1   13    2        0.0000019132
    8    1    3    3        0.0000584582
    8    1    4    3        0.0000000068
    8    1    5    3        0.0000000016
    8    1    6    3        0.0000000172
    8    1    7    3        0.0000745238
    8    1    8    3        0.0000505740
    8    1    9    3       -0.0000386475
    8    1   10    3        0.0000002954
    8    1   11    3       -0.0000000094
    8    1   12    3       -0.0000953001
    8    1   13    3        0.0000011784
    8    1    4    4        0.0000958620
    8    1    5    4       -0.0000000132
    8    1    6    4        0.0000000857
    8    1    7    4       -0.0000000075
    8    1    8    4       -0.0000000123
    8    1    9    4       -0.0000000018
    8    1   10    4       -0.0000001349
    8    1   11    4        0.0000964098
    8    1   12    4        0.0000000071
    8    1   13    4        0.0000002296
    8    1    5    5        0.0000958824
    8    1    6    5       -0.0000001638
    8    1    7    5        0.0000002567
    8    1    8    5       -0.0000000096
    8    1    9    5        0.0000000120
    8    1   10    5        0.0000964939
    8    1   11    5        0.0000001015
    8    1   12    5       -0.0000020811
    8    1   13    5       -0.0000958487
    8    1    6    6        0.0000234327
    8    1    7    6       -0.0000000209
    8    1    8    6        0.0000000008
    8    1    9    6       -0.0000000197
    8    1   10    6       -0.0000001992
    8    1   11    6        0.0000000964
    8    1   12    6        0.0000001887
    8    1   13    6        0.0000000325
    8    1    7    7        0.0000831198
    8    1    8    7        0.0000543737
    8    1    9    7       -0.0000246898
    8    1   10    7        0.0000002083
    8    1   11    7       -0.0000000020
    8    1   12    7       -0.0000727163
    8    1   13    7        0.0000001513
    8    1    8    8        0.0000579535
    8    1    9    8       -0.0000052947
    8    1   10    8       -0.0000000105
    8    1   11    8        0.0000000089
    8    1   12    8       -0.0000588067
    8    1   13    8        0.0000001668
    8    1    9    9        0.0000395866
    8    1   10    9       -0.0000000455
    8    1   11    9       -0.0000000049
    8    1   12    9        0.0000332946
    8    1   13    9       -0.0000005400
    8    1   10   10        0.0001162117
    8    1   11   10       -0.0000000115
    8    1   12   10       -0.0000019938
    8    1   13   10       -0.0000888615
    8    1   11   11        0.0001161292
    8    1   12   11        0.0000000056
    8    1   13   11        0.0000000900
    8    1   12   12        0.0000766789
    8    1   13   12        0.0000008029
    8    1   13   13        0.0000681832
    9    1    9    1        0.0005330625
    9    1   10    1       -0.0000004066
    9    1   11    1        0.0000000068
    9    1   12    1        0.0005808169
    9    1   13    1       -0.0000085627
    9    1    2    2        0.0032058298
    9    1    3    2        0.0017185674
    9    1    4    2       -0.0000000462
    9    1    5    2        0.0000005426
    9    1    6    2       -0.0000000119
    9    1    7    2        0.0002602888
    9    1    8    2        0.0002388233
    9    1    9    2       -0.0010330172
    9    1   10    2        0.0000004157
    9    1   11    2       -0.0000000187
    9    1   12    2       -0.0001679961
    9    1   13    2        0.0000064441
    9    1    3    3        0.0011980837
    9    1    4    3        0.0000000268
    9    1    5    3        0.0000000408
    9    1    6    3        0.0000000270
    9    1    7    3        0.0002983890
    9    1    8    3        0.0007219003
    9    1    9    3       -0.0007975893
    9    1   10    3        0.0000002848
    9    1   11    3       -0.0000000210
    9    1   12    3       -0.0001860782
    9    1   13    3        0.0000044734
    9    1    4    4        0.0012223675
    9    1    5    4       -0.0000000136
    9    1    6    4        0.0000000411
    9    1    7    4       -0.0000000189
    9    1    8    4        0.0000000064
    9    1    9    4       -0.0000000181
    9    1   10    4       -0.0000012025
    9    1   11    4        0.0009688165
    9    1   12    4        0.0000000089
    9    1   13    4       -0.0000001471
    9    1    5    5        0.0012223952
    9    1    6    5       -0.0000001535
    9    1    7    5        0.0000002429
    9    1    8    5        0.0000000824
    9    1    9    5        0.0000000400
    9    1   10    5        0.0009689315
    9    1   11    5        0.0000011686
    9    1   12    5        0.0000013869
    9    1   13    5        0.0000772630
    9    1    6    6        0.0003691548
    9    1    7    6       -0.0000000224
    9    1    8    6       -0.0000000056
    9    1    9    6       -0.0000000420
    9    1   10    6       -0.0000001270
    9    1   11    6        0.0000000602
    9    1   12    6       -0.0000004152
    9    1   13    6       -0.0000001654
    9    1    7    7        0.0004307902
    9    1    8    7        0.0001063495
    9    1    9    7       -0.0002823201
    9    1   10    7        0.0000002541
    9    1   11    7       -0.0000000114
    9    1   12    7       -0.0003782848
    9    1   13    7        0.0000058050
    9    1    8    8       -0.0000902670
    9    1    9    8       -0.0003623042
    9    1   10    8       -0.0000001080
    9    1   11    8        0.0000000067
    9    1   12    8        0.0000470527
    9    1   13    8        0.0000009648
    9    1    9    9        0.0006969245
    9    1   10    9       -0.0000001491
    9    1   11    9       -0.0000000202
    9    1   12    9        0.0002309116
    9    1   13    9       -0.0000032224
    9    1   10   10        0.0010354022
    9    1   11   10       -0.0000000120
    9    1   12   10       -0.0000039054
    9    1   13   10       -0.0001843345
    9    1   11   11        0.0010353866
    9    1   12   11        0.0000000205
    9    1   13   11        0.0000001809
    9    1   12   12        0.0005448891
    9    1   13   12       -0.0000024824
    9    1   13   13        0.0004010203
   10    1   10    1        0.0011493345
   10    1   11    1       -0.0000000019
   10    1   12    1       -0.0000147402
   10    1   13    1       -0.0007349049
   10    1    2    2       -0.0000015004
   10    1    3    2        0.0000037596
   10    1    4    2        0.0000026897
   10    1    5    2       -0.0021909498
   10    1    6    2        0.0000027632
   10    1    7    2       -0.0000018760
   10    1    8    2        0.0000014343
   10    1    9    2       -0.0000003408
   10    1   10    2       -0.0017632304
   10    1   11    2        0.0000000083
   10    1   12    2        0.0000099767
   10    1   13    2        0.0004737921
   10    1    3    3       -0.0000103838
   10    1    4    3        0.0000002435
   10    1    5    3       -0.0002010339
   10    1    6    3       -0.0000059205
   10    1    7    3        0.0000046561
   10    1    8    3       -0.0000008364
   10    1    9    3       -0.0000022489
   10    1   10    3       -0.0011070789
   10    1   11    3       -0.0000000009
   10    1   12    3        0.0000017635
   10    1   13    3        0.0000586941
   10    1    4    4       -0.0000031835
   10    1    5    4       -0.0000005395
   10    1    6    4       -0.0003317961
   10    1    7    4        0.0000009643
   10    1    8    4        0.0000000690
   10    1    9    4        0.0000000691
   10    1   10    4        0.0000012636
   10    1   11    4        0.0000058197
   10    1   12    4       -0.0000025278
   10    1   13    4       -0.0000792864
   10    1    5    5       -0.0000010177
   10    1    6    5        0.0006272206
   10    1    7    5       -0.0007654133
   10    1    8    5       -0.0000909162
   10    1    9    5       -0.0000918642
   10    1   10    5        0.0000013624
   10    1   11    5        0.0000010926
   10    1   12    5        0.0006027591
   10    1   13    5       -0.0000474961
   10    1    6    6       -0.0000150489
   10    1    7    6        0.0000023959
   10    1    8    6       -0.0000009719
   10    1    9    6        0.0000032394
   10    1   10    6        0.0006481670
   10    1   11    6       -0.0003417683
   10    1   12    6       -0.0000024410
   10    1   13    6        0.0000597371
   10    1    7    7       -0.0000088860
   10    1    8    7       -0.0000002545
   10    1    9    7       -0.0000018747
   10    1   10    7       -0.0006766519
   10    1   11    7        0.0000000290
   10    1   12    7        0.0000180411
   10    1   13    7        0.0011988715
   10    1    8    8       -0.0000114184
   10    1    9    8        0.0000006524
   10    1   10    8       -0.0000938663
   10    1   11    8       -0.0000000493
   10    1   12    8        0.0000073735
   10    1   13    8        0.0003586900
   10    1    9    9       -0.0000122988
   10    1   10    9        0.0000883031
   10    1   11    9       -0.0000000503
   10    1   12    9        0.0000053261
   10    1   13    9        0.0000536058
   10    1   10   10       -0.0000041169
   10    1   11   10       -0.0000017456
   10    1   12   10        0.0007599610
   10    1   13   10       -0.0000143367
   10    1   11   11       -0.0000107042
   10    1   12   11       -0.0000020415
   10    1   13   11       -0.0000068599
   10    1   12   12       -0.0000261836
   10    1   13   12       -0.0003293889
   10    1   13   13        0.0000326757
   11    1   11    1        0.0011490660
   11    1   12    1        0.0000000138
   11    1   13    1        0.0000006593
   11    1    2    2       -0.0000009412
   11    1    3    2        0.0000022255
   11    1    4    2       -0.0021906843
   11    1    5    2       -0.0000026763
   11    1    6    2       -0.0000044774
   11    1    7    2       -0.0000010646
   11    1    8    2        0.0000007127
   11    1    9    2       -0.0000003451
   11    1   10    2        0.0000000080
   11    1   11    2       -0.0017626860
   11    1   12    2        0.0000003411
   11    1   13    2       -0.0000004391
   11    1    3    3       -0.0000062861
   11    1    4    3       -0.0002010350
   11    1    5    3       -0.0000002486
   11    1    6    3        0.0000097208
   11    1    7    3        0.0000027840
   11    1    8    3       -0.0000005439
   11    1    9    3       -0.0000013784
   11    1   10    3       -0.0000000043
   11    1   11    3       -0.0011069813
   11    1   12    3        0.0000004121
   11    1   13    3       -0.0000000331
   11    1    4    4        0.0000005825
   11    1    5    4        0.0000009868
   11    1    6    4       -0.0006271418
   11    1    7    4       -0.0007653465
   11    1    8    4       -0.0000910754
   11    1    9    4       -0.0000919818
   11    1   10    4       -0.0000015736
   11    1   11    4       -0.0000010444
   11    1   12    4        0.0005972293
   11    1   13    4        0.0000325419
   11    1    5    5       -0.0000031816
   11    1    6    5       -0.0003317436
   11    1    7    5       -0.0000009118
   11    1    8    5       -0.0000001529
   11    1    9    5       -0.0000001555
   11    1   10    5        0.0000056722
   11    1   11    5       -0.0000017713
   11    1   12    5       -0.0000010018
   11    1   13    5       -0.0000764856
   11    1    6    6       -0.0000090764
   11    1    7    6       -0.0000039287
   11    1    8    6        0.0000016245
   11    1    9    6       -0.0000052303
   11    1   10    6       -0.0003418039
   11    1   11    6       -0.0006479050
   11    1   12    6        0.0000052235
   11    1   13    6       -0.0000315509
   11    1    7    7       -0.0000051709
   11    1    8    7       -0.0000004570
   11    1    9    7       -0.0000014596
   11    1   10    7        0.0000000384
   11    1   11    7       -0.0006758293
   11    1   12    7       -0.0000036232
   11    1   13    7       -0.0000010314
   11    1    8    8       -0.0000070860
   11    1    9    8        0.0000002811
   11    1   10    8       -0.0000000486
   11    1   11    8       -0.0000943261
   11    1   12    8        0.0000002127
   11    1   13    8       -0.0000003148
   11    1    9    9       -0.0000074579
   11    1   10    9       -0.0000000477
   11    1   11    9        0.0000880858
   11    1   12    9        0.0000025927
   11    1   13    9       -0.0000000800
   11    1   10   10       -0.0000101028
   11    1   11   10        0.0000035623
   11    1   12   10       -0.0000021271
   11    1   13   10       -0.0000111919
   11    1   11   11        0.0000019746
   11    1   12   11        0.0007520250
   11    1   13   11       -0.0000083580
   11    1   12   12       -0.0000078670
   11    1   13   12        0.0000025573
   11    1   13   13        0.0000585001
   12    1   12    1        0.0011410578
   12    1   13    1       -0.0000016858
   12    1    2    2        0.0012088600
   12    1    3    2        0.0005704095
   12    1    4    2       -0.0000000385
   12    1    5    2        0.0000243033
   12    1    6    2       -0.0000010320
   12    1    7    2        0.0000706585
   12    1    8    2       -0.0000823316
   12    1    9    2       -0.0003151798
   12    1   10    2        0.0000181214
   12    1   11    2       -0.0000000122
   12    1   12    2       -0.0000184224
   12    1   13    2       -0.0000041317
   12    1    3    3        0.0004622222
   12    1    4    3       -0.0000000113
   12    1    5    3       -0.0000005243
   12    1    6    3        0.0000006844
   12    1    7    3        0.0000042440
   12    1    8    3        0.0003889678
   12    1    9    3       -0.0002910258
   12    1   10    3        0.0000127952
   12    1   11    3       -0.0000000073
   12    1   12    3       -0.0000182186
   12    1   13    3        0.0000017204
   12    1    4    4        0.0007099742
   12    1    5    4       -0.0000005572
   12    1    6    4        0.0000038661
   12    1    7    4       -0.0000000225
   12    1    8    4       -0.0000000061
   12    1    9    4        0.0000000043
   12    1   10    4       -0.0000013188
   12    1   11    4        0.0005126282
   12    1   12    4        0.0000000395
   12    1   13    4        0.0000012021
   12    1    5    5        0.0007117062
   12    1    6    5       -0.0000072856
   12    1    7    5        0.0000109338
   12    1    8    5        0.0000023394
   12    1    9    5        0.0000027003
   12    1   10    5        0.0005152465
   12    1   11    5       -0.0000000582
   12    1   12    5       -0.0000080412
   12    1   13    5       -0.0000186641
   12    1    6    6        0.0003211410
   12    1    7    6       -0.0000008361
   12    1    8    6       -0.0000000991
   12    1    9    6       -0.0000009556
   12    1   10    6       -0.0000081518
   12    1   11    6        0.0000042738
   12    1   12    6        0.0000014804
   12    1   13    6       -0.0000004883
   12    1    7    7        0.0001796837
   12    1    8    7        0.0000593799
   12    1    9    7        0.0000092074
   12    1   10    7        0.0000080403
   12    1   11    7       -0.0000000033
   12    1   12    7       -0.0000706723
   12    1   13    7       -0.0000164656
   12    1    8    8       -0.0001254675
   12    1    9    8       -0.0001958371
   12    1   10    8        0.0000000475
   12    1   11    8       -0.0000000032
   12    1   12    8        0.0000549668
   12    1   13    8       -0.0000043921
   12    1    9    9        0.0002838432
   12    1   10    9        0.0000004304
   12    1   11    9        0.0000000106
   12    1   12    9       -0.0000230452
   12    1   13    9       -0.0000005979
   12    1   10   10        0.0005443734
   12    1   11   10       -0.0000004717
   12    1   12   10       -0.0000107815
   12    1   13   10       -0.0000622689
   12    1   11   11        0.0005427365
   12    1   12   11        0.0000000415
   12    1   13   11        0.0000004620
   12    1   12   12        0.0001934095
   12    1   13   12        0.0000050078
   12    1   13   13        0.0002520269
   13    1   13    1        0.0005017625
   13    1    2    2       -0.0000385581
   13    1    3    2       -0.0000227242
   13    1    4    2       -0.0000026044
   13    1    5    2        0.0012231364
   13    1    6    2       -0.0000021713
   13    1    7    2       -0.0000028107
   13    1    8    2       -0.0000021524
   13    1    9    2        0.0000118181
   13    1   10    2        0.0009138367
   13    1   11    2       -0.0000008049
   13    1   12    2       -0.0000043267
   13    1   13    2       -0.0003595811
   13    1    3    3       -0.0000071595
   13    1    4    3        0.0000000844
   13    1    5    3       -0.0000249115
   13    1    6    3        0.0000043458
   13    1    7    3       -0.0000062673
   13    1    8    3       -0.0000104622
   13    1    9    3        0.0000114249
   13    1   10    3        0.0006441401
   13    1   11    3       -0.0000006230
   13    1   12    3        0.0000025120
   13    1   13    3        0.0000495837
   13    1    4    4       -0.0000059335
   13    1    5    4       -0.0000188465
   13    1    6    4        0.0001934810
   13    1    7    4       -0.0000011997
   13    1    8    4       -0.0000002164
   13    1    9    4       -0.0000002511
   13    1   10    4       -0.0000079169
   13    1   11    4       -0.0000147550
   13    1   12    4        0.0000021616
   13    1   13    4        0.0000620349
   13    1    5    5       -0.0000272599
   13    1    6    5       -0.0003665028
   13    1    7    5        0.0005499410
   13    1    8    5        0.0001188236
   13    1    9    5        0.0001362877
   13    1   10    5       -0.0000181948
   13    1   11    5       -0.0000078274
   13    1   12    5       -0.0003860183
   13    1   13    5        0.0000356696
   13    1    6    6        0.0000035020
   13    1    7    6       -0.0000020337
   13    1    8    6        0.0000002471
   13    1    9    6       -0.0000024739
   13    1   10    6       -0.0004076332
   13    1   11    6        0.0002144267
   13    1   12    6        0.0000020437
   13    1   13    6       -0.0000326932
   13    1    7    7        0.0000008694
   13    1    8    7       -0.0000016866
   13    1    9    7        0.0000032469
   13    1   10    7        0.0004029546
   13    1   11    7       -0.0000003562
   13    1   12    7       -0.0000084544
   13    1   13    7       -0.0008414876
   13    1    8    8        0.0000102958
   13    1    9    8        0.0000044937
   13    1   10    8        0.0000061869
   13    1   11    8        0.0000000303
   13    1   12    8       -0.0000063612
   13    1   13    8       -0.0002761037
   13    1    9    9        0.0000001807
   13    1   10    9        0.0000231214
   13    1   11    9       -0.0000000061
   13    1   12    9       -0.0000069477
   13    1   13    9       -0.0001209168
   13    1   10   10       -0.0000167451
   13    1   11   10       -0.0000083706
   13    1   12   10       -0.0004793631
   13    1   13   10        0.0000124925
   13    1   11   11       -0.0000022860
   13    1   12   11        0.0000019213
   13    1   13   11        0.0000072782
   13    1   12   12        0.0000099637
   13    1   13   12        0.0001725055
   13    1   13   13       -0.0000388770
    2    2    2    2        0.1425866813
    2    2    3    2        0.0369706620
    2    2    4    2        0.0000108731
    2    2    5    2        0.0000178310
    2    2    6    2        0.0000000842
    2    2    7    2        0.0026411057
    2    2    8    2        0.0060426671
    2    2    9    2       -0.0146418433
    2    2   10    2        0.0000043575
    2    2   11    2        0.0000029807
    2    2   12    2        0.0009953853
    2    2   13    2        0.0000262590
    2    2    3    3        0.0876910132
    2    2    4    3       -0.0000081096
    2    2    5    3       -0.0000134120
    2    2    6    3        0.0000002800
    2    2    7    3        0.0046140243
    2    2    8    3        0.0123082962
    2    2    9    3       -0.0227551880
    2    2   10    3        0.0000103561
    2    2   11    3        0.0000067033
    2    2   12    3       -0.0014137397
    2    2   13    3        0.0000690152
    2    2    4    4        0.1007111802
    2    2    5    4        0.0000000053
    2    2    6    4        0.0000119354
    2    2    7    4        0.0000018236
    2    2    8    4       -0.0000038198
    2    2    9    4        0.0000030207
    2    2   10    4       -0.0000322667
    2    2   11    4        0.0263528023
    2    2   12    4       -0.0000013353
    2    2   13    4       -0.0000027721
    2    2    5    5        0.1007110639
    2    2    6    5       -0.0000068144
    2    2    7    5        0.0000033965
    2    2    8    5       -0.0000060012
    2    2    9    5        0.0000049433
    2    2   10    5        0.0263512656
    2    2   11    5        0.0000322229
    2    2   12    5        0.0000314815
    2    2   13    5        0.0016615489
    2    2    6    6        0.0767383510
    2    2    7    6       -0.0000003305
    2    2    8    6        0.0000008216
    2    2    9    6        0.0000004933
    2    2   10    6       -0.0000085735
    2    2   11    6        0.0000099957
    2    2   12    6        0.0000309729
    2    2   13    6        0.0000056347
    2    2    7    7        0.0810250882
    2    2    8    7        0.0014067547
    2    2    9    7       -0.0063844524
    2    2   10    7        0.0000042617
    2    2   11    7        0.0000015806
    2    2   12    7       -0.0184919161
    2    2   13    7        0.0003005604
    2    2    8    8        0.0665830654
    2    2    9    8       -0.0041959704
    2    2   10    8       -0.0000025678
    2    2   11    8       -0.0000003934
    2    2   12    8        0.0024943951
    2    2   13    8       -0.0000879426
    2    2    9    9        0.0763332895
    2    2   10    9        0.0000080388
    2    2   11    9        0.0000060757
    2    2   12    9        0.0047992886
    2    2   13    9       -0.0001269438
    2    2   10   10        0.0874213632
    2    2   11   10       -0.0000000173
    2    2   12   10       -0.0000657332
    2    2   13   10       -0.0030068766
    2    2   11   11        0.0874167263
    2    2   12   11       -0.0000029130
    2    2   13   11        0.0000024180
    2    2   12   12        0.0815904728
    2    2   13   12       -0.0000041217
    2    2   13   13        0.0815052425
    3    2    3    2        0.0192722760
    3    2    4    2       -0.0000257455
    3    2    5    2       -0.0000427228
    3    2    6    2        0.0000000942
    3    2    7    2        0.0026988322
    3    2    8    2        0.0048470480
    3    2    9    2       -0.0098206299
    3    2   10    2       -0.0000097457
    3    2   11    2       -0.0000057383
    3    2   12    2       -0.0006393880
    3    2   13    2        0.0000303214
    3    2    3    3        0.0132044944
    3    2    4    3        0.0000207031
    3    2    5    3        0.0000343768
    3    2    6    3        0.0000001554
    3    2    7    3        0.0025174110
    3    2    8    3        0.0033121936
    3    2    9    3       -0.0097623791
    3    2   10    3       -0.0000310974
    3    2   11    3       -0.0000185578
    3    2   12    3       -0.0012542724
    3    2   13    3        0.0000437179
    3    2    4    4        0.0143430032
    3    2    5    4       -0.0000000770
    3    2    6    4       -0.0000266350
    3    2    7    4       -0.0000046954
    3    2    8    4        0.0000082347
    3    2    9    4       -0.0000058649
    3    2   10    4       -0.0000137322
    3    2   11    4        0.0112604392
    3    2   12    4        0.0000022958
    3    2   13    4       -0.0000005656
    3    2    5    5        0.0143426538
    3    2    6    5        0.0000161442
    3    2    7    5       -0.0000078349
    3    2    8    5        0.0000131101
    3    2    9    5       -0.0000104058
    3    2   10    5        0.0112597075
    3    2   11    5        0.0000138254
    3    2   12    5       -0.0000100885
    3    2   13    5       -0.0007164514
    3    2    6    6        0.0041237803
    3    2    7    6        0.0000000214
    3    2    8    6        0.0000003862
    3    2    9    6        0.0000002529
    3    2   10    6        0.0000131769
    3    2   11    6       -0.0000236427
    3    2   12    6        0.0000136302
    3    2   13    6        0.0000137104
    3    2    7    7        0.0071583378
    3    2    8    7        0.0007298996
    3    2    9    7       -0.0029275060
    3    2   10    7       -0.0000049036
    3    2   11    7       -0.0000034025
    3    2   12    7       -0.0067927134
    3    2   13    7        0.0001727291
    3    2    8    8        0.0027288652
    3    2    9    8       -0.0023753111
    3    2   10    8        0.0000013181
    3    2   11    8        0.0000013463
    3    2   12    8        0.0002415615
    3    2   13    8       -0.0000008651
    3    2    9    9        0.0082717046
    3    2   10    9       -0.0000273492
    3    2   11    9       -0.0000159063
    3    2   12    9        0.0025716701
    3    2   13    9       -0.0000687240
    3    2   10   10        0.0116598282
    3    2   11   10       -0.0000000435
    3    2   12   10       -0.0000225569
    3    2   13   10       -0.0017247366
    3    2   11   11        0.0116573684
    3    2   12   11        0.0000071207
    3    2   13   11        0.0000025011
    3    2   12   12        0.0081590891
    3    2   13   12       -0.0000118980
    3    2   13   13        0.0065891683
    4    2    4    2        0.0166212177
    4    2    5    2       -0.0000000140
    4    2    6    2        0.0000505586
    4    2    7    2        0.0000088081
    4    2    8    2       -0.0000128829
    4    2    9    2        0.0000012105
    4    2   10    2       -0.0000113291
    4    2   11    2        0.0091997902
    4    2   12    2       -0.0000048351
    4    2   13    2       -0.0000024978
    4    2    3    3        0.0000715901
    4    2    4    3       -0.0028413935
    4    2    5    3       -0.0000000461
    4    2    6    3       -0.0001077350
    4    2    7    3       -0.0000234176
    4    2    8    3        0.0000221488
    4    2    9    3        0.0000225787
    4    2   10    3       -0.0000092776
    4    2   11    3        0.0076725427
    4    2   12    3       -0.0000028433
    4    2   13    3        0.0000006844
    4    2    4    4       -0.0000100900
    4    2    5    4       -0.0000055835
    4    2    6    4        0.0051332630
    4    2    7    4        0.0012486598
    4    2    8    4       -0.0031258349
    4    2    9    4        0.0028201223
    4    2   10    4        0.0000188673
    4    2   11    4        0.0000135836
    4    2   12    4       -0.0011577680
    4    2   13    4       -0.0003923508
    4    2    5    5        0.0000398825
    4    2    6    5        0.0027237023
    4    2    7    5       -0.0000001302
    4    2    8    5        0.0000001161
    4    2    9    5        0.0000001091
    4    2   10    5       -0.0000658841
    4    2   11    5        0.0000158253
    4    2   12    5        0.0000059632
    4    2   13    5        0.0007639731
    4    2    6    6        0.0000998692
    4    2    7    6        0.0000262196
    4    2    8    6       -0.0000413192
    4    2    9    6        0.0000488388
    4    2   10    6        0.0030308616
    4    2   11    6        0.0057293693
    4    2   12    6       -0.0000363912
    4    2   13    6        0.0015792116
    4    2    7    7        0.0000519199
    4    2    8    7        0.0000011653
    4    2    9    7        0.0000124797
    4    2   10    7       -0.0000033815
    4    2   11    7        0.0024860643
    4    2   12    7        0.0000428625
    4    2   13    7        0.0000232054
    4    2    8    8        0.0000745392
    4    2    9    8        0.0000029671
    4    2   10    8       -0.0000004204
    4    2   11    8        0.0005368563
    4    2   12    8        0.0000004082
    4    2   13    8        0.0000045483
    4    2    9    9        0.0000854049
    4    2   10    9       -0.0000025948
    4    2   11    9        0.0023381667
    4    2   12    9       -0.0000266697
    4    2   13    9       -0.0000002248
    4    2   10   10        0.0001196953
    4    2   11   10       -0.0000357392
    4    2   12   10        0.0000126909
    4    2   13   10       -0.0000575792
    4    2   11   11       -0.0000244063
    4    2   12   11       -0.0027456300
    4    2   13   11        0.0000982057
    4    2   12   12        0.0000867816
    4    2   13   12       -0.0000159361
    4    2   13   13       -0.0000306734
    5    2    5    2        0.0166214323
    5    2    6    2       -0.0000302535
    5    2    7    2        0.0000154145
    5    2    8    2       -0.0000207979
    5    2    9    2        0.0000022969
    5    2   10    2        0.0091997425
    5    2   11    2        0.0000111873
    5    2   12    2        0.0000200206
    5    2   13    2        0.0014119936
    5    2    3    3        0.0001190147
    5    2    4    3       -0.0000000482
    5    2    5    3       -0.0028415594
    5    2    6    3        0.0000647391
    5    2    7    3       -0.0000393153
    5    2    8    3        0.0000362468
    5    2    9    3        0.0000370114
    5    2   10    3        0.0076711609
    5    2   11    3        0.0000094978
    5    2   12    3       -0.0000156581
    5    2   13    3       -0.0005551870
    5    2    4    4        0.0000325683
    5    2    5    4        0.0000168771
    5    2    6    4        0.0027234950
    5    2    7    4       -0.0000001403
    5    2    8    4        0.0000001245
    5    2    9    4        0.0000001153
    5    2   10    4       -0.0000182079
    5    2   11    4       -0.0000633552
    5    2   12    4        0.0000064295
    5    2   13    4        0.0007874310
    5    2    5    5        0.0000167007
    5    2    6    5       -0.0051337453
    5    2    7    5        0.0012472139
    5    2    8    5       -0.0031261770
    5    2    9    5        0.0028198676
    5    2   10    5       -0.0000220144
    5    2   11    5       -0.0000155644
    5    2   12    5       -0.0011685888
    5    2   13    5        0.0004257104
    5    2    6    6        0.0001662930
    5    2    7    6       -0.0000150637
    5    2    8    6        0.0000240960
    5    2    9    6       -0.0000301066
    5    2   10    6       -0.0057295885
    5    2   11    6        0.0030307838
    5    2   12    6       -0.0000186928
    5    2   13    6       -0.0029899820
    5    2    7    7        0.0000892993
    5    2    8    7       -0.0000027676
    5    2    9    7        0.0000156366
    5    2   10    7        0.0024936743
    5    2   11    7        0.0000028150
    5    2   12    7       -0.0001549149
    5    2   13    7       -0.0112584109
    5    2    8    8        0.0001221056
    5    2    9    8        0.0000040084
    5    2   10    8        0.0005323820
    5    2   11    8        0.0000008946
    5    2   12    8       -0.0000433758
    5    2   13    8       -0.0022118666
    5    2    9    9        0.0001421956
    5    2   10    9        0.0023359372
    5    2   11    9        0.0000031459
    5    2   12    9       -0.0000365941
    5    2   13    9        0.0004083493
    5    2   10   10        0.0000437928
    5    2   11   10        0.0000269955
    5    2   12   10       -0.0027816518
    5    2   13   10        0.0000019336
    5    2   11   11        0.0001207151
    5    2   12   11        0.0000051714
    5    2   13   11       -0.0000957051
    5    2   12   12        0.0001962510
    5    2   13   12        0.0013124463
    5    2   13   13       -0.0000095390
    6    2    6    2        0.0036522937
    6    2    7    2       -0.0000001737
    6    2    8    2        0.0000000751
    6    2    9    2       -0.0000000683
    6    2   10    2       -0.0000096049
    6    2   11    2        0.0000155602
    6    2   12    2        0.0000027755
    6    2   13    2       -0.0000024733
    6    2    3    3        0.0000000739
    6    2    4    3       -0.0000359778
    6    2    5    3        0.0000216071
    6    2    6    3       -0.0034105130
    6    2    7    3        0.0000001734
    6    2    8    3        0.0000001062
    6    2    9    3        0.0000000582
    6    2   10    3       -0.0000168756
    6    2   11    3        0.0000277237
    6    2   12    3        0.0000028250
    6    2   13    3        0.0000019250
    6    2    4    4        0.0018636498
    6    2    5    4        0.0009888587
    6    2    6    4        0.0000218609
    6    2    7    4        0.0000073702
    6    2    8    4       -0.0000158553
    6    2    9    4        0.0000165105
    6    2   10    4        0.0014767476
    6    2   11    4        0.0027916256
    6    2   12    4        0.0000050491
    6    2   13    4        0.0006546394
    6    2    5    5       -0.0018639991
    6    2    6    5        0.0000363689
    6    2    7    5       -0.0000040020
    6    2    8    5        0.0000092341
    6    2    9    5       -0.0000101551
    6    2   10    5       -0.0027915168
    6    2   11    5        0.0014766681
    6    2   12    5       -0.0000199888
    6    2   13    5       -0.0012448740
    6    2    6    6        0.0000000026
    6    2    7    6        0.0002230872
    6    2    8    6       -0.0019175300
    6    2    9    6        0.0033277260
    6    2   10    6        0.0000279956
    6    2   11    6        0.0000169119
    6    2   12    6       -0.0029000080
    6    2   13    6        0.0000902307
    6    2    7    7       -0.0000005360
    6    2    8    7        0.0000008001
    6    2    9    7        0.0000005644
    6    2   10    7       -0.0000080563
    6    2   11    7        0.0000087750
    6    2   12    7        0.0000314255
    6    2   13    7        0.0000428617
    6    2    8    8        0.0000002545
    6    2    9    8        0.0000003959
    6    2   10    8        0.0000020188
    6    2   11    8       -0.0000039200
    6    2   12    8        0.0000054026
    6    2   13    8        0.0000098248
    6    2    9    9        0.0000005911
    6    2   10    9       -0.0000167168
    6    2   11    9        0.0000262315
    6    2   12    9        0.0000116987
    6    2   13    9        0.0000050346
    6    2   10   10       -0.0002654463
    6    2   11   10        0.0001395717
    6    2   12   10        0.0000159963
    6    2   13   10        0.0003920885
    6    2   11   11        0.0002638576
    6    2   12   11       -0.0000172923
    6    2   13   11       -0.0002042422
    6    2   12   12       -0.0000031243
    6    2   13   12       -0.0000085849
    6    2   13   13       -0.0007115020
    7    2    7    2        0.0065708227
    7    2    8    2        0.0011267282
    7    2    9    2       -0.0028849296
    7    2   10    2        0.0000049391
    7    2   11    2        0.0000026561
    7    2   12    2       -0.0050441112
    7    2   13    2        0.0000868190
    7    2    3    3        0.0026362841
    7    2    4    3       -0.0000068638
    7    2    5    3       -0.0000117899
    7    2    6    3        0.0000001925
    7    2    7    3       -0.0019274303
    7    2    8    3       -0.0011480932
    7    2    9    3       -0.0022123943
    7    2   10    3        0.0000108023
    7    2   11    3        0.0000062225
    7    2   12    3       -0.0024234050
    7    2   13    3        0.0000582402
    7    2    4    4        0.0012917901
    7    2    5    4       -0.0000000257
    7    2    6    4        0.0000080184
    7    2    7    4        0.0000065460
    7    2    8    4       -0.0000012520
    7    2    9    4        0.0000031031
    7    2   10    4       -0.0000030161
    7    2   11    4        0.0023306491
    7    2   12    4        0.0000005421
    7    2   13    4        0.0000148610
    7    2    5    5        0.0012903681
    7    2    6    5       -0.0000043335
    7    2    7    5        0.0000123079
    7    2    8    5       -0.0000050340
    7    2    9    5        0.0000020981
    7    2   10    5        0.0023346448
    7    2   11    5        0.0000027190
    7    2   12    5       -0.0001336729
    7    2   13    5       -0.0067322969
    7    2    6    6        0.0006095896
[...]
   10    7   10   10        0.0000035014
   10    7   11   10       -0.0000014072
   10    7   12   10       -0.0000888991
   10    7   13   10       -0.0000227339
   10    7   11   11        0.0000230933
   10    7   12   11       -0.0000000203
   10    7   13   11       -0.0000385516
   10    7   12   12        0.0000375638
   10    7   13   12        0.0009279949
   10    7   13   13        0.0000142617
   11    7   11    7        0.0022477766
   11    7   12    7       -0.0000027994
   11    7   13    7        0.0000003781
   11    7    8    8        0.0000080991
   11    7    9    8        0.0000010685
   11    7   10    8        0.0000000198
   11    7   11    8        0.0002267215
   11    7   12    8       -0.0000003797
   11    7   13    8        0.0000001611
   11    7    9    9        0.0000144798
   11    7   10    9       -0.0000001535
   11    7   11    9        0.0007710362
   11    7   12    9        0.0000003529
   11    7   13    9       -0.0000001369
   11    7   10   10        0.0000169895
   11    7   11   10       -0.0000088377
   11    7   12   10        0.0000000375
   11    7   13   10       -0.0000342205
   11    7   11   11       -0.0000019059
   11    7   12   11       -0.0000867696
   11    7   13   11        0.0000107657
   11    7   12   12       -0.0000000345
   11    7   13   12       -0.0000050081
   11    7   13   13        0.0000677371
   12    7   12    7        0.0104427930
   12    7   13    7       -0.0000336924
   12    7    8    8       -0.0016190210
   12    7    9    8       -0.0000689260
   12    7   10    8        0.0000083363
   12    7   11    8       -0.0000052697
   12    7   12    8       -0.0017649800
   12    7   13    8        0.0000859824
   12    7    9    9       -0.0050686711
   12    7   10    9       -0.0000228508
   12    7   11    9        0.0000280761
   12    7   12    9       -0.0035524582
   12    7   13    9        0.0000827585
   12    7   10   10       -0.0061800386
   12    7   11   10       -0.0000031617
   12    7   12   10        0.0000507065
   12    7   13   10        0.0016505258
   12    7   11   11       -0.0061896909
   12    7   12   11       -0.0000184541
   12    7   13   11       -0.0000030716
   12    7   12   12       -0.0073693267
   12    7   13   12        0.0000096772
   12    7   13   13       -0.0067512729
   13    7   13    7        0.0137140054
   13    7    8    8       -0.0001307715
   13    7    9    8        0.0000064827
   13    7   10    8        0.0008084981
   13    7   11    8       -0.0000010046
   13    7   12    8        0.0000959304
   13    7   13    8        0.0025908779
   13    7    9    9       -0.0000899285
   13    7   10    9       -0.0034916377
   13    7   11    9        0.0000022300
   13    7   12    9        0.0001398633
   13    7   13    9        0.0002166543
   13    7   10   10        0.0000384928
   13    7   11   10       -0.0000458646
   13    7   12   10        0.0023964436
   13    7   13   10        0.0000721454
   13    7   11   11       -0.0000498696
   13    7   12   11       -0.0000092704
   13    7   13   11        0.0002650077
   13    7   12   12       -0.0000251005
   13    7   13   12        0.0007118611
   13    7   13   13        0.0001269926
    8    8    8    8        0.0650629985
    8    8    9    8        0.0001421263
    8    8   10    8       -0.0000203329
    8    8   11    8       -0.0000129116
    8    8   12    8       -0.0008069966
    8    8   13    8       -0.0000370863
    8    8    9    9        0.0600393287
    8    8   10    9        0.0000852982
    8    8   11    9        0.0000518719
    8    8   12    9       -0.0011225665
    8    8   13    9       -0.0000165589
    8    8   10   10        0.0632256850
    8    8   11   10        0.0000001956
    8    8   12   10       -0.0000238178
    8    8   13   10        0.0006967313
    8    8   11   11        0.0632225510
    8    8   12   11       -0.0000227840
    8    8   13   11       -0.0000038163
    8    8   12   12        0.0609864010
    8    8   13   12        0.0000094328
    8    8   13   13        0.0632210867
    9    8    9    8        0.0032015824
    9    8   10    8        0.0000342628
    9    8   11    8        0.0000205020
    9    8   12    8       -0.0007172127
    9    8   13    8        0.0000183466
    9    8    9    9       -0.0006876719
    9    8   10    9       -0.0000006371
    9    8   11    9        0.0000001090
    9    8   12    9        0.0001863657
    9    8   13    9       -0.0000028158
    9    8   10   10       -0.0012935128
    9    8   11   10       -0.0000000113
    9    8   12   10       -0.0000067343
    9    8   13   10       -0.0004161717
    9    8   11   11       -0.0012927105
    9    8   12   11        0.0000006107
    9    8   13   11        0.0000001721
    9    8   12   12       -0.0002014010
    9    8   13   12       -0.0000028239
    9    8   13   13       -0.0001907846
   10    8   10    8        0.0038534195
   10    8   11    8        0.0000002005
   10    8   12    8        0.0000132088
   10    8   13    8        0.0010383268
   10    8    9    9       -0.0000179235
   10    8   10    9       -0.0006223293
   10    8   11    9       -0.0000000061
   10    8   12    9        0.0000004200
   10    8   13    9       -0.0001701677
   10    8   10   10       -0.0000071817
   10    8   11   10       -0.0000036642
   10    8   12   10        0.0000341599
   10    8   13   10        0.0000206601
   10    8   11   11       -0.0000163352
   10    8   12   11       -0.0000024133
   10    8   13   11        0.0000269747
   10    8   12   12       -0.0000064887
   10    8   13   12        0.0002877211
   10    8   13   13        0.0000586375
   11    8   11    8        0.0038533503
   11    8   12    8       -0.0000046697
   11    8   13    8       -0.0000023360
   11    8    9    9       -0.0000103788
   11    8   10    9       -0.0000000015
   11    8   11    9       -0.0006204862
   11    8   12    9        0.0000023671
   11    8   13    9        0.0000001330
   11    8   10   10       -0.0000156345
   11    8   11   10        0.0000044957
   11    8   12   10       -0.0000025101
   11    8   13   10        0.0000218628
   11    8   11   11        0.0000033466
   11    8   12   11        0.0000241699
   11    8   13   11       -0.0000173985
   11    8   12   12       -0.0000108610
   11    8   13   12        0.0000018900
   11    8   13   13        0.0001170763
   12    8   12    8        0.0022212804
   12    8   13    8       -0.0000148071
   12    8    9    9        0.0005596383
   12    8   10    9       -0.0000238889
   12    8   11    9       -0.0000013704
   12    8   12    9        0.0007234336
   12    8   13    9        0.0000009450
   12    8   10   10        0.0004252481
   12    8   11   10       -0.0000012976
   12    8   12   10        0.0000157319
   12    8   13   10        0.0000963491
   12    8   11   11        0.0004215122
   12    8   12   11        0.0000003493
   12    8   13   11        0.0000005096
   12    8   12   12        0.0019731563
   12    8   13   12       -0.0000052080
   12    8   13   13        0.0014393660
   13    8   13    8        0.0019806338
   13    8    9    9       -0.0000674360
   13    8   10    9       -0.0010535678
   13    8   11    9        0.0000007057
   13    8   12    9        0.0000027686
   13    8   13    9        0.0003349307
   13    8   10   10       -0.0000463011
   13    8   11   10       -0.0000232914
   13    8   12   10        0.0006426883
   13    8   13   10        0.0000495939
   13    8   11   11       -0.0000559298
   13    8   12   11       -0.0000017252
   13    8   13   11        0.0001016669
   13    8   12   12       -0.0000815810
   13    8   13   12        0.0005087962
   13    8   13   13       -0.0000720055
    9    9    9    9        0.0635485292
    9    9   10    9        0.0001242438
    9    9   11    9        0.0000757127
    9    9   12    9        0.0009452526
    9    9   13    9       -0.0000443699
    9    9   10   10        0.0644900185
    9    9   11   10        0.0000006756
    9    9   12   10       -0.0000520813
    9    9   13   10       -0.0009919935
    9    9   11   11        0.0644877796
    9    9   12   11       -0.0000193342
    9    9   13   11       -0.0000033547
    9    9   12   12        0.0614375775
    9    9   13   12       -0.0000198896
    9    9   13   13        0.0627003439
   10    9   10    9        0.0039609755
   10    9   11    9        0.0000004835
   10    9   12    9       -0.0000344098
   10    9   13    9       -0.0004770442
   10    9   10   10        0.0000397501
   10    9   11   10        0.0000441000
   10    9   12   10       -0.0000939035
   10    9   13   10       -0.0000781188
   10    9   11   11        0.0000675066
   10    9   12   11       -0.0000004142
   10    9   13   11       -0.0001604121
   10    9   12   12        0.0000523772
   10    9   13   12       -0.0009624065
   10    9   13   13        0.0000705519
   11    9   11    9        0.0039626468
   11    9   12    9       -0.0000141928
   11    9   13    9        0.0000002018
   11    9   10   10        0.0000901113
   11    9   11   10       -0.0000083870
   11    9   12   10        0.0000000434
   11    9   13   10       -0.0001364331
   11    9   11   11       -0.0000243667
   11    9   12   11       -0.0000920416
   11    9   13   11        0.0000722157
   11    9   12   12        0.0000548529
   11    9   13   12       -0.0000042780
   11    9   13   13        0.0000386651
   12    9   12    9        0.0030048601
   12    9   13    9       -0.0000250388
   12    9   10   10        0.0008565082
   12    9   11   10       -0.0000009151
   12    9   12   10        0.0000097675
   12    9   13   10       -0.0009185264
   12    9   11   11        0.0008548801
   12    9   12   11        0.0000129029
   12    9   13   11       -0.0000026986
   12    9   12   12        0.0017347574
   12    9   13   12        0.0000061884
   12    9   13   13        0.0009783859
   13    9   13    9        0.0017075004
   13    9   10   10       -0.0000493672
   13    9   11   10       -0.0000277795
   13    9   12   10        0.0002810171
   13    9   13   10        0.0000238750
   13    9   11   11       -0.0000313338
   13    9   12   11       -0.0000029183
   13    9   13   11        0.0000083604
   13    9   12   12       -0.0000310622
   13    9   13   12        0.0009040094
   13    9   13   13        0.0000608111
   10   10   10   10        0.0740038068
   10   10   11   10       -0.0002243851
   10   10   12   10       -0.0000496572
   10   10   13   10       -0.0018676240
   10   10   11   11        0.0684989490
   10   10   12   11       -0.0000337569
   10   10   13   11       -0.0003365082
   10   10   12   12        0.0654453781
   10   10   13   12        0.0000578185
   10   10   13   13        0.0689943117
   11   10   11   10        0.0024437310
   11   10   12   10       -0.0000125194
   11   10   13   10       -0.0003381062
   11   10   11   11        0.0002243118
   11   10   12   11       -0.0000043014
   11   10   13   11       -0.0006586477
   11   10   12   12       -0.0000093218
   11   10   13   12       -0.0000185764
   11   10   13   13        0.0007743029
   12   10   12   10        0.0022262329
   12   10   13   10        0.0000238054
   12   10   11   11       -0.0000571850
   12   10   12   11       -0.0000125533
   12   10   13   11       -0.0000037900
   12   10   12   12       -0.0000175709
   12   10   13   12        0.0007243944
   12   10   13   13        0.0000772125
   13   10   13   10        0.0032117823
   13   10   11   11       -0.0014795037
   13   10   12   11       -0.0000168559
   13   10   13   11        0.0000551032
   13   10   12   12        0.0006862240
   13   10   13   12        0.0000375789
   13   10   13   13        0.0005360163
   11   11   11   11        0.0739969996
   11   11   12   11        0.0000125878
   11   11   13   11        0.0003352180
   11   11   12   12        0.0654086403
   11   11   13   12        0.0000202037
   11   11   13   13        0.0673845272
   12   11   12   11        0.0021803905
   12   11   13   11       -0.0000179111
   12   11   12   12       -0.0000355036
   12   11   13   12        0.0000040383
   12   11   13   13        0.0001862418
   13   11   13   11        0.0014066995
   13   11   12   12        0.0000028130
   13   11   13   12        0.0000840424
   13   11   13   13       -0.0007253233
   12   12   12   12        0.0721770629
   12   12   13   12       -0.0000171415
   12   12   13   13        0.0687534914
   13   12   13   12        0.0032599858
   13   12   13   13        0.0001081275
   13   13   13   13        0.0759644864
 end_two_electron_integrals


 output epsi filename:./pspw_hf_LiH.emovecs

 Total PSPW energy     :  -0.7388943609E+00


=== Spin Contamination ===

 <Sexact^2> =    0.0000000000000000     
 <S^2>      =    0.0000000000000000     



== Center of Charge ==

spin up     (    0.0000,    0.0000,    2.2643 )
spin down   (    0.0000,    0.0000,    2.2643 )
     total  (    0.0000,    0.0000,    2.2643 )
ionic       (    0.0000,    0.0000,    0.8976 )


== Molecular Dipole wrt Center of Mass ==

mu   =  (   -0.0000,   -0.0000,   -2.7334 ) au
|mu| =     2.7334 au,       6.9472 Debye

 output psi filename:./pspw_hf_LiH.movecs

 Writing Crystallographic Information File:./LiH.cif
   - cell not shifted (nwpw:cif_shift_cell .false.)


== Timing ==

cputime in seconds
  prologue    :   0.891831E+02
  main loop   :   0.112116E+04
  epilogue    :   0.803054E-01
  total       :   0.121042E+04
  cputime/step:   0.875907E+01       (     128 evalulations,      58 linesearches)


Time spent doing                        total          step       percent
  total time                 :   0.121043E+04  0.945652E+01       100.0 %
  i/o time                   :   0.173061E+01  0.135204E-01         0.1 %
  FFTs                       :   0.922381E+03  0.720610E+01        76.2 %
  dot products               :   0.638048E+01  0.498475E-01         0.5 %
  geodesic                   :   0.999139E-01  0.780578E-03         0.0 %
  ffm_dgemm                  :   0.226928E-01  0.177287E-03         0.0 %
  fmf_dgemm                  :   0.428420E-01  0.334703E-03         0.0 %
  mmm_dgemm                  :   0.299448E-02  0.233944E-04         0.0 %
  m_diagonalize              :   0.134621E-02  0.105172E-04         0.0 %
  local pseudopotentials     :   0.590784E-02  0.461550E-04         0.0 %
  non-local pseudopotentials :   0.345859E+01  0.270202E-01         0.3 %
  structure factors          :   0.684388E+00  0.534678E-02         0.1 %
  phase factors              :   0.261340E-04  0.204172E-06         0.0 %
  masking and packing        :   0.225208E+02  0.175943E+00         1.9 %
  queue fft                  :   0.149959E+01  0.117156E-01         0.1 %
  queue fft (serial)         :   0.547887E+00  0.428036E-02         0.0 %
  queue fft (message passing):   0.881759E+00  0.688874E-02         0.1 %
  HFX potential              :   0.925889E+03  0.723351E+01        76.5 %
  non-local psp FFM          :   0.270481E+01  0.211313E-01         0.2 %
  non-local psp FMF          :   0.182842E+00  0.142846E-02         0.0 %
  non-local psp FFM A        :   0.352337E+00  0.275263E-02         0.0 %
  non-local psp FFM B        :   0.308737E+00  0.241201E-02         0.0 %

== HFX Counters ==
  HFX Evalulations         =   128
  Lin ACE HFX Evalulations =     0


     >>>  JOB COMPLETED     AT Sun May  4 19:21:54 2025  <<<

 Task  times  cpu:     1134.5s     wall:     1210.5s


                                NWChem Input Module
                                -------------------


 Summary of allocated global arrays
-----------------------------------
  No active global arrays


MA_summarize_allocated_blocks: starting scan ...
MA_summarize_allocated_blocks: scan completed: 0 heap blocks, 0 stack blocks
MA usage statistics:

	allocation statistics:
					      heap	     stack
					      ----	     -----
	current number of blocks	         0	         0
	maximum number of blocks	       315	        19
	current total bytes		         0	         0
	maximum total bytes		 125579696	  29399000
	maximum total K-bytes		    125580	     29399
	maximum total M-bytes		       126	        30


                                     CITATION
                                     --------
                Please cite the following reference when publishing
                           results obtained with NWChem:

          E. Apra, E. J. Bylaska, W. A. de Jong, N. Govind, K. Kowalski,
       T. P. Straatsma, M. Valiev, H. J. J. van Dam, Y. Alexeev, J. Anchell,
       V. Anisimov, F. W. Aquino, R. Atta-Fynn, J. Autschbach, N. P. Bauman,
     J. C. Becca, D. E. Bernholdt, K. Bhaskaran-Nair, S. Bogatko, P. Borowski,
         J. Boschen, J. Brabec, A. Bruner, E. Cauet, Y. Chen, G. N. Chuev,
      C. J. Cramer, J. Daily, M. J. O. Deegan, T. H. Dunning Jr., M. Dupuis,
   K. G. Dyall, G. I. Fann, S. A. Fischer, A. Fonari, H. Fruchtl, L. Gagliardi,
      J. Garza, N. Gawande, S. Ghosh, K. Glaesemann, A. W. Gotz, J. Hammond,
       V. Helms, E. D. Hermes, K. Hirao, S. Hirata, M. Jacquelin, L. Jensen,
   B. G. Johnson, H. Jonsson, R. A. Kendall, M. Klemm, R. Kobayashi, V. Konkov,
      S. Krishnamoorthy, M. Krishnan, Z. Lin, R. D. Lins, R. J. Littlefield,
      A. J. Logsdail, K. Lopata, W. Ma, A. V. Marenich, J. Martin del Campo,
   D. Mejia-Rodriguez, J. E. Moore, J. M. Mullin, T. Nakajima, D. R. Nascimento,
    J. A. Nichols, P. J. Nichols, J. Nieplocha, A. Otero-de-la-Roza, B. Palmer,
    A. Panyala, T. Pirojsirikul, B. Peng, R. Peverati, J. Pittner, L. Pollack,
   R. M. Richard, P. Sadayappan, G. C. Schatz, W. A. Shelton, D. W. Silverstein,
   D. M. A. Smith, T. A. Soares, D. Song, M. Swart, H. L. Taylor, G. S. Thomas,
            V. Tipparaju, D. G. Truhlar, K. Tsemekhman, T. Van Voorhis,
      A. Vazquez-Mayagoitia, P. Verma, O. Villa, A. Vishnu, K. D. Vogiatzis,
        D. Wang, J. H. Weare, M. J. Williamson, T. L. Windus, K. Wolinski,
        A. T. Wong, Q. Wu, C. Yang, Q. Yu, M. Zacharias, Z. Zhang, Y. Zhao,
                                and R. J. Harrison
                        "NWChem: Past, present, and future
                         J. Chem. Phys. 152, 184102 (2020)
                               doi:10.1063/5.0004997

                                      AUTHORS
                                      -------
  E. Apra, E. J. Bylaska, N. Govind, K. Kowalski, M. Valiev, D. Mejia-Rodriguez,
       A. Kunitsa, N. P. Bauman, A. Panyala, W. A. de Jong, T. P. Straatsma,
   H. J. J. van Dam, D. Wang, T. L. Windus, J. Hammond, J. Autschbach, A. Woods,
    K. Bhaskaran-Nair, J. Brabec, K. Lopata, S. A. Fischer, S. Krishnamoorthy,
     M. Jacquelin, W. Ma, M. Klemm, O. Villa, Y. Chen, V. Anisimov, F. Aquino,
     S. Hirata, M. T. Hackler, E. Hermes, L. Jensen, J. E. Moore, J. C. Becca,
      V. Konjkov, T. Risthaus, M. Malagoli, A. Marenich, A. Otero-de-la-Roza,
        J. Mullin, P. Nichols, R. Peverati, J. Pittner, Y. Zhao, P.-D. Fan,
        A. Fonari, M. J. Williamson, R. J. Harrison, J. R. Rehr, M. Dupuis,
     D. Silverstein, D. M. A. Smith, J. Nieplocha, V. Tipparaju, M. Krishnan,
     B. E. Van Kuiken, A. Vazquez-Mayagoitia, M. Swart, Q. Wu, T. Van Voorhis,
     A. A. Auer, M. Nooijen, L. D. Crosby, E. Brown, G. Cisneros, G. I. Fann,
   H. Fruchtl, J. Garza, K. Hirao, R. A. Kendall, J. A. Nichols, K. Tsemekhman,
    K. Wolinski, J. Anchell, D. E. Bernholdt, P. Borowski, T. Clark, D. Clerc,
   H. Dachsel, M. J. O. Deegan, K. Dyall, D. Elwood, E. Glendening, M. Gutowski,
   A. C. Hess, J. Jaffe, B. G. Johnson, J. Ju, R. Kobayashi, R. Kutteh, Z. Lin,
   R. Littlefield, X. Long, B. Meng, T. Nakajima, S. Niu, L. Pollack, M. Rosing,
   K. Glaesemann, G. Sandrone, M. Stave, H. Taylor, G. Thomas, J. H. van Lenthe,
                               A. T. Wong, Z. Zhang.

 Total times  cpu:     1134.5s     wall:     1210.5s
