 argument  1 = ../data/PW_LiH_data/3x3_aperiodic/NWChem/12nocovo/H1Li1-3.5.nw



============================== echo of input deck ==============================
title "swnc: e theory=pspw4 xc=pbe formula=LiH charge=0 mult=1"
#machinejob:expert

echo

start pspw_hf_LiH

memory heap 1200 mb stack 2400 mb global 400 mb

charge 0

geometry
Li    0.00000    0.00000   -1.75000
H     0.00000    0.00000    1.75000
end

nwpw
  ### pseudopotential block begin ###
  ### pseudopotential block end   ###
  simulation_cell
     SC 28.345889835
     boundary_conditions aperiodic
  end

  cutoff 50.0
  mult 1
  xc hf
  lmbfgs
  tolerances 1.0e-9 1.0e-9

  virtual 12
end
set nwpw:cif_filename LiH

#set nwpw:CI_maxit_orb 15
#set nwpw:CI_maxit_linesearch 15

set nwpw:2qintegrals .true.
#set nwpw:3x3_virtual .true.

task pspw energy
================================================================================


                                         
                                         


             Northwest Computational Chemistry Package (NWChem) 7.2.3
             --------------------------------------------------------


                    Environmental Molecular Sciences Laboratory
                       Pacific Northwest National Laboratory
                                Richland, WA 99352

                              Copyright (c) 1994-2022
                       Pacific Northwest National Laboratory
                            Battelle Memorial Institute

             NWChem is an open-source computational chemistry package
                        distributed under the terms of the
                      Educational Community License (ECL) 2.0
             A copy of the license is included with this distribution
                              in the LICENSE.TXT file

                                  ACKNOWLEDGMENT
                                  --------------

            This software and its documentation were developed at the
            EMSL at Pacific Northwest National Laboratory, a multiprogram
            national laboratory, operated for the U.S. Department of Energy
            by Battelle under Contract Number DE-AC05-76RL01830. Support
            for this work was provided by the Department of Energy Office
            of Biological and Environmental Research, Office of Basic
            Energy Sciences, and the Office of Advanced Scientific Computing.


           Job information
           ---------------

    hostname        = mqs-al
    program         = nwchem
    date            = Sun May  4 20:36:47 2025

    compiled        = Thu_Oct_31_08:55:15_2024
    source          = /home/conda/feedstock_root/build_artifacts/nwchem_1730356057992/work
    nwchem branch   = 7.2.3
    nwchem revision = c400b04
    ga revision     = 5.8.0
    use scalapack   = T
    input           = ../data/PW_LiH_data/3x3_aperiodic/NWChem/12nocovo/H1Li1-3.5.nw
    prefix          = pspw_hf_LiH.
    data base       = ./pspw_hf_LiH.db
    status          = startup
    nproc           =       24
    time left       =     -1s



           Memory information
           ------------------

    heap     =  157286398 doubles =   1200.0 Mbytes
    stack    =  314572795 doubles =   2400.0 Mbytes
    global   =   52428800 doubles =    400.0 Mbytes (distinct from heap & stack)
    total    =  524287993 doubles =   4000.0 Mbytes
    verify   = yes
    hardfail = no 


           Directory information
           ---------------------

  0 permanent = .
  0 scratch   = .




                                NWChem Input Module
                                -------------------


              swnc: e theory=pspw4 xc=pbe formula=LiH charge=0 mult=1
              -------------------------------------------------------

 Scaling coordinates for geometry "geometry" by  1.889725989
 (inverse scale =  0.529177249)

  zeroes
  zeroes
  zeroes
  zeroes
  zeroes
  zeroes
  zeroes
  zeroes
  zeroes
  zeroes
  zeroes
  zeroes
  zeroes
  zeroes
  zeroes
  zeroes
  zeroes
  zeroes
  zeroes
  zeroes
  zeroes
  zeroes
  zeroes
  zeroes
  zeroes
  zeroes
  zeroes
  zeroes
  zeroes
  zeroes
  zeroes
  zeroes
  zeroes
  zeroes
  zeroes
  zeroes
  zeroes
  zeroes
  zeroes
  zeroes
  zeroes
  zeroes
  zeroes
  zeroes
  zeroes
  zeroes
  zeroes
  zeroes
 ORDER OF PRIMARY AXIS IS BEING SET TO 4
 C4V symmetry detected

          ------
          auto-z
          ------
     1 autoz failed with cvr_scaling = 1.2 changing to 1.3
     2 autoz failed with cvr_scaling = 1.3 changing to 1.4
     3 autoz failed with cvr_scaling = 1.4 changing to 1.5
     4 autoz failed with cvr_scaling = 1.5 changing to 1.6
     5 autoz failed with cvr_scaling = 1.6 changing to 1.7

 AUTOZ failed to generate good internal coordinates.
 Cartesian coordinates will be used in optimizations.



                             Geometry "geometry" -> ""
                             -------------------------

 Output coordinates in angstroms (scale by  1.889725989 to convert to a.u.)

  No.       Tag          Charge          X              Y              Z
 ---- ---------------- ---------- -------------- -------------- --------------
    1 Li                   3.0000     0.00000000     0.00000000    -0.87500000
    2 H                    1.0000     0.00000000     0.00000000     2.62500000

      Atomic Mass 
      ----------- 

      Li                 7.016000
      H                  1.007825


 Effective nuclear repulsion energy (a.u.)       0.4535804991

            Nuclear Dipole moment (a.u.) 
            ----------------------------
        X                 Y               Z
 ---------------- ---------------- ----------------
     0.0000000000     0.0000000000     0.0000000000

      Symmetry information
      --------------------

 Group name             C4v       
 Group number             18
 Group order               8
 No. of unique centers     2

      Symmetry unique atoms

     1    2


            XYZ format geometry
            -------------------
     2
 geometry
 Li                    0.00000000     0.00000000    -0.87500000
 H                     0.00000000     0.00000000     2.62500000

          ****************************************************
          *                                                  *
          *               NWPW PSPW Calculation              *
          *                                                  *
          * [ (Grassmann/Stiefel manifold implementation)  ] *
          *                                                  *
          *      [ NorthWest Chemistry implementation ]      *
          *                                                  *
          *            version #5.10   06/12/02              *
          *                                                  *
          *    This code was developed by Eric J. Bylaska,   *
          *    and was based upon algorithms and code        *
          *    developed by the group of Prof. John H. Weare *
          *                                                  *
          ****************************************************
     >>>  JOB STARTED       AT Sun May  4 20:36:47 2025  <<<
          ================ input data ========================

 input psi filename:./pspw_hf_LiH.movecs

 number of processors used:        24
 processor grid           :  24 x   1
 parallel mapping         :2d-hilbert
 parallel mapping         :  balanced
 number of threads        :         1
 parallel io              :       off

 options:
      boundary conditions  = aperiodic   (version4)
      electron spin        = restricted
      exchange-correlation = Hartree-Fock
      - HFX relaxed
      - HFX restricted orbitals :    1
      - HFX free-space coulomb solver


 elements involved in the cluster:
      1: Li  valence charge:  1.0000  lmax=  1
             comment    : Hamann pseudopotential
             pseudpotential type            :   0
             highest angular component      :   1
             local potential used           :   1
             number of non-local projections:   1
             aperiodic cutoff radius        :  1.000
             semicore corrections included  :  1.000 (radius)  0.769 (charge)
             cutoff =   1.869   1.551

      2: H   valence charge:  1.0000  lmax=  1
             comment    : Parameterized (Chem.Phys.Lett., vol 322, page 447) Hamman psp
             pseudpotential type            :   0
             highest angular component      :   1
             local potential used           :   1
             number of non-local projections:   1
             aperiodic cutoff radius        :  1.000
             cutoff =   0.800   0.800


 total charge:   0.000

 atomic composition:
     Li  :    1     H   :    1

 number of electrons: spin up=     1 (   1 per task)  down=     1 (   1 per task) (Fourier space)
 number of orbitals : spin up=     1 (   1 per task)  down=     1 (   1 per task) (Fourier space)

 supercell:
      cell_name:  cell_default                                      
      lattice:    a1=<  28.346   0.000   0.000 >
                  a2=<   0.000  28.346   0.000 >
                  a3=<   0.000   0.000  28.346 >
      reciprocal: b1=<   0.222   0.000   0.000 >
                  b2=<   0.000   0.222   0.000 >
                  b3=<   0.000   0.000   0.222 >
      lattice:    a=      28.346 b=     28.346 c=      28.346
                  alpha=  90.000 beta=  90.000 gamma=  90.000
                  omega=     22775.6

      density cutoff=100.000  fft=140x140x140(   544264 waves    22677 per task)
      wavefnc cutoff= 50.000  fft=140x140x140(   192294 waves     8012 per task)

 technical parameters:
      time step=      5.80     fictitious mass=  400000.0
      tolerance=0.100E-08 (energy)   0.100E-08 (density)
      maximum iterations =      1000 (   10 inner    100 outer )





== Energy Calculation ==


          ============ Grassmann lmbfgs iteration ============
     >>>  ITERATION STARTED AT Sun May  4 20:38:16 2025  <<<
    iter.           Energy         DeltaE       DeltaRho 
    ------------------------------------------------------
      10   -0.6493163449E+00   -0.18915E-02    0.14186E-01
     -  10 steepest descent iterations performed
      20   -0.6550737659E+00   -0.16661E-03    0.12863E-03
      30   -0.6555018930E+00   -0.15745E-04    0.90588E-05
      40   -0.6555587724E+00   -0.17737E-05    0.58826E-06
      50   -0.6555665763E+00   -0.24592E-06    0.37992E-07
      60   -0.6555680222E+00   -0.77558E-07    0.89288E-08
      70   -0.6555684098E+00   -0.19495E-07    0.21095E-08
      80   -0.6555685009E+00   -0.50901E-08    0.51569E-09
      90   -0.6555685202E+00   -0.85513E-09    0.14296E-09
  *** tolerance ok. iteration terminated
     >>>  ITERATION ENDED   AT Sun May  4 20:40:03 2025  <<<


==  Summary Of Results  ==

 number of electrons: spin up=    1.00000  down=    1.00000 (real space)

 total     energy    :  -0.6555685202E+00 (   -0.32778E+00/ion)
 total orbital energy:  -0.4329806522E+00 (   -0.43298E+00/electron)
 hartree   energy    :   0.7475627354E+00 (    0.74756E+00/electron)
 exc-corr  energy    :   0.0000000000E+00 (    0.00000E+00/electron)
 HF exchange energy  :  -0.3737813677E+00 (   -0.37378E+00/electron)
 ion-ion   energy    :   0.1511934997E+00 (    0.75597E-01/ion)

 kinetic (planewave) :   0.4564199379E+00 (    0.45642E+00/electron)
 V_local (planewave) :  -0.1545186092E+01 (   -0.15452E+01/electron)
 V_nl    (planewave) :  -0.9177723321E-01 (   -0.91777E-01/electron)
 V_Coul  (planewave) :   0.1495125471E+01 (    0.14951E+01/electron)
 V_xc.   (planewave) :   0.0000000000E+00 (    0.00000E+00/electron)
 K.S. HFX energy     :  -0.7475627354E+00 (   -0.74756E+00/electron)
 Virial Coefficient  :  -0.3107617414E+00

 orbital energies:
    -0.2164903E+00 (  -5.891eV)


== Virtual Orbital Calculation ==


 input epsi filename:./pspw_hf_LiH.emovecs
     orbital   1 current e=-0.444E-01 (error=0.999E-09) iterations 108(  60 preconditioned, Ep,Sp= 20.0  200.0)
     orbital   2 current e= 0.403E-03 (error=0.370E-08) iterations 121(  68 preconditioned, Ep,Sp= 20.0  200.0)
     orbital   2 current e= 0.403E-03 (error=0.946E-09) iterations  20(   1 preconditioned, Ep,Sp= 20.0  200.0)
     orbital   3 current e= 0.478E-02 (error=0.967E-09) iterations 106(  42 preconditioned, Ep,Sp= 20.0  200.0)
     orbital   4 current e= 0.478E-02 (error=0.967E-09) iterations 106(  42 preconditioned, Ep,Sp= 20.0  200.0)
     orbital   5 current e= 0.162E-01 (error=0.180E-07) iterations 121(  86 preconditioned, Ep,Sp= 20.0  200.0)
     orbital   5 current e= 0.162E-01 (error=0.970E-09) iterations  60(   1 preconditioned, Ep,Sp= 20.0  200.0)
     orbital   6 current e= 0.189E-01 (error=0.942E-09) iterations  75(  33 preconditioned, Ep,Sp= 20.0  200.0)
     orbital   7 current e= 0.302E-01 (error=0.199E-07) iterations 121(  80 preconditioned, Ep,Sp= 20.0  200.0)
     orbital   7 current e= 0.302E-01 (error=0.989E-09) iterations  44(   1 preconditioned, Ep,Sp= 20.0  200.0)
     orbital   8 current e= 0.319E-01 (error=0.318E-07) iterations 121(  76 preconditioned, Ep,Sp= 20.0  200.0)
     orbital   8 current e= 0.319E-01 (error=0.975E-09) iterations  66(   1 preconditioned, Ep,Sp= 20.0  200.0)
     orbital   9 current e= 0.319E-01 (error=0.318E-07) iterations 121(  76 preconditioned, Ep,Sp= 20.0  200.0)
     orbital   9 current e= 0.319E-01 (error=0.974E-09) iterations  66(   1 preconditioned, Ep,Sp= 20.0  200.0)
     orbital  10 current e= 0.328E-01 (error=0.121E-07) iterations 121(  56 preconditioned, Ep,Sp= 20.0  200.0)
     orbital  10 current e= 0.328E-01 (error=0.996E-09) iterations  69(   1 preconditioned, Ep,Sp= 20.0  200.0)
     orbital  11 current e= 0.398E-01 (error=0.946E-09) iterations  89(  36 preconditioned, Ep,Sp= 20.0  200.0)
     orbital  12 current e= 0.397E-01 (error=0.575E-08) iterations 121(  74 preconditioned, Ep,Sp= 20.0  200.0)
     orbital  12 current e= 0.397E-01 (error=0.971E-09) iterations  30(   1 preconditioned, Ep,Sp= 20.0  200.0)

 virtual orbital energies:
     0.3979065E-01 (   1.083eV)
     0.3967297E-01 (   1.080eV)
     0.3282303E-01 (   0.893eV)
     0.3192898E-01 (   0.869eV)
     0.3192898E-01 (   0.869eV)
     0.3020635E-01 (   0.822eV)
     0.1885551E-01 (   0.513eV)
     0.1621257E-01 (   0.441eV)
     0.4784294E-02 (   0.130eV)
     0.4784294E-02 (   0.130eV)
     0.4034453E-03 (   0.011eV)
    -0.4436782E-01 (  -1.207eV)


 == Generating One-Electron and Two-Electron Integrals ==

 begin_one_electron_integrals
    1    1        -0.5902716938
    2    1        -0.0592708561
    3    1        -0.0087864123
    4    1        -0.0000001375
    5    1        -0.0000002207
    6    1        -0.0243996514
    7    1        -0.0000000026
    8    1        -0.0109328915
    9    1        -0.0000000026
   10    1         0.0000000554
   11    1        -0.0020758663
   12    1         0.0234596815
   13    1         0.0000091139
    2    2        -0.2922600792
    3    2        -0.0309323905
    4    2        -0.0000003624
    5    2        -0.0000005814
    6    2        -0.0336372953
    7    2        -0.0000000036
    8    2        -0.0167011444
    9    2         0.0000000535
   10    2        -0.0000007526
   11    2         0.0143156486
   12    2         0.0238252978
   13    2         0.0000096616
    3    3        -0.1360061825
    4    3         0.0000005975
    5    3         0.0000009586
    6    3        -0.0085586089
    7    3        -0.0000000008
    8    3        -0.0080323473
    9    3         0.0000001503
   10    3        -0.0000022641
   11    3         0.0281028205
   12    3         0.0046431487
   13    3         0.0000020715
    4    4        -0.1930352425
    5    4         0.0000000000
    6    4        -0.0000000347
    7    4        -0.0000001943
    8    4        -0.0000000742
    9    4         0.0369626059
   10    4         0.0263429406
   11    4         0.0000015340
   12    4         0.0000000626
   13    4        -0.0000570202
    5    5        -0.1930352428
    6    5        -0.0000000557
    7    5         0.0000001210
    8    5        -0.0000001265
    9    5        -0.0263429409
   10    5         0.0369626050
   11    5         0.0000024891
   12    5        -0.0000000284
   13    5        -0.0000488116
    6    6        -0.1492003656
    7    6        -0.0000000038
    8    6        -0.0034956347
    9    6         0.0000000182
   10    6        -0.0000002757
   11    6         0.0003939004
   12    6         0.0349463210
   13    6         0.0000151203
    7    7        -0.1166742454
    8    7        -0.0000000076
    9    7         0.0000001751
   10    7         0.0000000108
   11    7         0.0000000001
   12    7        -0.0000000055
   13    7        -0.0000192307
    8    8        -0.1085450511
    9    8        -0.0000000175
   10    8         0.0000002434
   11    8        -0.0046501938
   12    8         0.0053373647
   13    8         0.0000010796
    9    9        -0.1216259352
   10    9        -0.0000000002
   11    9         0.0000000663
   12    9        -0.0000000570
   13    9         0.0000090125
   10   10        -0.1216259331
   11   10        -0.0000009717
   12   10         0.0000003428
   13   10         0.0000365342
   11   11        -0.1039429273
   12   11        -0.0024928988
   13   11        -0.0000014927
   12   12        -0.1098918494
   13   12         0.0000014419
   13   13        -0.1093832787
 end_one_electron_integrals

 begin_two_electron_integrals
    1    1    1    1        0.3737813677
    1    1    2    1        0.0592729877
    1    1    3    1        0.0087934529
    1    1    4    1        0.0000001376
    1    1    5    1        0.0000002208
    1    1    6    1        0.0244053983
    1    1    7    1        0.0000000026
    1    1    8    1        0.0109292511
    1    1    9    1        0.0000000026
    1    1   10    1       -0.0000000552
    1    1   11    1        0.0020736770
    1    1   12    1       -0.0234585867
    1    1   13    1       -0.0000091135
    1    1    2    2        0.1345374500
    1    1    3    2        0.0179405977
    1    1    4    2        0.0000002170
    1    1    5    2        0.0000003481
    1    1    6    2        0.0214527379
    1    1    7    2        0.0000000023
    1    1    8    2        0.0102973227
    1    1    9    2       -0.0000000305
    1    1   10    2        0.0000004275
    1    1   11    2       -0.0080652702
    1    1   12    2       -0.0161490932
    1    1   13    2       -0.0000065219
    1    1    3    3        0.0689124670
    1    1    4    3       -0.0000003238
    1    1    5    3       -0.0000005195
    1    1    6    3        0.0054364510
    1    1    7    3        0.0000000005
    1    1    8    3        0.0044841292
    1    1    9    3       -0.0000000792
    1    1   10    3        0.0000011940
    1    1   11    3       -0.0144507193
    1    1   12    3       -0.0033703508
    1    1   13    3       -0.0000014631
    1    1    4    4        0.1000783712
    1    1    5    4       -0.0000000000
    1    1    6    4        0.0000000504
    1    1    7    4        0.0000000469
    1    1    8    4        0.0000000416
    1    1    9    4       -0.0191802457
    1    1   10    4       -0.0136696008
    1    1   11    4       -0.0000007743
    1    1   12    4       -0.0000000518
    1    1   13    4        0.0000297380
    1    1    5    5        0.1000783714
    1    1    6    5        0.0000000809
    1    1    7    5       -0.0000000291
    1    1    8    5        0.0000000706
    1    1    9    5        0.0136696010
    1    1   10    5       -0.0191802452
    1    1   11    5       -0.0000012568
    1    1   12    5       -0.0000000158
    1    1   13    5        0.0000254564
    1    1    6    6        0.0850418649
    1    1    7    6        0.0000000020
    1    1    8    6        0.0026166343
    1    1    9    6       -0.0000000100
    1    1   10    6        0.0000001473
    1    1   11    6       -0.0006865828
    1    1   12    6       -0.0196546524
    1    1   13    6       -0.0000084362
    1    1    7    7        0.0677897763
    1    1    8    7        0.0000000038
    1    1    9    7       -0.0000000545
    1    1   10    7       -0.0000000034
    1    1   11    7       -0.0000000001
    1    1   12    7        0.0000000026
    1    1   13    7        0.0000096496
    1    1    8    8        0.0697624760
    1    1    9    8        0.0000000081
    1    1   10    8       -0.0000001105
    1    1   11    8        0.0021713981
    1    1   12    8       -0.0034791491
    1    1   13    8       -0.0000008609
    1    1    9    9        0.0774308744
    1    1   10    9        0.0000000001
    1    1   11    9       -0.0000000325
    1    1   12    9        0.0000000312
    1    1   13    9       -0.0000048167
    1    1   10   10        0.0774308733
    1    1   11   10        0.0000004754
    1    1   12   10       -0.0000001921
    1    1   13   10       -0.0000195040
    1    1   11   11        0.0687398277
    1    1   12   11        0.0016601864
    1    1   13   11        0.0000008826
    1    1   12   12        0.0768517370
    1    1   13   12        0.0000000521
    1    1   13   13        0.0746512860
    2    1    2    1        0.0211826382
    2    1    3    1        0.0049571337
    2    1    4    1        0.0000000715
    2    1    5    1        0.0000001148
    2    1    6    1        0.0092567123
    2    1    7    1        0.0000000010
    2    1    8    1        0.0038943808
    2    1    9    1       -0.0000000075
    2    1   10    1        0.0000001024
    2    1   11    1       -0.0018150430
    2    1   12    1       -0.0084819376
    2    1   13    1       -0.0000033798
    2    1    2    2       -0.0161539909
    2    1    3    2       -0.0031221555
    2    1    4    2       -0.0000000416
    2    1    5    2       -0.0000000667
    2    1    6    2        0.0027460908
    2    1    7    2        0.0000000003
    2    1    8    2       -0.0014965040
    2    1    9    2        0.0000000044
    2    1   10    2       -0.0000000610
    2    1   11    2        0.0017176053
    2    1   12    2       -0.0039287375
    2    1   13    2       -0.0000016622
    2    1    3    3       -0.0038465335
    2    1    4    3        0.0000000852
    2    1    5    3        0.0000001367
    2    1    6    3       -0.0012300026
    2    1    7    3       -0.0000000001
    2    1    8    3       -0.0032923565
    2    1    9    3        0.0000000050
    2    1   10    3       -0.0000000728
    2    1   11    3        0.0004953172
    2    1   12    3       -0.0002003315
    2    1   13    3       -0.0000001609
    2    1    4    4       -0.0112854055
    2    1    5    4        0.0000000001
    2    1    6    4        0.0000000014
    2    1    7    4       -0.0000000157
    2    1    8    4       -0.0000000142
    2    1    9    4        0.0039051155
    2    1   10    4        0.0027831433
    2    1   11    4        0.0000001536
    2    1   12    4       -0.0000000002
    2    1   13    4        0.0000025766
    2    1    5    5       -0.0112854055
    2    1    6    5        0.0000000022
    2    1    7    5        0.0000000098
    2    1    8    5       -0.0000000237
    2    1    9    5       -0.0027831432
    2    1   10    5        0.0039051156
    2    1   11    5        0.0000002495
    2    1   12    5        0.0000000056
    2    1   13    5        0.0000021687
    2    1    6    6       -0.0037113628
    2    1    7    6       -0.0000000001
    2    1    8    6        0.0003972936
    2    1    9    6        0.0000000078
    2    1   10    6       -0.0000001162
    2    1   11    6        0.0019745546
    2    1   12    6        0.0017716451
    2    1   13    6        0.0000008168
    2    1    7    7       -0.0032583235
    2    1    8    7        0.0000000001
    2    1    9    7        0.0000000236
    2    1   10    7        0.0000000015
    2    1   11    7        0.0000000002
    2    1   12    7        0.0000000004
    2    1   13    7        0.0000001692
    2    1    8    8       -0.0004020409
    2    1    9    8        0.0000000064
    2    1   10    8       -0.0000001017
    2    1   11    8        0.0018779528
    2    1   12    8       -0.0015082759
    2    1   13    8       -0.0000007060
    2    1    9    9       -0.0054127879
    2    1   10    9       -0.0000000000
    2    1   11    9        0.0000000120
    2    1   12    9       -0.0000000082
    2    1   13    9        0.0000010085
    2    1   10   10       -0.0054127878
    2    1   11   10       -0.0000001778
    2    1   12   10        0.0000000680
    2    1   13   10        0.0000039562
    2    1   11   11       -0.0018079576
    2    1   12   11       -0.0011475015
    2    1   13   11       -0.0000003676
    2    1   12   12       -0.0024757992
    2    1   13   12        0.0000010884
    2    1   13   13       -0.0050474792
    3    1    3    1        0.0014153062
    3    1    4    1       -0.0000000489
    3    1    5    1       -0.0000000785
    3    1    6    1        0.0023187515
    3    1    7    1        0.0000000003
    3    1    8    1        0.0009237771
    3    1    9    1       -0.0000000080
    3    1   10    1        0.0000001235
    3    1   11    1       -0.0007945900
    3    1   12    1       -0.0020899805
    3    1   13    1       -0.0000008458
    3    1    2    2       -0.0069396718
    3    1    3    2       -0.0016818527
    3    1    4    2        0.0000001981
    3    1    5    2        0.0000003179
    3    1    6    2       -0.0000444779
    3    1    7    2        0.0000000000
    3    1    8    2       -0.0009170164
    3    1    9    2        0.0000000118
    3    1   10    2       -0.0000001847
    3    1   11    2        0.0009798122
    3    1   12    2       -0.0005417640
    3    1   13    2       -0.0000002420
    3    1    3    3       -0.0013203783
    3    1    4    3       -0.0000001349
    3    1    5    3       -0.0000002164
    3    1    6    3       -0.0005199587
    3    1    7    3       -0.0000000000
    3    1    8    3       -0.0010444773
    3    1    9    3        0.0000000262
    3    1   10    3       -0.0000004196
    3    1   11    3        0.0004067020
    3    1   12    3        0.0001239445
    3    1   13    3        0.0000000279
    3    1    4    4       -0.0042101568
    3    1    5    4        0.0000000001
    3    1    6    4        0.0000000891
    3    1    7    4       -0.0000002798
    3    1    8    4       -0.0000000913
    3    1    9    4        0.0018005906
    3    1   10    4        0.0012832659
    3    1   11    4        0.0000001175
    3    1   12    4       -0.0000000647
    3    1   13    4       -0.0000001949
    3    1    5    5       -0.0042101567
    3    1    6    5        0.0000001430
    3    1    7    5        0.0000001744
    3    1    8    5       -0.0000001469
    3    1    9    5       -0.0012832659
    3    1   10    5        0.0018005907
    3    1   11    5        0.0000001899
    3    1   12    5       -0.0000001048
    3    1   13    5       -0.0000000069
    3    1    6    6       -0.0014683298
    3    1    7    6       -0.0000000001
    3    1    8    6       -0.0000329923
    3    1    9    6        0.0000000051
    3    1   10    6       -0.0000000787
    3    1   11    6        0.0006295163
    3    1   12    6        0.0009150022
    3    1   13    6        0.0000003998
    3    1    7    7       -0.0009235112
    3    1    8    7       -0.0000000000
    3    1    9    7        0.0000000838
    3    1   10    7        0.0000000052
    3    1   11    7        0.0000000001
    3    1   12    7        0.0000000001
    3    1   13    7       -0.0000000878
    3    1    8    8       -0.0002969907
    3    1    9    8       -0.0000000030
    3    1   10    8        0.0000000485
    3    1   11    8        0.0006035108
    3    1   12    8       -0.0003129685
    3    1   13    8       -0.0000001551
    3    1    9    9       -0.0021404556
    3    1   10    9       -0.0000000000
    3    1   11    9        0.0000000120
    3    1   12    9       -0.0000000116
    3    1   13    9        0.0000004414
    3    1   10   10       -0.0021404553
    3    1   11   10       -0.0000001876
    3    1   12   10        0.0000001573
    3    1   13   10        0.0000022196
    3    1   11   11       -0.0007169705
    3    1   12   11       -0.0004059074
    3    1   13   11       -0.0000001363
    3    1   12   12       -0.0011179551
    3    1   13   12        0.0000001706
    3    1   13   13       -0.0014921847
    4    1    4    1        0.0023372059
    4    1    5    1       -0.0000000000
    4    1    6    1        0.0000000689
    4    1    7    1       -0.0000001003
    4    1    8    1        0.0000000092
    4    1    9    1       -0.0014041328
    4    1   10    1       -0.0010007137
    4    1   11    1       -0.0000000148
    4    1   12    1       -0.0000000408
    4    1   13    1        0.0000024531
    4    1    2    2       -0.0000002006
    4    1    3    2        0.0000011326
    4    1    4    2       -0.0059230302
    4    1    5    2        0.0000000002
    4    1    6    2       -0.0000006082
    4    1    7    2        0.0000022687
    4    1    8    2        0.0000004572
    4    1    9    2        0.0028164888
    4    1   10    2        0.0020072881
    4    1   11    2        0.0000000707
    4    1   12    2        0.0000001511
    4    1   13    2       -0.0000014676
    4    1    3    3       -0.0000118053
    4    1    4    3        0.0002054890
    4    1    5    3        0.0000000002
    4    1    6    3        0.0000064839
    4    1    7    3       -0.0000193334
    4    1    8    3        0.0000002166
    4    1    9    3        0.0015824619
    4    1   10    3        0.0011278079
    4    1   11    3       -0.0000023800
    4    1   12    3        0.0000016558
    4    1   13    3       -0.0000007370
    4    1    4    4        0.0000002390
    4    1    5    4        0.0000004707
    4    1    6    4       -0.0017879235
    4    1    7    4        0.0015284438
    4    1    8    4        0.0004657746
    4    1    9    4       -0.0000000859
    4    1   10    4        0.0000018928
    4    1   11    4       -0.0000189829
    4    1   12    4        0.0014685508
    4    1   13    4        0.0012959794
    4    1    5    5       -0.0000017256
    4    1    6    5       -0.0000000001
    4    1    7    5        0.0007497493
    4    1    8    5        0.0000000005
    4    1    9    5        0.0000045678
    4    1   10    5       -0.0000035175
    4    1   11    5        0.0000000289
    4    1   12    5        0.0000012342
    4    1   13    5       -0.0026385790
    4    1    6    6       -0.0000079428
    4    1    7    6        0.0000092235
    4    1    8    6       -0.0000002980
    4    1    9    6        0.0010692536
    4    1   10    6        0.0007620481
    4    1   11    6       -0.0000033512
    4    1   12    6       -0.0000064505
    4    1   13    6       -0.0000064902
    4    1    7    7       -0.0000172548
    4    1    8    7       -0.0000058867
    4    1    9    7       -0.0003862870
    4    1   10    7       -0.0007146219
    4    1   11    7        0.0000033625
    4    1   12    7       -0.0000089444
    4    1   13    7       -0.0000018739
    4    1    8    8       -0.0000139622
    4    1    9    8        0.0001626594
    4    1   10    8        0.0001159258
    4    1   11    8       -0.0000003735
    4    1   12    8       -0.0000019579
    4    1   13    8       -0.0000007416
    4    1    9    9       -0.0000096667
    4    1   10    9        0.0000128397
    4    1   11    9       -0.0002410705
    4    1   12    9       -0.0010062488
    4    1   13    9        0.0004814533
    4    1   10   10       -0.0000064781
    4    1   11   10       -0.0001718024
    4    1   12   10       -0.0007168636
    4    1   13   10       -0.0002617360
    4    1   11   11       -0.0000149839
    4    1   12   11        0.0000021897
    4    1   13   11       -0.0000008005
    4    1   12   12       -0.0000170517
    4    1   13   12        0.0000010512
    4    1   13   13       -0.0000017494
    5    1    5    1        0.0023372059
    5    1    6    1        0.0000001106
    5    1    7    1        0.0000000625
    5    1    8    1        0.0000000150
    5    1    9    1        0.0010007137
    5    1   10    1       -0.0014041328
    5    1   11    1       -0.0000000249
    5    1   12    1       -0.0000000600
    5    1   13    1        0.0000020991
    5    1    2    2       -0.0000003219
    5    1    3    2        0.0000018172
    5    1    4    2        0.0000000002
    5    1    5    2       -0.0059230300
    5    1    6    2       -0.0000009757
    5    1    7    2       -0.0000014141
    5    1    8    2        0.0000007329
    5    1    9    2       -0.0020072880
    5    1   10    2        0.0028164888
    5    1   11    2        0.0000001156
    5    1   12    2        0.0000002391
    5    1   13    2       -0.0000012700
    5    1    3    3       -0.0000189400
    5    1    4    3        0.0000000002
    5    1    5    3        0.0002054891
    5    1    6    3        0.0000104026
    5    1    7    3        0.0000120505
    5    1    8    3        0.0000003471
    5    1    9    3       -0.0011278074
    5    1   10    3        0.0015824628
    5    1   11    3       -0.0000038172
    5    1   12    3        0.0000026548
    5    1   13    3       -0.0000005904
    5    1    4    4       -0.0000017948
    5    1    5    4       -0.0000003135
    5    1    6    4       -0.0000000001
    5    1    7    4        0.0007497497
    5    1    8    4        0.0000000005
    5    1    9    4       -0.0000040180
    5    1   10    4       -0.0000040489
    5    1   11    4        0.0000000289
    5    1   12    4        0.0000012342
    5    1   13    4       -0.0026385862
    5    1    5    5       -0.0000005901
    5    1    6    5       -0.0017879232
    5    1    7    5       -0.0015284442
    5    1    8    5        0.0004657743
    5    1    9    5        0.0000000817
    5    1   10    5       -0.0000018251
    5    1   11    5       -0.0000189546
    5    1   12    5        0.0014697606
    5    1   13    5       -0.0012946557
    5    1    6    6       -0.0000127431
    5    1    7    6       -0.0000057490
    5    1    8    6       -0.0000004782
    5    1    9    6       -0.0007620480
    5    1   10    6        0.0010692533
    5    1   11    6       -0.0000053757
    5    1   12    6       -0.0000103636
    5    1   13    6       -0.0000055874
    5    1    7    7       -0.0000276830
    5    1    8    7        0.0000036690
    5    1    9    7       -0.0007146223
    5    1   10    7        0.0003862870
    5    1   11    7       -0.0000020955
    5    1   12    7        0.0000055771
    5    1   13    7        0.0000004820
    5    1    8    8       -0.0000224006
    5    1    9    8       -0.0001159264
    5    1   10    8        0.0001626597
    5    1   11    8       -0.0000005991
    5    1   12    8       -0.0000031428
    5    1   13    8       -0.0000006094
    5    1    9    9       -0.0000119387
    5    1   10    9       -0.0000079969
    5    1   11    9        0.0001718080
    5    1   12    9        0.0007171059
    5    1   13    9       -0.0002611204
    5    1   10   10       -0.0000139470
    5    1   11   10       -0.0002410600
    5    1   12   10       -0.0010057987
    5    1   13   10       -0.0004823548
    5    1   11   11       -0.0000240400
    5    1   12   11        0.0000035105
    5    1   13   11       -0.0000007053
    5    1   12   12       -0.0000273523
    5    1   13   12        0.0000008795
    5    1   13   13       -0.0000067047
    6    1    6    1        0.0046707917
    6    1    7    1        0.0000000005
    6    1    8    1        0.0017460078
    6    1    9    1       -0.0000000018
    6    1   10    1        0.0000000189
    6    1   11    1       -0.0009795614
    6    1   12    1       -0.0043711609
    6    1   13    1       -0.0000017566
    6    1    2    2       -0.0041527391
    6    1    3    2       -0.0010151089
    6    1    4    2       -0.0000001338
    6    1    5    2       -0.0000002146
    6    1    6    2        0.0000055449
    6    1    7    2        0.0000000000
    6    1    8    2       -0.0002873531
    6    1    9    2       -0.0000000011
    6    1   10    2        0.0000000228
    6    1   11    2        0.0008171251
    6    1   12    2       -0.0004661550
    6    1   13    2       -0.0000001740
    6    1    3    3       -0.0012526698
    6    1    4    3        0.0000001612
    6    1    5    3        0.0000002587
    6    1    6    3       -0.0000208433
    6    1    7    3       -0.0000000000
    6    1    8    3       -0.0011182083
    6    1    9    3       -0.0000000124
    6    1   10    3        0.0000002028
    6    1   11    3        0.0002662209
    6    1   12    3        0.0000837400
    6    1   13    3        0.0000000069
    6    1    4    4       -0.0042824443
    6    1    5    4       -0.0000000001
    6    1    6    4       -0.0000000694
    6    1    7    4        0.0000001843
    6    1    8    4        0.0000000552
    6    1    9    4        0.0017999797
    6    1   10    4        0.0012828305
    6    1   11    4        0.0000000157
    6    1   12    4        0.0000000373
    6    1   13    4       -0.0000017876
    6    1    5    5       -0.0042824443
    6    1    6    5       -0.0000001114
    6    1    7    5       -0.0000001149
    6    1    8    5        0.0000000881
    6    1    9    5       -0.0012828305
    6    1   10    5        0.0017999796
    6    1   11    5        0.0000000265
    6    1   12    5        0.0000000562
    6    1   13    5       -0.0000016599
    6    1    6    6       -0.0009548879
    6    1    7    6        0.0000000001
    6    1    8    6        0.0001212317
    6    1    9    6        0.0000000011
    6    1   10    6       -0.0000000180
    6    1   11    6        0.0001167670
    6    1   12    6        0.0003128133
    6    1   13    6        0.0000001187
    6    1    7    7       -0.0012709111
    6    1    8    7       -0.0000000002
    6    1    9    7       -0.0000000563
    6    1   10    7       -0.0000000035
    6    1   11    7        0.0000000000
    6    1   12    7       -0.0000000002
    6    1   13    7       -0.0000004334
    6    1    8    8       -0.0002642749
    6    1    9    8        0.0000000069
    6    1   10    8       -0.0000001118
    6    1   11    8        0.0006317775
    6    1   12    8       -0.0004866398
    6    1   13    8       -0.0000002227
    6    1    9    9       -0.0022373704
    6    1   10    9       -0.0000000000
    6    1   11    9        0.0000000002
    6    1   12    9        0.0000000042
    6    1   13    9        0.0000003989
    6    1   10   10       -0.0022373706
    6    1   11   10        0.0000000040
    6    1   12   10       -0.0000000917
    6    1   13   10        0.0000012259
    6    1   11   11       -0.0007486047
    6    1   12   11       -0.0001951948
    6    1   13   11       -0.0000000240
    6    1   12   12       -0.0007791912
    6    1   13   12        0.0000004597
    6    1   13   13       -0.0018303768
    7    1    7    1        0.0000497947
    7    1    8    1        0.0000000002
    7    1    9    1        0.0000000665
    7    1   10    1        0.0000000041
    7    1   11    1       -0.0000000001
    7    1   12    1       -0.0000000005
    7    1   13    1        0.0000000520
    7    1    2    2       -0.0000000004
    7    1    3    2       -0.0000000001
    7    1    4    2        0.0000003576
    7    1    5    2       -0.0000002229
    7    1    6    2        0.0000000000
    7    1    7    2       -0.0001917052
    7    1    8    2       -0.0000000001
    7    1    9    2       -0.0000001056
    7    1   10    2       -0.0000000065
    7    1   11    2        0.0000000001
    7    1   12    2       -0.0000000001
    7    1   13    2       -0.0000001076
    7    1    3    3       -0.0000000001
    7    1    4    3       -0.0000003816
    7    1    5    3        0.0000002378
    7    1    6    3       -0.0000000000
    7    1    7    3        0.0002541782
    7    1    8    3       -0.0000000001
    7    1    9    3       -0.0000004326
    7    1   10    3       -0.0000000268
    7    1   11    3        0.0000000000
    7    1   12    3        0.0000000000
    7    1   13    3        0.0000000536
    7    1    4    4        0.0003886285
    7    1    5    4        0.0001906346
    7    1    6    4        0.0000001625
    7    1    7    4       -0.0000002245
    7    1    8    4       -0.0000001946
    7    1    9    4       -0.0001301956
    7    1   10    4       -0.0002408584
    7    1   11    4        0.0000001084
    7    1   12    4       -0.0000001293
    7    1   13    4       -0.0000005388
    7    1    5    5       -0.0003886294
    7    1    6    5       -0.0000001013
    7    1    7    5       -0.0000003602
    7    1    8    5        0.0000001213
    7    1    9    5       -0.0002408587
    7    1   10    5        0.0001301960
    7    1   11    5       -0.0000000674
    7    1   12    5        0.0000000807
    7    1   13    5        0.0000002999
    7    1    6    6       -0.0000000001
    7    1    7    6       -0.0001390338
    7    1    8    6       -0.0000000001
    7    1    9    6       -0.0000000339
    7    1   10    6       -0.0000000021
    7    1   11    6        0.0000000000
    7    1   12    6       -0.0000000001
    7    1   13    6       -0.0000002508
    7    1    7    7       -0.0000000002
    7    1    8    7        0.0001683945
    7    1    9    7       -0.0000000055
    7    1   10    7        0.0000000877
    7    1   11    7       -0.0001512980
    7    1   12    7        0.0002059377
    7    1   13    7        0.0000001008
    7    1    8    8        0.0000000000
    7    1    9    8        0.0000001124
    7    1   10    8        0.0000000070
    7    1   11    8       -0.0000000000
    7    1   12    8        0.0000000000
    7    1   13    8        0.0000000809
    7    1    9    9       -0.0000119694
    7    1   10    9        0.0000963188
    7    1   11    9       -0.0000001570
    7    1   12    9        0.0000001361
    7    1   13    9       -0.0000009365
    7    1   10   10        0.0000119689
    7    1   11   10       -0.0000000098
    7    1   12   10        0.0000000088
    7    1   13   10       -0.0000001978
    7    1   11   11       -0.0000000001
    7    1   12   11       -0.0000000001
    7    1   13   11       -0.0000001878
    7    1   12   12       -0.0000000000
    7    1   13   12        0.0000000874
    7    1   13   13       -0.0000000005
    8    1    8    1        0.0007735483
    8    1    9    1       -0.0000000016
    8    1   10    1        0.0000000241
    8    1   11    1       -0.0003236269
    8    1   12    1       -0.0016247611
    8    1   13    1       -0.0000006432
    8    1    2    2       -0.0024419579
    8    1    3    2       -0.0007032912
    8    1    4    2        0.0000000311
    8    1    5    2        0.0000000493
    8    1    6    2        0.0003439282
    8    1    7    2       -0.0000000000
    8    1    8    2       -0.0003963926
    8    1    9    2        0.0000000021
    8    1   10    2       -0.0000000347
    8    1   11    2        0.0004425477
    8    1   12    2       -0.0006331510
    8    1   13    2       -0.0000002718
    8    1    3    3       -0.0004089178
    8    1    4    3       -0.0000000235
    8    1    5    3       -0.0000000378
    8    1    6    3       -0.0001681281
    8    1    7    3        0.0000000001
    8    1    8    3       -0.0002803334
    8    1    9    3        0.0000000026
    8    1   10    3       -0.0000000416
    8    1   11    3        0.0001898146
    8    1   12    3       -0.0000357388
    8    1   13    3       -0.0000000205
    8    1    4    4       -0.0013753583
    8    1    5    4        0.0000000001
    8    1    6    4       -0.0000000010
    8    1    7    4       -0.0000000760
    8    1    8    4       -0.0000000499
    8    1    9    4        0.0006633515
    8    1   10    4        0.0004727650
    8    1   11    4        0.0000000220
    8    1   12    4       -0.0000000114
    8    1   13    4        0.0000000739
    8    1    5    5       -0.0013753585
    8    1    6    5       -0.0000000018
    8    1    7    5        0.0000000472
    8    1    8    5       -0.0000000801
    8    1    9    5       -0.0004727652
    8    1   10    5        0.0006633515
    8    1   11    5        0.0000000358
    8    1   12    5       -0.0000000180
    8    1   13    5        0.0000000874
    8    1    6    6       -0.0003125890
    8    1    7    6       -0.0000000001
    8    1    8    6        0.0000059929
    8    1    9    6        0.0000000024
    8    1   10    6       -0.0000000382
    8    1   11    6        0.0002691459
    8    1   12    6        0.0001830125
    8    1   13    6        0.0000000891
    8    1    7    7       -0.0001502655
    8    1    8    7        0.0000000001
    8    1    9    7        0.0000000088
    8    1   10    7        0.0000000006
    8    1   11    7       -0.0000000000
    8    1   12    7        0.0000000001
    8    1   13    7        0.0000000400
    8    1    8    8       -0.0000949433
    8    1    9    8        0.0000000055
    8    1   10    8       -0.0000000883
    8    1   11    8        0.0001973946
    8    1   12    8       -0.0001428490
    8    1   13    8       -0.0000000633
    8    1    9    9       -0.0007109247
    8    1   10    9        0.0000000000
    8    1   11    9        0.0000000048
    8    1   12    9       -0.0000000022
    8    1   13    9        0.0000001485
    8    1   10   10       -0.0007109247
    8    1   11   10       -0.0000000753
    8    1   12   10        0.0000000264
    8    1   13   10        0.0000006676
    8    1   11   11       -0.0002100574
    8    1   12   11       -0.0001592966
    8    1   13   11       -0.0000000602
    8    1   12   12       -0.0002058944
    8    1   13   12        0.0000000428
    8    1   13   13       -0.0003180457
    9    1    9    1        0.0013068354
    9    1   10    1        0.0000000000
    9    1   11    1        0.0000000008
    9    1   12    1        0.0000000053
    9    1   13    1       -0.0000005804
    9    1    2    2        0.0000000126
    9    1    3    2        0.0000000806
    9    1    4    2        0.0033379010
    9    1    5    2       -0.0023788942
    9    1    6    2       -0.0000000378
    9    1    7    2       -0.0000014897
    9    1    8    2        0.0000000343
    9    1    9    2       -0.0025509299
    9    1   10    2       -0.0000000000
    9    1   11    2        0.0000000017
    9    1   12    2        0.0000000086
    9    1   13    2        0.0000004181
    9    1    3    3       -0.0000007430
    9    1    4    3        0.0001246041
    9    1    5    3       -0.0000888043
    9    1    6    3        0.0000004216
    9    1    7    3        0.0000125601
    9    1    8    3       -0.0000000046
    9    1    9    3       -0.0012112952
    9    1   10    3       -0.0000000001
    9    1   11    3       -0.0000001312
    9    1   12    3        0.0000000964
    9    1   13    3        0.0000001682
    9    1    4    4       -0.0000006639
    9    1    5    4       -0.0000002982
    9    1    6    4        0.0011024302
    9    1    7    4       -0.0005157757
    9    1    8    4       -0.0001404730
    9    1    9    4       -0.0000012502
    9    1   10    4       -0.0000020950
    9    1   11    4       -0.0001101506
    9    1   12    4       -0.0008883675
    9    1   13    4       -0.0015361501
    9    1    5    5        0.0000005987
    9    1    6    5       -0.0007856926
    9    1    7    5       -0.0009541686
    9    1    8    5        0.0001001137
    9    1    9    5       -0.0000020055
    9    1   10    5        0.0000009612
    9    1   11    5        0.0000785063
    9    1   12    5        0.0006332554
    9    1   13    5        0.0008297022
    9    1    6    6       -0.0000005069
    9    1    7    6       -0.0000061999
    9    1    8    6       -0.0000000081
    9    1    9    6       -0.0009858041
    9    1   10    6        0.0000000000
    9    1   11    6       -0.0000002281
    9    1   12    6       -0.0000004066
    9    1   13    6        0.0000012100
    9    1    7    7       -0.0000011190
    9    1    8    7        0.0000041303
    9    1    9    7       -0.0000641953
    9    1   10    7        0.0005165800
    9    1   11    7       -0.0000024833
    9    1   12    7        0.0000057890
    9    1   13    7        0.0000007225
    9    1    8    8       -0.0000008681
    9    1    9    8       -0.0002122142
    9    1   10    8        0.0000000002
    9    1   11    8       -0.0000000286
    9    1   12    8       -0.0000001292
    9    1   13    8        0.0000001558
    9    1    9    9        0.0000005062
    9    1   10    9       -0.0000081564
    9    1   11    9        0.0002989032
    9    1   12    9        0.0009051134
    9    1   13    9       -0.0001683618
    9    1   10   10       -0.0000015031
    9    1   11   10        0.0000000001
    9    1   12   10        0.0000000101
    9    1   13   10       -0.0000204377
    9    1   11   11       -0.0000009441
    9    1   12   11        0.0000001401
    9    1   13   11        0.0000001122
    9    1   12   12       -0.0000010621
    9    1   13   12       -0.0000003034
    9    1   13   13       -0.0000016036
   10    1   10    1        0.0013068353
   10    1   11    1       -0.0000000152
   10    1   12    1       -0.0000000417
   10    1   13    1       -0.0000023228
   10    1    2    2       -0.0000001659
   10    1    3    2       -0.0000012924
   10    1    4    2        0.0023788940
   10    1    5    2        0.0033379007
   10    1    6    2        0.0000006133
   10    1    7    2       -0.0000000922
   10    1    8    2       -0.0000005534
   10    1    9    2       -0.0000000000
   10    1   10    2       -0.0025509300
   10    1   11    2       -0.0000000201
   10    1   12    2       -0.0000001641
   10    1   13    2        0.0000016416
   10    1    3    3        0.0000120106
   10    1    4    3        0.0000888045
   10    1    5    3        0.0001246044
   10    1    6    3       -0.0000068090
   10    1    7    3        0.0000007774
   10    1    8    3        0.0000000772
   10    1    9    3       -0.0000000001
   10    1   10    3       -0.0012112936
   10    1   11    3        0.0000021239
   10    1   12    3       -0.0000015690
   10    1   13    3        0.0000008252
   10    1    4    4        0.0000005376
   10    1    5    4       -0.0000000758
   10    1    6    4        0.0007856926
   10    1    7    4       -0.0009541688
   10    1    8    4       -0.0001001144
   10    1    9    4        0.0000019736
   10    1   10    4        0.0000012338
   10    1   11    4       -0.0000785243
   10    1   12    4       -0.0006340324
   10    1   13    4        0.0008291411
   10    1    5    5        0.0000005596
   10    1    6    5        0.0011024296
   10    1    7    5        0.0005157763
   10    1    8    5       -0.0001404732
   10    1    9    5       -0.0000015883
   10    1   10    5        0.0000019527
   10    1   11    5       -0.0001101840
   10    1   12    5       -0.0008898036
   10    1   13    5        0.0015353559
   10    1    6    6        0.0000081963
   10    1    7    6       -0.0000003838
   10    1    8    6        0.0000001298
   10    1    9    6        0.0000000000
   10    1   10    6       -0.0009858053
   10    1   11    6        0.0000036877
   10    1   12    6        0.0000064894
   10    1   13    6        0.0000048149
   10    1    7    7        0.0000180829
   10    1    8    7        0.0000002557
   10    1    9    7        0.0005165788
   10    1   10    7        0.0000641951
   10    1   11    7       -0.0000001539
   10    1   12    7        0.0000003576
   10    1   13    7        0.0000002978
   10    1    8    8        0.0000140264
   10    1    9    8        0.0000000002
   10    1   10    8       -0.0002122149
   10    1   11    8        0.0000004605
   10    1   12    8        0.0000020797
   10    1   13    8        0.0000006430
   10    1    9    9        0.0000082714
   10    1   10    9       -0.0000004909
   10    1   11    9        0.0000000002
   10    1   12    9        0.0000000101
   10    1   13    9       -0.0000204256
   10    1   10   10        0.0000079044
   10    1   11   10        0.0002989008
   10    1   12   10        0.0009049550
   10    1   13   10        0.0001691519
   10    1   11   11        0.0000152533
   10    1   12   11       -0.0000022729
   10    1   13   11        0.0000004801
   10    1   12   12        0.0000172026
   10    1   13   12       -0.0000012248
   10    1   13   13        0.0000041397
   11    1   11    1        0.0007136978
   11    1   12    1        0.0008363765
   11    1   13    1        0.0000003527
   11    1    2    2        0.0060191556
   11    1    3    2        0.0015373527
   11    1    4    2        0.0000000087
   11    1    5    2        0.0000000165
   11    1    6    2        0.0006277422
   11    1    7    2        0.0000000001
   11    1    8    2        0.0008740532
   11    1    9    2        0.0000000013
   11    1   10    2       -0.0000000138
   11    1   11    2       -0.0009171096
   11    1   12    2       -0.0001465493
   11    1   13    2       -0.0000000402
   11    1    3    3        0.0010781550
   11    1    4    3        0.0000000901
   11    1    5    3        0.0000001447
   11    1    6    3        0.0005197741
   11    1    7    3        0.0000000000
   11    1    8    3        0.0008367307
   11    1    9    3       -0.0000000117
   11    1   10    3        0.0000001928
   11    1   11    3       -0.0003533417
   11    1   12    3       -0.0002236573
   11    1   13    3       -0.0000000774
   11    1    4    4        0.0034214022
   11    1    5    4        0.0000000082
   11    1    6    4       -0.0000000458
   11    1    7    4        0.0000001427
   11    1    8    4        0.0000000476
   11    1    9    4       -0.0015524008
   11    1   10    4       -0.0011063851
   11    1   11    4       -0.0000001252
   11    1   12    4        0.0000000155
   11    1   13    4        0.0000006855
   11    1    5    5        0.0034214103
   11    1    6    5       -0.0000000726
   11    1    7    5       -0.0000000886
   11    1    8    5        0.0000000767
   11    1    9    5        0.0011063834
   11    1   10    5       -0.0015524040
   11    1   11    5       -0.0000002022
   11    1   12    5        0.0000000259
   11    1   13    5        0.0000005231
   11    1    6    6        0.0012772915
   11    1    7    6        0.0000000001
   11    1    8    6        0.0001197470
   11    1    9    6        0.0000000007
   11    1   10    6       -0.0000000090
   11    1   11    6       -0.0005221577
   11    1   12    6       -0.0008843287
   11    1   13    6       -0.0000003721
   11    1    7    7        0.0006908527
   11    1    8    7        0.0000000000
   11    1    9    7       -0.0000000452
   11    1   10    7       -0.0000000030
   11    1   11    7       -0.0000000001
   11    1   12    7       -0.0000000001
   11    1   13    7        0.0000000678
   11    1    8    8        0.0002751229
   11    1    9    8        0.0000000055
   11    1   10    8       -0.0000000885
   11    1   11    8       -0.0004817876
   11    1   12    8        0.0001260224
   11    1   13    8        0.0000000705
   11    1    9    9        0.0018200910
   11    1   10    9       -0.0000000005
   11    1   11    9       -0.0000000076
   11    1   12    9        0.0000000058
   11    1   13    9       -0.0000004231
   11    1   10   10        0.0018200990
   11    1   11   10        0.0000001148
   11    1   12   10       -0.0000000705
   11    1   13   10       -0.0000019596
   11    1   11   11        0.0005811340
   11    1   12   11        0.0003454265
   11    1   13   11        0.0000001186
   11    1   12   12        0.0010415762
   11    1   13   12       -0.0000000613
   11    1   13   13        0.0011412873
   12    1   12    1        0.0041386584
   12    1   13    1        0.0000016003
   12    1    2    2        0.0021680681
   12    1    3    2        0.0005625795
   12    1    4    2        0.0000000474
   12    1    5    2        0.0000000663
   12    1    6    2       -0.0000376599
   12    1    7    2       -0.0000000001
   12    1    8    2        0.0000260117
   12    1    9    2       -0.0000000041
   12    1   10    2        0.0000000108
   12    1   11    2       -0.0005846255
   12    1   12    2        0.0003072169
   12    1   13    2        0.0000003147
   12    1    3    3        0.0008841537
   12    1    4    3       -0.0000000658
   12    1    5    3       -0.0000001052
   12    1    6    3        0.0000043336
   12    1    7    3        0.0000000001
   12    1    8    3        0.0007948521
   12    1    9    3       -0.0000000012
   12    1   10    3       -0.0000000146
   12    1   11    3       -0.0001770551
   12    1   12    3       -0.0000417820
   12    1   13    3       -0.0000001605
   12    1    4    4        0.0032033119
   12    1    5    4        0.0000003442
   12    1    6    4        0.0000000041
   12    1    7    4       -0.0000000807
   12    1    8    4       -0.0000000165
   12    1    9    4       -0.0013769667
   12    1   10    4       -0.0009814401
   12    1   11    4       -0.0000000317
   12    1   12    4       -0.0000000274
   12    1   13    4        0.0000014507
   12    1    5    5        0.0032036492
   12    1    6    5        0.0000000009
   12    1    7    5        0.0000000485
   12    1    8    5       -0.0000000256
   12    1    9    5        0.0009813645
   12    1   10    5       -0.0013771060
   12    1   11    5       -0.0000000522
   12    1   12    5       -0.0000000366
   12    1   13    5        0.0000012829
   12    1    6    6        0.0005597206
   12    1    7    6       -0.0000000002
   12    1    8    6       -0.0001223223
   12    1    9    6        0.0000000004
   12    1   10    6       -0.0000000283
   12    1   11    6       -0.0000651353
   12    1   12    6       -0.0001200474
   12    1   13    6        0.0000000751
   12    1    7    7        0.0009788325
   12    1    8    7        0.0000000002
   12    1    9    7       -0.0000000082
   12    1   10    7        0.0000000005
   12    1   11    7       -0.0000000001
   12    1   12    7        0.0000000002
   12    1   13    7        0.0000003291
   12    1    8    8        0.0001567786
   12    1    9    8       -0.0000000034
   12    1   10    8        0.0000000553
   12    1   11    8       -0.0004735028
   12    1   12    8        0.0003710761
   12    1   13    8        0.0000000679
   12    1    9    9        0.0017105497
   12    1   10    9       -0.0000000209
   12    1   11    9       -0.0000000024
   12    1   12    9        0.0000000047
   12    1   13    9       -0.0000003441
   12    1   10   10        0.0017108866
   12    1   11   10        0.0000000402
   12    1   12   10       -0.0000000270
   12    1   13   10       -0.0000012670
   12    1   11   11        0.0005316889
   12    1   12   11        0.0001341437
   12    1   13   11        0.0000000644
   12    1   12   12        0.0004322388
   12    1   13   12       -0.0000004453
   12    1   13   13        0.0013592405
   13    1   13    1        0.0001286419
   13    1    2    2        0.0000009752
   13    1    3    2        0.0000002474
   13    1    4    2       -0.0000043254
   13    1    5    2       -0.0000037315
   13    1    6    2        0.0000000229
   13    1    7    2       -0.0000001520
   13    1    8    2        0.0000000157
   13    1    9    2        0.0000008679
   13    1   10    2        0.0000032236
   13    1   11    2       -0.0000002424
   13    1   12    2        0.0000002998
   13    1   13    2       -0.0004563921
   13    1    3    3        0.0000003454
   13    1    4    3        0.0000005952
   13    1    5    3        0.0000008297
   13    1    6    3        0.0000000333
   13    1    7    3        0.0000001757
   13    1    8    3        0.0000003605
   13    1    9    3        0.0000003631
   13    1   10    3        0.0000048533
   13    1   11    3       -0.0000000913
   13    1   12    3       -0.0000001610
   13    1   13    3        0.0003530679
   13    1    4    4        0.0003627690
   13    1    5    4       -0.0007358736
   13    1    6    4       -0.0000028148
   13    1    7    4        0.0000010723
   13    1    8    4        0.0000002861
   13    1    9    4       -0.0001495032
   13    1   10    4        0.0000797735
   13    1   11    4       -0.0000000354
   13    1   12    4        0.0000015467
   13    1   13    4       -0.0000010585
   13    1    5    5       -0.0003600003
   13    1    6    5       -0.0000026357
   13    1    7    5       -0.0000000691
   13    1    8    5        0.0000002593
   13    1    9    5        0.0000806225
   13    1   10    5        0.0001483119
   13    1   11    5        0.0000000553
   13    1   12    5        0.0000011306
   13    1   13    5       -0.0000041206
   13    1    6    6        0.0000002237
   13    1    7    6       -0.0000001765
   13    1    8    6       -0.0000000564
   13    1    9    6        0.0000004750
   13    1   10    6       -0.0000002314
   13    1   11    6       -0.0000000261
   13    1   12    6        0.0000000080
   13    1   13    6       -0.0002506555
   13    1    7    7        0.0000003935
   13    1    8    7        0.0000001227
   13    1    9    7       -0.0000031914
   13    1   10    7       -0.0000005260
   13    1   11    7       -0.0000001558
   13    1   12    7        0.0000001700
   13    1   13    7       -0.0000000024
   13    1    8    8        0.0000000126
   13    1    9    8        0.0000000091
   13    1   10    8       -0.0000004043
   13    1   11    8       -0.0000002059
   13    1   12    8        0.0000000380
   13    1   13    8        0.0002145838
   13    1    9    9        0.0003613553
   13    1   10    9        0.0000449337
   13    1   11    9       -0.0000001657
   13    1   12    9       -0.0000003745
   13    1   13    9        0.0000000543
   13    1   10   10       -0.0003599166
   13    1   11   10        0.0000006140
   13    1   12   10       -0.0000032433
   13    1   13   10       -0.0000001412
   13    1   11   11        0.0000001677
   13    1   12   11        0.0000001255
   13    1   13   11       -0.0001137240
   13    1   12   12        0.0000000270
   13    1   13   12        0.0000869657
   13    1   13   13        0.0000006611
    2    2    2    2        0.2005369392
    2    2    3    2        0.0271995170
    2    2    4    2        0.0000008043
    2    2    5    2        0.0000012904
    2    2    6    2        0.0001063781
    2    2    7    2       -0.0000000003
    2    2    8    2        0.0155841621
    2    2    9    2       -0.0000000211
    2    2   10    2        0.0000002608
    2    2   11    2       -0.0108577318
    2    2   12    2        0.0085477216
    2    2   13    2        0.0000040381
    2    2    3    3        0.0847462256
    2    2    4    3       -0.0000011178
    2    2    5    3       -0.0000017933
    2    2    6    3        0.0117328946
    2    2    7    3        0.0000000011
    2    2    8    3        0.0182696739
    2    2    9    3       -0.0000000203
    2    2   10    3        0.0000002209
    2    2   11    3       -0.0145407592
    2    2   12    3       -0.0008001745
    2    2   13    3       -0.0000000693
    2    2    4    4        0.1401115880
    2    2    5    4       -0.0000000004
    2    2    6    4        0.0000001772
    2    2    7    4       -0.0000006335
    2    2    8    4       -0.0000001980
    2    2    9    4       -0.0289042553
    2    2   10    4       -0.0205998215
    2    2   11    4       -0.0000011255
    2    2   12    4       -0.0000001864
    2    2   13    4       -0.0000011902
    2    2    5    5        0.1401115878
    2    2    6    5        0.0000002843
    2    2    7    5        0.0000003949
    2    2    8    5       -0.0000003111
    2    2    9    5        0.0205998212
    2    2   10    5       -0.0289042552
    2    2   11    5       -0.0000018279
    2    2   12    5       -0.0000003030
    2    2   13    5       -0.0000004365
    2    2    6    6        0.1016773697
    2    2    7    6        0.0000000023
    2    2    8    6        0.0002394737
    2    2    9    6       -0.0000000453
    2    2   10    6        0.0000006609
    2    2   11    6       -0.0114890419
    2    2   12    6       -0.0275205347
    2    2   13    6       -0.0000122541
    2    2    7    7        0.0813734711
    2    2    8    7        0.0000000024
    2    2    9    7       -0.0000000392
    2    2   10    7       -0.0000000024
    2    2   11    7       -0.0000000013
    2    2   12    7       -0.0000000006
    2    2   13    7        0.0000057942
    2    2    8    8        0.0700423510
    2    2    9    8       -0.0000000230
    2    2   10    8        0.0000003797
    2    2   11    8       -0.0054258570
    2    2   12    8        0.0037702754
    2    2   13    8        0.0000025247
    2    2    9    9        0.0947758989
    2    2   10    9        0.0000000001
    2    2   11    9       -0.0000000371
    2    2   12    9        0.0000000460
    2    2   13    9       -0.0000077519
    2    2   10   10        0.0947758983
    2    2   11   10        0.0000005052
    2    2   12   10       -0.0000002440
    2    2   13   10       -0.0000294257
    2    2   11   11        0.0751212682
    2    2   12   11        0.0071532463
    2    2   13   11        0.0000028083
    2    2   12   12        0.0868954946
    2    2   13   12       -0.0000045223
    2    2   13   13        0.0958366639
    3    2    3    2        0.0079053076
    3    2    4    2       -0.0000048378
    3    2    5    2       -0.0000077616
    3    2    6    2        0.0030651483
    3    2    7    2        0.0000000003
    3    2    8    2        0.0047798778
    3    2    9    2       -0.0000001313
    3    2   10    2        0.0000020920
    3    2   11    2       -0.0041761019
    3    2   12    2        0.0000728951
    3    2   13    2        0.0000001337
    3    2    3    3        0.0023782693
    3    2    4    3        0.0000053177
    3    2    5    3        0.0000085315
    3    2    6    3        0.0007799204
    3    2    7    3        0.0000000001
    3    2    8    3        0.0012702039
    3    2    9    3       -0.0000007276
    3    2   10    3        0.0000117371
    3    2   11    3       -0.0029545114
    3    2   12    3       -0.0004502000
    3    2   13    3       -0.0000001568
    3    2    4    4        0.0116836320
    3    2    5    4       -0.0000000056
    3    2    6    4       -0.0000013263
    3    2    7    4        0.0000075452
    3    2    8    4        0.0000028761
    3    2    9    4       -0.0067609652
    3    2   10    4       -0.0048184894
    3    2   11    4       -0.0000009724
    3    2   12    4        0.0000013255
    3    2   13    4        0.0000003814
    3    2    5    5        0.0116836266
    3    2    6    5       -0.0000021279
    3    2    7    5       -0.0000047029
    3    2    8    5        0.0000046158
    3    2    9    5        0.0048184844
    3    2   10    5       -0.0067609747
    3    2   11    5       -0.0000015652
    3    2   12    5        0.0000021417
    3    2   13    5       -0.0000043883
    3    2    6    6        0.0037873480
    3    2    7    6        0.0000000004
    3    2    8    6        0.0005889427
    3    2    9    6       -0.0000000395
    3    2   10    6        0.0000006328
    3    2   11    6       -0.0006088650
    3    2   12    6       -0.0034279663
    3    2   13    6       -0.0000015156
    3    2    7    7        0.0003860147
    3    2    8    7        0.0000000006
    3    2    9    7       -0.0000013606
    3    2   10    7       -0.0000000842
    3    2   11    7       -0.0000000001
    3    2   12    7        0.0000000004
    3    2   13    7        0.0000016348
    3    2    8    8        0.0023330443
    3    2    9    8        0.0000000753
    3    2   10    8       -0.0000012168
    3    2   11    8       -0.0007550038
    3    2   12    8       -0.0000189561
    3    2   13    8        0.0000000395
    3    2    9    9        0.0053488368
    3    2   10    9        0.0000000016
    3    2   11    9       -0.0000003571
    3    2   12    9        0.0000001906
    3    2   13    9       -0.0000001744
    3    2   10   10        0.0053488128
    3    2   11   10        0.0000057516
    3    2   12   10       -0.0000030175
    3    2   13   10       -0.0000163191
    3    2   11   11        0.0018412489
    3    2   12   11        0.0005081759
    3    2   13   11        0.0000002006
    3    2   12   12        0.0034196806
    3    2   13   12        0.0000006231
    3    2   13   13        0.0016977830
    4    2    4    2        0.0229438582
    4    2    5    2       -0.0000000016
    4    2    6    2        0.0000022974
    4    2    7    2       -0.0000097254
    4    2    8    2       -0.0000021625
    4    2    9    2       -0.0094376827
    4    2   10    2       -0.0067261569
    4    2   11    2       -0.0000007838
    4    2   12    2       -0.0000008960
    4    2   13    2       -0.0000011484
    4    2    3    3        0.0000499529
    4    2    4    3       -0.0030976334
    4    2    5    3       -0.0000000027
    4    2    6    3       -0.0000237416
    4    2    7    3        0.0000822931
    4    2    8    3        0.0000044326
    4    2    9    3       -0.0062940104
    4    2   10    3       -0.0044857021
    4    2   11    3        0.0000168932
    4    2   12    3       -0.0000047527
    4    2   13    3        0.0000056785
    4    2    4    4       -0.0000013649
    4    2    5    4       -0.0000016178
    4    2    6    4        0.0025026093
    4    2    7    4       -0.0064109863
    4    2    8    4       -0.0033795961
    4    2    9    4        0.0000001282
    4    2   10    4       -0.0000079738
    4    2   11    4        0.0007627590
    4    2   12    4       -0.0027951763
    4    2   13    4       -0.0054932604
    4    2    5    5        0.0000073639
    4    2    6    5        0.0000000020
    4    2    7    5       -0.0031447905
    4    2    8    5       -0.0000000013
    4    2    9    5       -0.0000190909
    4    2   10    5        0.0000153573
    4    2   11    5       -0.0000001244
    4    2   12    5       -0.0000052306
    4    2   13    5        0.0111902054
    4    2    6    6        0.0000288759
    4    2    7    6       -0.0000324477
    4    2    8    6       -0.0000018852
    4    2    9    6       -0.0029901606
    4    2   10    6       -0.0021310556
    4    2   11    6        0.0000090698
    4    2   12    6        0.0000253562
    4    2   13    6        0.0000263247
    4    2    7    7        0.0000731363
    4    2    8    7        0.0000322279
    4    2    9    7        0.0013520391
    4    2   10    7        0.0025012322
    4    2   11    7       -0.0000024682
    4    2   12    7        0.0000400182
    4    2   13    7        0.0000131989
    4    2    8    8        0.0000481210
    4    2    9    8       -0.0009287405
    4    2   10    8       -0.0006619033
    4    2   11    8       -0.0000014163
    4    2   12    8        0.0000085225
    4    2   13    8        0.0000027714
    4    2    9    9        0.0000404149
    4    2   10    9       -0.0000546600
    4    2   11    9       -0.0001041706
    4    2   12    9        0.0023200352
    4    2   13    9       -0.0033359340
    4    2   10   10        0.0000282731
    4    2   11   10       -0.0000742961
    4    2   12   10        0.0016515255
    4    2   13   10        0.0018076196
    4    2   11   11        0.0000610750
    4    2   12   11       -0.0000095678
    4    2   13   11       -0.0000004640
    4    2   12   12        0.0000675599
    4    2   13   12       -0.0000020568
    4    2   13   13        0.0000030937
    5    2    5    2        0.0229438566
    5    2    6    2        0.0000036858
    5    2    7    2        0.0000060618
    5    2    8    2       -0.0000034672
    5    2    9    2        0.0067261575
    5    2   10    2       -0.0094376814
    5    2   11    2       -0.0000012648
    5    2   12    2       -0.0000014407
    5    2   13    2       -0.0000007411
    5    2    3    3        0.0000801427
    5    2    4    3       -0.0000000028
    5    2    5    3       -0.0030976361
    5    2    6    3       -0.0000380902
    5    2    7    3       -0.0000512932
    5    2    8    3        0.0000071128
    5    2    9    3        0.0044856905
    5    2   10    3       -0.0062940319
    5    2   11    3        0.0000270980
    5    2   12    3       -0.0000076097
    5    2   13    3        0.0000040263
    5    2    4    4        0.0000070715
    5    2    5    4        0.0000019479
    5    2    6    4        0.0000000020
    5    2    7    4       -0.0031447876
    5    2    8    4       -0.0000000013
    5    2    9    4        0.0000164791
    5    2   10    4        0.0000175590
    5    2   11    4       -0.0000001244
    5    2   12    4       -0.0000052306
    5    2   13    4        0.0111902325
    5    2    5    5        0.0000025528
    5    2    6    5        0.0025026093
    5    2    7    5        0.0064109871
    5    2    8    5       -0.0033795951
    5    2    9    5       -0.0000001433
    5    2   10    5        0.0000082353
    5    2   11    5        0.0007626369
    5    2   12    5       -0.0028003053
    5    2   13    5        0.0054904538
    5    2    6    6        0.0000463275
    5    2    7    6        0.0000202246
    5    2    8    6       -0.0000030244
    5    2    9    6        0.0021310612
    5    2   10    6       -0.0029901489
    5    2   11    6        0.0000145491
    5    2   12    6        0.0000407393
    5    2   13    6        0.0000228753
    5    2    7    7        0.0001173374
    5    2    8    7       -0.0000200872
    5    2    9    7        0.0025012442
    5    2   10    7       -0.0013520315
    5    2   11    7        0.0000015373
    5    2   12    7       -0.0000249573
    5    2   13    7       -0.0000035726
    5    2    8    8        0.0000772040
    5    2    9    8        0.0006619066
    5    2   10    8       -0.0009287387
    5    2   11    8       -0.0000022728
    5    2   12    8        0.0000136799
    5    2   13    8        0.0000020349
    5    2    9    9        0.0000496267
    5    2   10    9        0.0000338319
    5    2   11    9        0.0000742490
    5    2   12    9       -0.0016532011
    5    2   13    9        0.0018061786
    5    2   10   10        0.0000604629
    5    2   11   10       -0.0001042578
    5    2   12   10        0.0023169298
    5    2   13   10        0.0033380993
    5    2   11   11        0.0000979865
    5    2   12   11       -0.0000153491
    5    2   13   11       -0.0000004572
    5    2   12   12        0.0001083807
    5    2   13   12       -0.0000015768
    5    2   13   13        0.0000117239
    6    2    6    2        0.0085425685
    6    2    7    2        0.0000000008
    6    2    8    2        0.0010148814
    6    2    9    2        0.0000000507
    6    2   10    2       -0.0000008393
    6    2   11    2       -0.0032234477
    6    2   12    2       -0.0065564747
    6    2   13    2       -0.0000028655
    6    2    3    3       -0.0014496187
    6    2    4    3       -0.0000024604
    6    2    5    3       -0.0000039475
    6    2    6    3       -0.0032729127
    6    2    7    3       -0.0000000001
    6    2    8    3       -0.0009188425
    6    2    9    3        0.0000003050
    6    2   10    3       -0.0000049311
    6    2   11    3       -0.0010601716
    6    2   12    3       -0.0005639362
    6    2   13    3       -0.0000002461
    6    2    4    4        0.0006578516
    6    2    5    4        0.0000000050
    6    2    6    4        0.0000012436
    6    2    7    4       -0.0000033227
    6    2    8    4       -0.0000012995
    6    2    9    4       -0.0032115731
    6    2   10    4       -0.0022888561
    6    2   11    4        0.0000005572
    6    2   12    4       -0.0000005005
    6    2   13    4        0.0000197018
    6    2    5    5        0.0006578558
    6    2    6    5        0.0000019952
    6    2    7    5        0.0000020711
    6    2    8    5       -0.0000020844
    6    2    9    5        0.0022888605
    6    2   10    5       -0.0032115645
    6    2   11    5        0.0000008916
    6    2   12    5       -0.0000007654
    6    2   13    5        0.0000191236
    6    2    6    6       -0.0047311925
    6    2    7    6       -0.0000000005
    6    2    8    6        0.0002467682
    6    2    9    6       -0.0000000102
    6    2   10    6        0.0000001884
    6    2   11    6        0.0043925476
    6    2   12    6        0.0028556238
    6    2   13    6        0.0000014999
    6    2    7    7       -0.0010835686
    6    2    8    7        0.0000000014
    6    2    9    7        0.0000012771
    6    2   10    7        0.0000000791
    6    2   11    7        0.0000000004
    6    2   12    7        0.0000000022
    6    2   13    7        0.0000032997
    6    2    8    8        0.0017701396
    6    2    9    8       -0.0000000533
    6    2   10    8        0.0000008627
    6    2   11    8        0.0005903734
    6    2   12    8       -0.0008323511
    6    2   13    8       -0.0000003897
    6    2    9    9        0.0009557062
    6    2   10    9       -0.0000000012
    6    2   11    9        0.0000001228
    6    2   12    9       -0.0000001543
    6    2   13    9        0.0000004069
    6    2   10   10        0.0009557252
    6    2   11   10       -0.0000019929
    6    2   12   10        0.0000024382
    6    2   13   10        0.0000084238
    6    2   11   11       -0.0004589987
    6    2   12   11       -0.0023099213
    6    2   13   11       -0.0000010559
    6    2   12   12       -0.0015675521
    6    2   13   12        0.0000000478
    6    2   13   13       -0.0019351420
    7    2    7    2        0.0013764904
    7    2    8    2        0.0000000002
    7    2    9    2        0.0000023786
    7    2   10    2        0.0000001472
    7    2   11    2       -0.0000000003
    7    2   12    2       -0.0000000006
    7    2   13    2        0.0000003963
    7    2    3    3       -0.0000000002
    7    2    4    3        0.0000107812
    7    2    5    3       -0.0000067199
    7    2    6    3       -0.0000000001
    7    2    7    3       -0.0025231728
    7    2    8    3       -0.0000000001
    7    2    9    3        0.0000127403
    7    2   10    3        0.0000007886
    7    2   11    3       -0.0000000001
    7    2   12    3        0.0000000001
    7    2   13    3        0.0000001686
    7    2    4    4       -0.0022502568
    7    2    5    4       -0.0011038209
    7    2    6    4       -0.0000025466
    7    2    7    4        0.0000062817
    7    2    8    4        0.0000060667
    7    2    9    4        0.0006231279
    7    2   10    4        0.0011527711
    7    2   11    4       -0.0000018425
    7    2   12    4        0.0000032265
    7    2   13    4        0.0000153070
    7    2    5    5        0.0022502568
    7    2    6    5        0.0000015873
    7    2    7    5        0.0000100782
    7    2    8    5       -0.0000037812
    7    2    9    5        0.0011527719
    7    2   10    5       -0.0006231284
    7    2   11    5        0.0000011479
    7    2   12    5       -0.0000020145
    7    2   13    5       -0.0000083862
    7    2    6    6       -0.0000000007
    7    2    7    6        0.0003230337
[...]
   10    7   10   10        0.0000025568
   10    7   11   10       -0.0001599713
   10    7   12   10        0.0000827875
   10    7   13   10       -0.0000001994
   10    7   11   11        0.0000020150
   10    7   12   11       -0.0000006513
   10    7   13   11       -0.0000000535
   10    7   12   12        0.0000022586
   10    7   13   12        0.0000007021
   10    7   13   13       -0.0000005033
   11    7   11    7        0.0020975150
   11    7   12    7       -0.0008234325
   11    7   13    7       -0.0000003412
   11    7    8    8       -0.0000000003
   11    7    9    8       -0.0000088468
   11    7   10    8       -0.0000005475
   11    7   11    8        0.0000000008
   11    7   12    8       -0.0000000007
   11    7   13    8       -0.0000006493
   11    7    9    9        0.0000442285
   11    7   10    9       -0.0003558957
   11    7   11    9       -0.0000199920
   11    7   12    9       -0.0000055892
   11    7   13    9       -0.0000145504
   11    7   10   10       -0.0000442290
   11    7   11   10       -0.0000012368
   11    7   12   10       -0.0000003483
   11    7   13   10       -0.0000002046
   11    7   11   11       -0.0000000002
   11    7   12   11        0.0000000006
   11    7   13   11        0.0000016034
   11    7   12   12       -0.0000000015
   11    7   13   12       -0.0000010257
   11    7   13   13        0.0000000403
   12    7   12    7        0.0040779674
   12    7   13    7        0.0000012775
   12    7    8    8        0.0000000022
   12    7    9    8        0.0000101402
   12    7   10    8        0.0000006282
   12    7   11    8       -0.0000000002
   12    7   12    8        0.0000000002
   12    7   13    8        0.0000009742
   12    7    9    9        0.0001349845
   12    7   10    9       -0.0010862206
   12    7   11    9       -0.0000217529
   12    7   12    9       -0.0000006100
   12    7   13    9       -0.0000638748
   12    7   10   10       -0.0001349847
   12    7   11   10       -0.0000013422
   12    7   12   10       -0.0000000341
   12    7   13   10       -0.0000054453
   12    7   11   11        0.0000000004
   12    7   12   11       -0.0000000023
   12    7   13   11       -0.0000022103
   12    7   12   12       -0.0000000012
   12    7   13   12       -0.0000010839
   12    7   13   13       -0.0000000178
   13    7   13    7        0.0018924507
   13    7    8    8        0.0000039283
   13    7    9    8       -0.0000048405
   13    7   10    8       -0.0000005150
   13    7   11    8        0.0000006697
   13    7   12    8        0.0000004455
   13    7   13    8       -0.0000000142
   13    7    9    9        0.0000012418
   13    7   10    9       -0.0000007122
   13    7   11    9       -0.0000149716
   13    7   12    9        0.0000019244
   13    7   13    9       -0.0000144776
   13    7   10   10        0.0000011231
   13    7   11   10       -0.0000022037
   13    7   12   10        0.0000004489
   13    7   13   10        0.0000035826
   13    7   11   11        0.0000025457
   13    7   12   11       -0.0000015628
   13    7   13   11        0.0000000008
   13    7   12   12        0.0000023559
   13    7   13   12        0.0000000247
   13    7   13   13        0.0000019859
    8    8    8    8        0.0642750189
    8    8    9    8       -0.0000048886
    8    8   10    8        0.0000789941
    8    8   11    8        0.0013939156
    8    8   12    8        0.0006039023
    8    8   13    8        0.0000005358
    8    8    9    9        0.0606085459
    8    8   10    9       -0.0000000563
    8    8   11    9        0.0000026939
    8    8   12    9       -0.0000022013
    8    8   13    9       -0.0000078146
    8    8   10   10        0.0606094309
    8    8   11   10       -0.0000435385
    8    8   12   10        0.0000355348
    8    8   13   10        0.0001363542
    8    8   11   11        0.0579710681
    8    8   12   11        0.0003196189
    8    8   13   11        0.0000003418
    8    8   12   12        0.0595370226
    8    8   13   12       -0.0000013075
    8    8   13   13        0.0627030760
    9    8    9    8        0.0031734062
    9    8   10    8       -0.0000000253
    9    8   11    8        0.0000002449
    9    8   12    8       -0.0000005467
    9    8   13    8       -0.0000002832
    9    8    9    9        0.0000017540
    9    8   10    9       -0.0000162470
    9    8   11    9        0.0000719979
    9    8   12    9       -0.0004756765
    9    8   13    9       -0.0004465200
    9    8   10   10       -0.0000037949
    9    8   11   10        0.0000000083
    9    8   12   10        0.0000000189
    9    8   13   10       -0.0000554706
    9    8   11   11       -0.0000022472
    9    8   12   11       -0.0000002027
    9    8   13   11        0.0000006389
    9    8   12   12       -0.0000022609
    9    8   13   12        0.0000004555
    9    8   13   13       -0.0000012858
   10    8   10    8        0.0031738099
   10    8   11    8       -0.0000039650
   10    8   12    8        0.0000087756
   10    8   13    8        0.0000226583
   10    8    9    9        0.0000045340
   10    8   10    9       -0.0000025232
   10    8   11    9        0.0000000084
   10    8   12    9        0.0000000188
   10    8   13    9       -0.0000554510
   10    8   10   10        0.0000285585
   10    8   11   10        0.0000718661
   10    8   12   10       -0.0004759723
   10    8   13   10        0.0004460368
   10    8   11   11        0.0000363137
   10    8   12   11        0.0000032269
   10    8   13   11        0.0000063030
   10    8   12   12        0.0000364978
   10    8   13   12       -0.0000004783
   10    8   13   13        0.0000032950
   11    8   11    8        0.0024969076
   11    8   12    8       -0.0005908993
   11    8   13    8       -0.0000003168
   11    8    9    9       -0.0016923785
   11    8   10    9        0.0000000243
   11    8   11    9       -0.0000012937
   11    8   12    9       -0.0000002655
   11    8   13    9        0.0000017356
   11    8   10   10       -0.0016927610
   11    8   11   10        0.0000209099
   11    8   12   10        0.0000042300
   11    8   13   10       -0.0000074332
   11    8   11   11       -0.0006174698
   11    8   12   11       -0.0003684707
   11    8   13   11        0.0000000280
   11    8   12   12        0.0001825449
   11    8   13   12        0.0000008427
   11    8   13   13       -0.0017363771
   12    8   12    8        0.0019375060
   12    8   13    8       -0.0000004688
   12    8    9    9        0.0011679001
   12    8   10    9       -0.0000001069
   12    8   11    9        0.0000002086
   12    8   12    9       -0.0000005598
   12    8   13    9       -0.0000010395
   12    8   10   10        0.0011696225
   12    8   11   10       -0.0000033962
   12    8   12   10        0.0000090454
   12    8   13   10        0.0000170067
   12    8   11   11        0.0008100942
   12    8   12   11        0.0007714609
   12    8   13   11        0.0000002194
   12    8   12   12        0.0015466397
   12    8   13   12       -0.0000000714
   12    8   13   13        0.0022616295
   13    8   13    8        0.0030963565
   13    8    9    9        0.0014026224
   13    8   10    9        0.0001738226
   13    8   11    9       -0.0000005990
   13    8   12    9        0.0000007584
   13    8   13    9       -0.0000011239
   13    8   10   10       -0.0014007604
   13    8   11   10        0.0000179154
   13    8   12   10       -0.0000112187
   13    8   13   10        0.0000026538
   13    8   11   11        0.0000004576
   13    8   12   11        0.0000004195
   13    8   13   11        0.0002732047
   13    8   12   12        0.0000010058
   13    8   13   12       -0.0002310134
   13    8   13   13        0.0000013989
    9    9    9    9        0.0783987140
    9    9   10    9        0.0003665812
    9    9   11    9       -0.0000067720
    9    9   12    9        0.0000028971
    9    9   13    9       -0.0000245232
    9    9   10   10        0.0678629028
    9    9   11   10        0.0000066005
    9    9   12   10       -0.0000011296
    9    9   13   10        0.0000968541
    9    9   11   11        0.0652996256
    9    9   12   11        0.0016240814
    9    9   13   11        0.0015715240
    9    9   12   12        0.0668523355
    9    9   13   12        0.0000837298
    9    9   13   13        0.0760995996
   10    9   10    9        0.0023635518
   10    9   11    9        0.0000499497
   10    9   12    9       -0.0000222677
   10    9   13    9        0.0001065936
   10    9   10   10       -0.0003665852
   10    9   11   10        0.0000103255
   10    9   12   10       -0.0000043462
   10    9   13   10        0.0000078847
   10    9   11   11       -0.0000001247
   10    9   12   11       -0.0000000323
   10    9   13   11        0.0001963242
   10    9   12   12       -0.0000001474
   10    9   13   12        0.0000119081
   10    9   13   13        0.0000000814
   11    9   11    9        0.0046712011
   11    9   12    9       -0.0001722429
   11    9   13    9        0.0040528263
   11    9   10   10        0.0000129880
   11    9   11   10       -0.0000000804
   11    9   12   10       -0.0000002036
   11    9   13   10        0.0005042601
   11    9   11   11        0.0000076799
   11    9   12   11       -0.0000022660
   11    9   13   11       -0.0000020351
   11    9   12   12        0.0000053207
   11    9   13   12       -0.0000007002
   11    9   13   13       -0.0000013372
   12    9   12    9        0.0024454443
   12    9   13    9       -0.0007269670
   12    9   10   10       -0.0000056385
   12    9   11   10       -0.0000002035
   12    9   12   10        0.0000000455
   12    9   13   10       -0.0000889747
   12    9   11   11       -0.0000034212
   12    9   12   11        0.0000010317
   12    9   13   11        0.0000008142
   12    9   12   12       -0.0000050608
   12    9   13   12       -0.0000002130
   12    9   13   13       -0.0000049949
   13    9   13    9        0.0090216497
   13    9   10   10        0.0000054339
   13    9   11   10        0.0005042106
   13    9   12   10       -0.0000889464
   13    9   13   10        0.0000000331
   13    9   11   11       -0.0000129073
   13    9   12   11        0.0000010243
   13    9   13   11       -0.0000017769
   13    9   12   12       -0.0000128741
   13    9   13   12       -0.0000043485
   13    9   13   13       -0.0000027865
   10   10   10   10        0.0783987259
   10   10   11   10       -0.0001080727
   10   10   12   10        0.0000459750
   10   10   13   10        0.0000902882
   10   10   11   11        0.0653016064
   10   10   12   11        0.0016246158
   10   10   13   11       -0.0015704305
   10   10   12   12        0.0668547046
   10   10   13   12       -0.0000920127
   10   10   13   13        0.0760995064
   11   10   11   10        0.0046724898
   11   10   12   10       -0.0001689614
   11   10   13   10       -0.0040531704
   11   10   11   11       -0.0001241246
   11   10   12   11        0.0000365881
   11   10   13   11        0.0000381605
   11   10   12   12       -0.0000858602
   11   10   13   12       -0.0000082714
   11   10   13   13        0.0000037853
   12   10   12   10        0.0024447263
   12   10   13   10        0.0007208747
   12   10   11   11        0.0000553273
   12   10   12   11       -0.0000166365
   12   10   13   11       -0.0000007217
   12   10   12   12        0.0000817245
   12   10   13   12        0.0000200496
   12   10   13   13        0.0000130123
   13   10   13   10        0.0090232425
   13   10   11   11        0.0001908051
   13   10   12   11       -0.0000387408
   13   10   13   11        0.0000050650
   13   10   12   12        0.0001921692
   13   10   13   12        0.0000116584
   13   10   13   13       -0.0000107692
   11   11   11   11        0.0653389745
   11   11   12   11       -0.0000496048
   11   11   13   11       -0.0000005128
   11   11   12   12        0.0631122745
   11   11   13   12       -0.0000015237
   11   11   13   13        0.0675801841
   12   11   12   11        0.0031343120
   12   11   13   11        0.0000008053
   12   11   12   12        0.0022384370
   12   11   13   12       -0.0000001648
   12   11   13   13        0.0021529742
   13   11   13   11        0.0020070987
   13   11   12   12        0.0000008115
   13   11   13   12        0.0000119138
   13   11   13   13        0.0000006687
   12   12   12   12        0.0702469063
   12   12   13   12        0.0000001301
   12   12   13   13        0.0703074169
   13   12   13   12        0.0009192461
   13   12   13   13       -0.0000073732
   13   13   13   13        0.0883108538
 end_two_electron_integrals


 output epsi filename:./pspw_hf_LiH.emovecs

 Total PSPW energy     :  -0.6555685202E+00


=== Spin Contamination ===

 <Sexact^2> =    0.0000000000000000     
 <S^2>      =    0.0000000000000000     



== Center of Charge ==

spin up     (    0.0000,    0.0000,    4.0193 )
spin down   (    0.0000,    0.0000,    4.0193 )
     total  (    0.0000,    0.0000,    4.0193 )
ionic       (    0.0000,    0.0000,    1.6535 )


== Molecular Dipole wrt Center of Mass ==

mu   =  (   -0.0000,   -0.0000,   -4.7316 ) au
|mu| =     4.7316 au,      12.0258 Debye

 output psi filename:./pspw_hf_LiH.movecs

 Writing Crystallographic Information File:./LiH.cif
   - cell not shifted (nwpw:cif_shift_cell .false.)


== Timing ==

cputime in seconds
  prologue    :   0.890090E+02
  main loop   :   0.107894E+04
  epilogue    :   0.791549E-01
  total       :   0.116803E+04
  cputime/step:   0.523758E+01       (     206 evalulations,      88 linesearches)


Time spent doing                        total          step       percent
  total time                 :   0.116805E+04  0.567013E+01       100.0 %
  i/o time                   :   0.169568E+01  0.823144E-02         0.1 %
  FFTs                       :   0.889716E+03  0.431901E+01        76.2 %
  dot products               :   0.640463E+01  0.310904E-01         0.5 %
  geodesic                   :   0.152571E+00  0.740638E-03         0.0 %
  ffm_dgemm                  :   0.374707E-01  0.181897E-03         0.0 %
  fmf_dgemm                  :   0.644242E-01  0.312739E-03         0.0 %
  mmm_dgemm                  :   0.500092E-02  0.242763E-04         0.0 %
  m_diagonalize              :   0.201849E-02  0.979850E-05         0.0 %
  local pseudopotentials     :   0.584329E-02  0.283655E-04         0.0 %
  non-local pseudopotentials :   0.362500E+01  0.175971E-01         0.3 %
  structure factors          :   0.660744E+00  0.320749E-02         0.1 %
  phase factors              :   0.171230E-04  0.831214E-07         0.0 %
  masking and packing        :   0.209431E+02  0.101666E+00         1.8 %
  queue fft                  :   0.240909E+01  0.116946E-01         0.2 %
  queue fft (serial)         :   0.879389E+00  0.426888E-02         0.1 %
  queue fft (message passing):   0.142738E+01  0.692904E-02         0.1 %
  HFX potential              :   0.867154E+03  0.420949E+01        74.2 %
  non-local psp FFM          :   0.287274E+01  0.139453E-01         0.2 %
  non-local psp FMF          :   0.177799E+00  0.863101E-03         0.0 %
  non-local psp FFM A        :   0.320541E+00  0.155602E-02         0.0 %
  non-local psp FFM B        :   0.283017E+00  0.137387E-02         0.0 %

== HFX Counters ==
  HFX Evalulations         =   206
  Lin ACE HFX Evalulations =     0


     >>>  JOB COMPLETED     AT Sun May  4 20:56:15 2025  <<<

 Task  times  cpu:     1088.5s     wall:     1168.1s


                                NWChem Input Module
                                -------------------


 Summary of allocated global arrays
-----------------------------------
  No active global arrays


MA_summarize_allocated_blocks: starting scan ...
MA_summarize_allocated_blocks: scan completed: 0 heap blocks, 0 stack blocks
MA usage statistics:

	allocation statistics:
					      heap	     stack
					      ----	     -----
	current number of blocks	         0	         0
	maximum number of blocks	       315	        19
	current total bytes		         0	         0
	maximum total bytes		 125579664	  29398968
	maximum total K-bytes		    125580	     29399
	maximum total M-bytes		       126	        30


                                     CITATION
                                     --------
                Please cite the following reference when publishing
                           results obtained with NWChem:

          E. Apra, E. J. Bylaska, W. A. de Jong, N. Govind, K. Kowalski,
       T. P. Straatsma, M. Valiev, H. J. J. van Dam, Y. Alexeev, J. Anchell,
       V. Anisimov, F. W. Aquino, R. Atta-Fynn, J. Autschbach, N. P. Bauman,
     J. C. Becca, D. E. Bernholdt, K. Bhaskaran-Nair, S. Bogatko, P. Borowski,
         J. Boschen, J. Brabec, A. Bruner, E. Cauet, Y. Chen, G. N. Chuev,
      C. J. Cramer, J. Daily, M. J. O. Deegan, T. H. Dunning Jr., M. Dupuis,
   K. G. Dyall, G. I. Fann, S. A. Fischer, A. Fonari, H. Fruchtl, L. Gagliardi,
      J. Garza, N. Gawande, S. Ghosh, K. Glaesemann, A. W. Gotz, J. Hammond,
       V. Helms, E. D. Hermes, K. Hirao, S. Hirata, M. Jacquelin, L. Jensen,
   B. G. Johnson, H. Jonsson, R. A. Kendall, M. Klemm, R. Kobayashi, V. Konkov,
      S. Krishnamoorthy, M. Krishnan, Z. Lin, R. D. Lins, R. J. Littlefield,
      A. J. Logsdail, K. Lopata, W. Ma, A. V. Marenich, J. Martin del Campo,
   D. Mejia-Rodriguez, J. E. Moore, J. M. Mullin, T. Nakajima, D. R. Nascimento,
    J. A. Nichols, P. J. Nichols, J. Nieplocha, A. Otero-de-la-Roza, B. Palmer,
    A. Panyala, T. Pirojsirikul, B. Peng, R. Peverati, J. Pittner, L. Pollack,
   R. M. Richard, P. Sadayappan, G. C. Schatz, W. A. Shelton, D. W. Silverstein,
   D. M. A. Smith, T. A. Soares, D. Song, M. Swart, H. L. Taylor, G. S. Thomas,
            V. Tipparaju, D. G. Truhlar, K. Tsemekhman, T. Van Voorhis,
      A. Vazquez-Mayagoitia, P. Verma, O. Villa, A. Vishnu, K. D. Vogiatzis,
        D. Wang, J. H. Weare, M. J. Williamson, T. L. Windus, K. Wolinski,
        A. T. Wong, Q. Wu, C. Yang, Q. Yu, M. Zacharias, Z. Zhang, Y. Zhao,
                                and R. J. Harrison
                        "NWChem: Past, present, and future
                         J. Chem. Phys. 152, 184102 (2020)
                               doi:10.1063/5.0004997

                                      AUTHORS
                                      -------
  E. Apra, E. J. Bylaska, N. Govind, K. Kowalski, M. Valiev, D. Mejia-Rodriguez,
       A. Kunitsa, N. P. Bauman, A. Panyala, W. A. de Jong, T. P. Straatsma,
   H. J. J. van Dam, D. Wang, T. L. Windus, J. Hammond, J. Autschbach, A. Woods,
    K. Bhaskaran-Nair, J. Brabec, K. Lopata, S. A. Fischer, S. Krishnamoorthy,
     M. Jacquelin, W. Ma, M. Klemm, O. Villa, Y. Chen, V. Anisimov, F. Aquino,
     S. Hirata, M. T. Hackler, E. Hermes, L. Jensen, J. E. Moore, J. C. Becca,
      V. Konjkov, T. Risthaus, M. Malagoli, A. Marenich, A. Otero-de-la-Roza,
        J. Mullin, P. Nichols, R. Peverati, J. Pittner, Y. Zhao, P.-D. Fan,
        A. Fonari, M. J. Williamson, R. J. Harrison, J. R. Rehr, M. Dupuis,
     D. Silverstein, D. M. A. Smith, J. Nieplocha, V. Tipparaju, M. Krishnan,
     B. E. Van Kuiken, A. Vazquez-Mayagoitia, M. Swart, Q. Wu, T. Van Voorhis,
     A. A. Auer, M. Nooijen, L. D. Crosby, E. Brown, G. Cisneros, G. I. Fann,
   H. Fruchtl, J. Garza, K. Hirao, R. A. Kendall, J. A. Nichols, K. Tsemekhman,
    K. Wolinski, J. Anchell, D. E. Bernholdt, P. Borowski, T. Clark, D. Clerc,
   H. Dachsel, M. J. O. Deegan, K. Dyall, D. Elwood, E. Glendening, M. Gutowski,
   A. C. Hess, J. Jaffe, B. G. Johnson, J. Ju, R. Kobayashi, R. Kutteh, Z. Lin,
   R. Littlefield, X. Long, B. Meng, T. Nakajima, S. Niu, L. Pollack, M. Rosing,
   K. Glaesemann, G. Sandrone, M. Stave, H. Taylor, G. Thomas, J. H. van Lenthe,
                               A. T. Wong, Z. Zhang.

 Total times  cpu:     1088.6s     wall:     1168.1s
