 argument  1 = ../data/PW_LiH_data/3x3_aperiodic/NWChem/12nocovo/H1Li1-1.5.nw



============================== echo of input deck ==============================
title "swnc: e theory=pspw4 xc=pbe formula=LiH charge=0 mult=1"
#machinejob:expert

echo

start pspw_hf_LiH

memory heap 1200 mb stack 2400 mb global 400 mb

charge 0

geometry
Li    0.00000    0.00000   -0.75000
H     0.00000    0.00000    0.75000
end

nwpw
  ### pseudopotential block begin ###
  ### pseudopotential block end   ###
  simulation_cell
     SC 28.345889835
     boundary_conditions aperiodic
  end

  cutoff 50.0
  mult 1
  xc hf
  lmbfgs
  tolerances 1.0e-9 1.0e-9

  virtual 12
end
set nwpw:cif_filename LiH

#set nwpw:CI_maxit_orb 15
#set nwpw:CI_maxit_linesearch 15

set nwpw:2qintegrals .true.
#set nwpw:3x3_virtual .true.

task pspw energy
================================================================================


                                         
                                         


             Northwest Computational Chemistry Package (NWChem) 7.2.3
             --------------------------------------------------------


                    Environmental Molecular Sciences Laboratory
                       Pacific Northwest National Laboratory
                                Richland, WA 99352

                              Copyright (c) 1994-2022
                       Pacific Northwest National Laboratory
                            Battelle Memorial Institute

             NWChem is an open-source computational chemistry package
                        distributed under the terms of the
                      Educational Community License (ECL) 2.0
             A copy of the license is included with this distribution
                              in the LICENSE.TXT file

                                  ACKNOWLEDGMENT
                                  --------------

            This software and its documentation were developed at the
            EMSL at Pacific Northwest National Laboratory, a multiprogram
            national laboratory, operated for the U.S. Department of Energy
            by Battelle under Contract Number DE-AC05-76RL01830. Support
            for this work was provided by the Department of Energy Office
            of Biological and Environmental Research, Office of Basic
            Energy Sciences, and the Office of Advanced Scientific Computing.


           Job information
           ---------------

    hostname        = mqs-al
    program         = nwchem
    date            = Sun May  4 17:45:09 2025

    compiled        = Thu_Oct_31_08:55:15_2024
    source          = /home/conda/feedstock_root/build_artifacts/nwchem_1730356057992/work
    nwchem branch   = 7.2.3
    nwchem revision = c400b04
    ga revision     = 5.8.0
    use scalapack   = T
    input           = ../data/PW_LiH_data/3x3_aperiodic/NWChem/12nocovo/H1Li1-1.5.nw
    prefix          = pspw_hf_LiH.
    data base       = ./pspw_hf_LiH.db
    status          = startup
    nproc           =       24
    time left       =     -1s



           Memory information
           ------------------

    heap     =  157286394 doubles =   1200.0 Mbytes
    stack    =  314572799 doubles =   2400.0 Mbytes
    global   =   52428800 doubles =    400.0 Mbytes (distinct from heap & stack)
    total    =  524287993 doubles =   4000.0 Mbytes
    verify   = yes
    hardfail = no 


           Directory information
           ---------------------

  0 permanent = .
  0 scratch   = .




                                NWChem Input Module
                                -------------------


              swnc: e theory=pspw4 xc=pbe formula=LiH charge=0 mult=1
              -------------------------------------------------------

 Scaling coordinates for geometry "geometry" by  1.889725989
 (inverse scale =  0.529177249)

  zeroes
  zeroes
  zeroes
  zeroes
  zeroes
  zeroes
  zeroes
  zeroes
  zeroes
  zeroes
  zeroes
  zeroes
  zeroes
  zeroes
  zeroes
  zeroes
  zeroes
  zeroes
  zeroes
  zeroes
  zeroes
  zeroes
  zeroes
  zeroes
  zeroes
  zeroes
  zeroes
  zeroes
  zeroes
  zeroes
  zeroes
  zeroes
  zeroes
  zeroes
  zeroes
  zeroes
  zeroes
  zeroes
  zeroes
  zeroes
  zeroes
  zeroes
  zeroes
  zeroes
  zeroes
  zeroes
  zeroes
  zeroes
 ORDER OF PRIMARY AXIS IS BEING SET TO 4
 C4V symmetry detected

          ------
          auto-z
          ------
  no constraints, skipping    0.0000000000000000     
  no constraints, skipping    0.0000000000000000     


                             Geometry "geometry" -> ""
                             -------------------------

 Output coordinates in angstroms (scale by  1.889725989 to convert to a.u.)

  No.       Tag          Charge          X              Y              Z
 ---- ---------------- ---------- -------------- -------------- --------------
    1 Li                   3.0000     0.00000000     0.00000000    -0.37500000
    2 H                    1.0000     0.00000000     0.00000000     1.12500000

      Atomic Mass 
      ----------- 

      Li                 7.016000
      H                  1.007825


 Effective nuclear repulsion energy (a.u.)       1.0583544980

            Nuclear Dipole moment (a.u.) 
            ----------------------------
        X                 Y               Z
 ---------------- ---------------- ----------------
     0.0000000000     0.0000000000     0.0000000000

      Symmetry information
      --------------------

 Group name             C4v       
 Group number             18
 Group order               8
 No. of unique centers     2

      Symmetry unique atoms

     1    2



                                Z-matrix (autoz)
                                -------- 

 Units are Angstrom for bonds and degrees for angles

      Type          Name      I     J     K     L     M      Value
      ----------- --------  ----- ----- ----- ----- ----- ----------
    1 Stretch                  1     2                       1.50000


            XYZ format geometry
            -------------------
     2
 geometry
 Li                    0.00000000     0.00000000    -0.37500000
 H                     0.00000000     0.00000000     1.12500000

 ==============================================================================
                                internuclear distances
 ------------------------------------------------------------------------------
       center one      |      center two      | atomic units |  angstroms
 ------------------------------------------------------------------------------
    2 H                |   1 Li               |     2.83459  |     1.50000
 ------------------------------------------------------------------------------
                         number of included internuclear distances:          1
 ==============================================================================



          ****************************************************
          *                                                  *
          *               NWPW PSPW Calculation              *
          *                                                  *
          * [ (Grassmann/Stiefel manifold implementation)  ] *
          *                                                  *
          *      [ NorthWest Chemistry implementation ]      *
          *                                                  *
          *            version #5.10   06/12/02              *
          *                                                  *
          *    This code was developed by Eric J. Bylaska,   *
          *    and was based upon algorithms and code        *
          *    developed by the group of Prof. John H. Weare *
          *                                                  *
          ****************************************************
     >>>  JOB STARTED       AT Sun May  4 17:45:09 2025  <<<
          ================ input data ========================

 input psi filename:./pspw_hf_LiH.movecs

 number of processors used:        24
 processor grid           :  24 x   1
 parallel mapping         :2d-hilbert
 parallel mapping         :  balanced
 number of threads        :         1
 parallel io              :       off

 options:
      boundary conditions  = aperiodic   (version4)
      electron spin        = restricted
      exchange-correlation = Hartree-Fock
      - HFX relaxed
      - HFX restricted orbitals :    1
      - HFX free-space coulomb solver


 elements involved in the cluster:
      1: Li  valence charge:  1.0000  lmax=  1
             comment    : Hamann pseudopotential
             pseudpotential type            :   0
             highest angular component      :   1
             local potential used           :   1
             number of non-local projections:   1
             aperiodic cutoff radius        :  1.000
             semicore corrections included  :  1.000 (radius)  0.769 (charge)
             cutoff =   1.869   1.551

      2: H   valence charge:  1.0000  lmax=  1
             comment    : Parameterized (Chem.Phys.Lett., vol 322, page 447) Hamman psp
             pseudpotential type            :   0
             highest angular component      :   1
             local potential used           :   1
             number of non-local projections:   1
             aperiodic cutoff radius        :  1.000
             cutoff =   0.800   0.800


 total charge:   0.000

 atomic composition:
     Li  :    1     H   :    1

 number of electrons: spin up=     1 (   1 per task)  down=     1 (   1 per task) (Fourier space)
 number of orbitals : spin up=     1 (   1 per task)  down=     1 (   1 per task) (Fourier space)

 supercell:
      cell_name:  cell_default                                      
      lattice:    a1=<  28.346   0.000   0.000 >
                  a2=<   0.000  28.346   0.000 >
                  a3=<   0.000   0.000  28.346 >
      reciprocal: b1=<   0.222   0.000   0.000 >
                  b2=<   0.000   0.222   0.000 >
                  b3=<   0.000   0.000   0.222 >
      lattice:    a=      28.346 b=     28.346 c=      28.346
                  alpha=  90.000 beta=  90.000 gamma=  90.000
                  omega=     22775.6

      density cutoff=100.000  fft=140x140x140(   544264 waves    22677 per task)
      wavefnc cutoff= 50.000  fft=140x140x140(   192294 waves     8012 per task)

 technical parameters:
      time step=      5.80     fictitious mass=  400000.0
      tolerance=0.100E-08 (energy)   0.100E-08 (density)
      maximum iterations =      1000 (   10 inner    100 outer )





== Energy Calculation ==


          ============ Grassmann lmbfgs iteration ============
     >>>  ITERATION STARTED AT Sun May  4 17:46:38 2025  <<<
    iter.           Energy         DeltaE       DeltaRho 
    ------------------------------------------------------
      10   -0.7418827302E+00   -0.85138E-04    0.11372E-02
      20   -0.7420874796E+00   -0.40376E-05    0.40701E-05
      30   -0.7421013482E+00   -0.36642E-06    0.10100E-06
      40   -0.7421025729E+00   -0.37664E-07    0.41880E-08
      50   -0.7421027209E+00   -0.54031E-08    0.69773E-09
      60   -0.7421027425E+00   -0.95037E-09    0.91570E-10
  *** tolerance ok. iteration terminated
     >>>  ITERATION ENDED   AT Sun May  4 17:47:46 2025  <<<


==  Summary Of Results  ==

 number of electrons: spin up=    1.00000  down=    1.00000 (real space)

 total     energy    :  -0.7421027425E+00 (   -0.37105E+00/ion)
 total orbital energy:  -0.6042430767E+00 (   -0.60424E+00/electron)
 hartree   energy    :   0.9812889971E+00 (    0.98129E+00/electron)
 exc-corr  energy    :   0.0000000000E+00 (    0.00000E+00/electron)
 HF exchange energy  :  -0.4906444985E+00 (   -0.49064E+00/electron)
 ion-ion   energy    :   0.3527848327E+00 (    0.17639E+00/ion)

 kinetic (planewave) :   0.6418280070E+00 (    0.64183E+00/electron)
 V_local (planewave) :  -0.2142023104E+01 (   -0.21420E+01/electron)
 V_nl    (planewave) :  -0.8533697698E-01 (   -0.85337E-01/electron)
 V_Coul  (planewave) :   0.1962577994E+01 (    0.19626E+01/electron)
 V_xc.   (planewave) :   0.0000000000E+00 (    0.00000E+00/electron)
 K.S. HFX energy     :  -0.9812889971E+00 (   -0.98129E+00/electron)
 Virial Coefficient  :  -0.4125436780E+00

 orbital energies:
    -0.3021215E+00 (  -8.221eV)


== Virtual Orbital Calculation ==


 input epsi filename:./pspw_hf_LiH.emovecs
     orbital   1 current e=-0.874E-02 (error=0.940E-09) iterations  87(  19 preconditioned, Ep,Sp= 20.0  200.0)
     orbital   2 current e= 0.934E-02 (error=0.937E-09) iterations  72(  14 preconditioned, Ep,Sp= 20.0  200.0)
     orbital   3 current e= 0.197E-01 (error=0.898E-09) iterations  65(   2 preconditioned, Ep,Sp= 20.0  200.0)
     orbital   4 current e= 0.197E-01 (error=0.931E-09) iterations  66(   2 preconditioned, Ep,Sp= 20.0  200.0)
     orbital   5 current e= 0.230E-01 (error=0.736E-09) iterations  49(   1 preconditioned, Ep,Sp= 20.0  200.0)
     orbital   6 current e= 0.233E-01 (error=0.968E-09) iterations  74(  12 preconditioned, Ep,Sp= 20.0  200.0)
     orbital   7 current e= 0.294E-01 (error=0.956E-09) iterations  78(  12 preconditioned, Ep,Sp= 20.0  200.0)
     orbital   8 current e= 0.379E-01 (error=0.968E-09) iterations  91(  20 preconditioned, Ep,Sp= 20.0  200.0)
     orbital   9 current e= 0.418E-01 (error=0.157E-08) iterations 121(  16 preconditioned, Ep,Sp= 20.0  200.0)
     orbital   9 current e= 0.418E-01 (error=0.749E-09) iterations   2(   1 preconditioned, Ep,Sp= 20.0  200.0)
     orbital  10 current e= 0.418E-01 (error=0.266E-08) iterations 121(  22 preconditioned, Ep,Sp= 20.0  200.0)
     orbital  10 current e= 0.418E-01 (error=0.982E-09) iterations  12(   1 preconditioned, Ep,Sp= 20.0  200.0)
     orbital  11 current e= 0.471E-01 (error=0.400E-07) iterations 121(  11 preconditioned, Ep,Sp= 20.0  200.0)
     orbital  11 current e= 0.471E-01 (error=0.107E-07) iterations 121(   1 preconditioned, Ep,Sp= 20.0  200.0)
     orbital  11 current e= 0.513E-01 (error=0.217E-03) iterations 121( 120 preconditioned, Ep,Sp= 20.0  200.0)
     orbital  11 current e= 0.471E-01 (error=0.274E-06) iterations 121( 120 preconditioned, Ep,Sp= 20.0  200.0)
     orbital  11 current e= 0.471E-01 (error=0.999E-09) iterations  94(   1 preconditioned, Ep,Sp= 20.0  200.0)
     orbital  12 current e= 0.471E-01 (error=0.166E-06) iterations 121( 118 preconditioned, Ep,Sp= 20.0  200.0)
     orbital  12 current e= 0.471E-01 (error=0.809E-07) iterations 121(   1 preconditioned, Ep,Sp= 20.0  200.0)
     orbital  12 current e= 0.595E-01 (error=0.251E-05) iterations 121( 120 preconditioned, Ep,Sp= 20.0  200.0)
     orbital  12 current e= 0.594E-01 (error=0.128E-07) iterations 121(  70 preconditioned, Ep,Sp= 20.0  200.0)
     orbital  12 current e= 0.594E-01 (error=0.697E-08) iterations 121(   6 preconditioned, Ep,Sp= 20.0  200.0)
     orbital  12 current e= 0.594E-01 (error=0.863E-09) iterations   8(   1 preconditioned, Ep,Sp= 20.0  200.0)

 virtual orbital energies:
     0.5943608E-01 (   1.617eV)
     0.4708956E-01 (   1.281eV)
     0.4179845E-01 (   1.137eV)
     0.4179844E-01 (   1.137eV)
     0.3790729E-01 (   1.032eV)
     0.2943377E-01 (   0.801eV)
     0.2328970E-01 (   0.634eV)
     0.2297302E-01 (   0.625eV)
     0.1970730E-01 (   0.536eV)
     0.1970730E-01 (   0.536eV)
     0.9342264E-02 (   0.254eV)
    -0.8736838E-02 (  -0.238eV)


 == Generating One-Electron and Two-Electron Integrals ==

 begin_one_electron_integrals
    1    1        -0.7927660369
    2    1         0.0311700504
    3    1         0.0171928947
    4    1        -0.0000000067
    5    1        -0.0000000223
    6    1         0.0000000039
    7    1         0.0152966881
    8    1        -0.0153023254
    9    1         0.0054867396
   10    1         0.0000012478
   11    1         0.0000134233
   12    1        -0.0153259098
   13    1        -0.0246720292
    2    2        -0.2311769495
    3    2        -0.0648154667
    4    2         0.0000000393
    5    2         0.0000000242
    6    2        -0.0000001368
    7    2        -0.0286382639
    8    2         0.0230897163
    9    2        -0.0273749393
   10    2        -0.0000024819
   11    2        -0.0000219957
   12    2         0.0222129821
   13    2         0.0232667792
    3    3        -0.1703474384
    4    3         0.0000001933
    5    3        -0.0000000067
    6    3        -0.0000000735
    7    3        -0.0111832986
    8    3         0.0022364589
    9    3        -0.0499781049
   10    3        -0.0000027185
   11    3        -0.0000235080
   12    3         0.0159651144
   13    3         0.0089189122
    4    4        -0.1594731629
    5    4         0.0000049422
    6    4         0.0000002332
    7    4         0.0000003364
    8    4         0.0000012498
    9    4         0.0000114097
   10    4        -0.0138913135
   11    4        -0.0449628593
   12    4        -0.0000098278
   13    4        -0.0000241236
    5    5        -0.1594782297
    6    5        -0.0000005653
    7    5         0.0000000043
    8    5        -0.0000003180
    9    5        -0.0000013119
   10    5        -0.0449471387
   11    5         0.0138376413
   12    5        -0.0000065372
   13    5         0.0000043288
    6    6        -0.1205842710
    7    6        -0.0000002001
    8    6         0.0000004442
    9    6        -0.0000049749
   10    6         0.0000064449
   11    6         0.0000219798
   12    6         0.0000123618
   13    6        -0.0000112253
    7    7        -0.1310721944
    8    7         0.0065201925
    9    7        -0.0076525137
   10    7        -0.0000006473
   11    7        -0.0000061968
   12    7         0.0285645052
   13    7         0.0097962581
    8    8        -0.1191730285
    9    8         0.0022297644
   10    8         0.0000019766
   11    8         0.0000188785
   12    8        -0.0061541026
   13    8        -0.0341592425
    9    9        -0.1173570914
   10    9        -0.0000002493
   11    9        -0.0000026429
   12    9         0.0082441854
   13    9        -0.0037167744
   10   10        -0.1336462288
   11   10        -0.0000356128
   12   10        -0.0000040584
   13   10        -0.0000022518
   11   11        -0.1336365377
   12   11         0.0000059123
   13   11        -0.0000199176
   12   12        -0.1029797582
   13   12        -0.0111399918
   13   13        -0.0995029081
 end_one_electron_integrals

 begin_two_electron_integrals
    1    1    1    1        0.4906444985
    1    1    2    1       -0.0311757824
    1    1    3    1       -0.0171977002
    1    1    4    1        0.0000000067
    1    1    5    1        0.0000000223
    1    1    6    1       -0.0000000039
    1    1    7    1       -0.0152983600
    1    1    8    1        0.0152989528
    1    1    9    1       -0.0054910579
    1    1   10    1       -0.0000012477
    1    1   11    1       -0.0000134224
    1    1   12    1        0.0153280691
    1    1   13    1        0.0246665853
    1    1    2    2        0.1129712684
    1    1    3    2        0.0334995980
    1    1    4    2       -0.0000000207
    1    1    5    2       -0.0000000147
    1    1    6    2        0.0000000694
    1    1    7    2        0.0151815195
    1    1    8    2       -0.0123037418
    1    1    9    2        0.0141914203
    1    1   10    2        0.0000013121
    1    1   11    2        0.0000117555
    1    1   12    2       -0.0120029709
    1    1   13    2       -0.0128510829
    1    1    3    3        0.0905675143
    1    1    4    3       -0.0000000984
    1    1    5    3        0.0000000050
    1    1    6    3        0.0000000363
    1    1    7    3        0.0061210260
    1    1    8    3       -0.0015513563
    1    1    9    3        0.0253577555
    1    1   10    3        0.0000014055
    1    1   11    3        0.0000122071
    1    1   12    3       -0.0085449677
    1    1   13    3       -0.0051587701
    1    1    4    4        0.0899417526
    1    1    5    4       -0.0000025206
    1    1    6    4       -0.0000001364
    1    1    7    4       -0.0000001750
    1    1    8    4       -0.0000006394
    1    1    9    4       -0.0000058121
    1    1   10    4        0.0070692649
    1    1   11    4        0.0228814150
    1    1   12    4        0.0000050217
    1    1   13    4        0.0000123006
    1    1    5    5        0.0899443341
    1    1    6    5        0.0000002889
    1    1    7    5       -0.0000000047
    1    1    8    5        0.0000001636
    1    1    9    5        0.0000006717
    1    1   10    5        0.0228734376
    1    1   11    5       -0.0070419680
    1    1   12    5        0.0000033388
    1    1   13    5       -0.0000022020
    1    1    6    6        0.0717859798
    1    1    7    6        0.0000001004
    1    1    8    6       -0.0000002228
    1    1    9    6        0.0000024925
    1    1   10    6       -0.0000032378
    1    1   11    6       -0.0000112027
    1    1   12    6       -0.0000061872
    1    1   13    6        0.0000056196
    1    1    7    7        0.0776123188
    1    1    8    7       -0.0036290956
    1    1    9    7        0.0040660364
    1    1   10    7        0.0000003498
    1    1   11    7        0.0000034166
    1    1   12    7       -0.0147283806
    1    1   13    7       -0.0055040043
    1    1    8    8        0.0746744852
    1    1    9    8       -0.0012721355
    1    1   10    8       -0.0000010378
    1    1   11    8       -0.0000099762
    1    1   12    8        0.0034585366
    1    1   13    8        0.0176901259
    1    1    9    9        0.0778639513
    1    1   10    9        0.0000000742
    1    1   11    9        0.0000009607
    1    1   12    9       -0.0043822486
    1    1   13    9        0.0016131013
    1    1   10   10        0.0882271652
    1    1   11   10        0.0000185504
    1    1   12   10        0.0000021145
    1    1   13   10        0.0000006228
    1    1   11   11        0.0882223183
    1    1   12   11       -0.0000032044
    1    1   13   11        0.0000050687
    1    1   12   12        0.0755028188
    1    1   13   12        0.0061972235
    1    1   13   13        0.0804655905
    2    1    2    1        0.0035024252
    2    1    3    1        0.0021927435
    2    1    4    1       -0.0000000020
    2    1    5    1       -0.0000000053
    2    1    6    1        0.0000000017
    2    1    7    1        0.0017224240
    2    1    8    1       -0.0015139044
    2    1    9    1        0.0010048552
    2    1   10    1        0.0000001462
    2    1   11    1        0.0000015578
    2    1   12    1       -0.0017886813
    2    1   13    1       -0.0024406211
    2    1    2    2        0.0017646128
    2    1    3    2        0.0011194552
    2    1    4    2       -0.0000000188
    2    1    5    2       -0.0000000327
    2    1    6    2        0.0000000021
    2    1    7    2       -0.0001320897
    2    1    8    2        0.0002480639
    2    1    9    2        0.0005119892
    2    1   10    2       -0.0000000104
    2    1   11    2       -0.0000000315
    2    1   12    2        0.0002089532
    2    1   13    2        0.0004138265
    2    1    3    3        0.0009076843
    2    1    4    3        0.0000000082
    2    1    5    3        0.0000000182
    2    1    6    3        0.0000000007
    2    1    7    3        0.0000082467
    2    1    8    3       -0.0006346120
    2    1    9    3        0.0005509070
    2    1   10    3        0.0000000133
    2    1   11    3        0.0000002557
    2    1   12    3        0.0000836519
    2    1   13    3       -0.0001423910
    2    1    4    4        0.0008777839
    2    1    5    4        0.0000000380
    2    1    6    4       -0.0000000460
    2    1    7    4       -0.0000000087
    2    1    8    4       -0.0000000199
    2    1    9    4       -0.0000001496
    2    1   10    4        0.0001970975
    2    1   11    4        0.0006406250
    2    1   12    4       -0.0000001362
    2    1   13    4        0.0000003476
    2    1    5    5        0.0008778238
    2    1    6    5        0.0000000120
    2    1    7    5       -0.0000000084
    2    1    8    5       -0.0000000019
    2    1    9    5        0.0000000601
    2    1   10    5        0.0006409731
    2    1   11    5       -0.0001976474
    2    1   12    5       -0.0000000691
    2    1   13    5       -0.0000000795
    2    1    6    6        0.0003930148
    2    1    7    6        0.0000000015
    2    1    8    6       -0.0000000025
    2    1    9    6        0.0000000207
    2    1   10    6       -0.0000000169
    2    1   11    6       -0.0000003025
    2    1   12    6        0.0000000117
    2    1   13    6       -0.0000000165
    2    1    7    7        0.0002373012
    2    1    8    7       -0.0000201524
    2    1    9    7        0.0000790385
    2    1   10    7        0.0000000173
    2    1   11    7        0.0000001862
    2    1   12    7       -0.0001727856
    2    1   13    7       -0.0002297821
    2    1    8    8       -0.0002962498
    2    1    9    8       -0.0003416905
    2    1   10    8        0.0000000023
    2    1   11    8        0.0000000875
    2    1   12    8       -0.0001610022
    2    1   13    8       -0.0004900629
    2    1    9    9        0.0004189271
    2    1   10    9        0.0000000607
    2    1   11    9        0.0000003942
    2    1   12    9       -0.0000158951
    2    1   13    9       -0.0007013249
    2    1   10   10        0.0006420235
    2    1   11   10       -0.0000001706
    2    1   12   10       -0.0000000213
    2    1   13   10        0.0000000349
    2    1   11   11        0.0006419381
    2    1   12   11       -0.0000000633
    2    1   13   11        0.0000003908
    2    1   12   12        0.0003504980
    2    1   13   12       -0.0000392223
    2    1   13   13       -0.0006251017
    3    1    3    1        0.0014453266
    3    1    4    1       -0.0000000012
    3    1    5    1        0.0000000032
    3    1    6    1        0.0000000013
    3    1    7    1        0.0010717936
    3    1    8    1       -0.0008749669
    3    1    9    1        0.0007415210
    3    1   10    1        0.0000000998
    3    1   11    1        0.0000009715
    3    1   12    1       -0.0011272892
    3    1   13    1       -0.0013990013
    3    1    2    2        0.0021700873
    3    1    3    2        0.0014621315
    3    1    4    2        0.0000000180
    3    1    5    2        0.0000000489
    3    1    6    2        0.0000000020
    3    1    7    2        0.0000556854
    3    1    8    2        0.0000600623
    3    1    9    2        0.0007543779
    3    1   10    2        0.0000000420
    3    1   11    2        0.0000002040
    3    1   12    2        0.0000059886
    3    1   13    2        0.0001551287
    3    1    3    3        0.0011945065
    3    1    4    3       -0.0000000168
    3    1    5    3       -0.0000000265
    3    1    6    3        0.0000000015
    3    1    7    3        0.0001570000
    3    1    8    3       -0.0006862933
    3    1    9    3        0.0007649198
    3    1   10    3        0.0000000815
    3    1   11    3        0.0000004250
    3    1   12    3       -0.0000685667
    3    1   13    3       -0.0002731093
    3    1    4    4        0.0009649224
    3    1    5    4        0.0000000186
    3    1    6    4        0.0000000040
    3    1    7    4        0.0000000025
    3    1    8    4       -0.0000000193
    3    1    9    4       -0.0000001951
    3    1   10    4        0.0002361453
    3    1   11    4        0.0007668916
    3    1   12    4       -0.0000000981
    3    1   13    4        0.0000004166
    3    1    5    5        0.0009649798
    3    1    6    5       -0.0000000151
    3    1    7    5        0.0000000196
    3    1    8    5        0.0000000055
    3    1    9    5        0.0000000360
    3    1   10    5        0.0007671696
    3    1   11    5       -0.0002364928
    3    1   12    5       -0.0000000525
    3    1   13    5       -0.0000000900
    3    1    6    6        0.0003670131
    3    1    7    6        0.0000000013
    3    1    8    6       -0.0000000024
    3    1    9    6        0.0000000204
    3    1   10    6       -0.0000000272
    3    1   11    6       -0.0000002289
    3    1   12    6        0.0000000090
    3    1   13    6       -0.0000000136
    3    1    7    7        0.0003154562
    3    1    8    7       -0.0000753697
    3    1    9    7        0.0001752577
    3    1   10    7        0.0000000418
    3    1   11    7        0.0000002578
    3    1   12    7       -0.0002731531
    3    1   13    7       -0.0003037179
    3    1    8    8       -0.0001957606
    3    1    9    8       -0.0003699540
    3    1   10    8        0.0000000066
    3    1   11    8       -0.0000000076
    3    1   12    8       -0.0000872809
    3    1   13    8       -0.0003269029
    3    1    9    9        0.0005882302
    3    1   10    9        0.0000000168
    3    1   11    9        0.0000004244
    3    1   12    9       -0.0001244829
    3    1   13    9       -0.0007099985
    3    1   10   10        0.0008184832
    3    1   11   10        0.0000001015
    3    1   12   10       -0.0000000183
    3    1   13   10        0.0000000385
    3    1   11   11        0.0008183740
    3    1   12   11       -0.0000001258
    3    1   13   11        0.0000003590
    3    1   12   12        0.0004421927
    3    1   13   12        0.0000637330
    3    1   13   13       -0.0003850071
    4    1    4    1        0.0007030380
    4    1    5    1       -0.0000000988
    4    1    6    1       -0.0000000125
    4    1    7    1       -0.0000000092
    4    1    8    1       -0.0000000219
    4    1    9    1       -0.0000002027
    4    1   10    1        0.0002474974
    4    1   11    1        0.0008008005
    4    1   12    1        0.0000002135
    4    1   13    1        0.0000004298
    4    1    2    2       -0.0000013008
    4    1    3    2        0.0000022483
    4    1    4    2        0.0015868387
    4    1    5    2       -0.0000001325
    4    1    6    2       -0.0000052386
    4    1    7    2       -0.0000011015
    4    1    8    2       -0.0000007029
    4    1    9    2        0.0000000151
    4    1   10    2        0.0003525046
    4    1   11    2        0.0011421704
    4    1   12    2        0.0000004167
    4    1   13    2        0.0000001601
    4    1    3    3       -0.0000047001
    4    1    4    3        0.0002020731
    4    1    5    3       -0.0000000196
    4    1    6    3        0.0000080155
    4    1    7    3        0.0000020078
    4    1    8    3        0.0000002427
    4    1    9    3        0.0000010788
    4    1   10    3        0.0002894037
    4    1   11    3        0.0009389288
    4    1   12    3        0.0000004558
    4    1   13    3        0.0000012414
    4    1    4    4        0.0000006679
    4    1    5    4        0.0000012711
    4    1    6    4        0.0004361843
    4    1    7    4        0.0005964764
    4    1    8    4       -0.0001517041
    4    1    9    4       -0.0000902976
    4    1   10    4       -0.0000023641
    4    1   11    4       -0.0000007536
    4    1   12    4       -0.0004244310
    4    1   13    4       -0.0002761098
    4    1    5    5       -0.0000031014
    4    1    6    5        0.0002956675
    4    1    7    5       -0.0000001411
    4    1    8    5        0.0000000364
    4    1    9    5        0.0000000506
    4    1   10    5        0.0000040735
    4    1   11    5       -0.0000035267
    4    1   12    5       -0.0000000413
    4    1   13    5        0.0000001433
    4    1    6    6       -0.0000071434
    4    1    7    6       -0.0000034114
    4    1    8    6       -0.0000010268
    4    1    9    6        0.0000049287
    4    1   10    6        0.0004875763
    4    1   11    6        0.0003911652
    4    1   12    6        0.0000050908
    4    1   13    6       -0.0000026912
    4    1    7    7       -0.0000042110
    4    1    8    7        0.0000003066
    4    1    9    7        0.0000009565
    4    1   10    7        0.0001546151
    4    1   11    7        0.0004974160
    4    1   12    7       -0.0000024370
    4    1   13    7       -0.0000003554
    4    1    8    8       -0.0000055697
    4    1    9    8        0.0000003645
    4    1   10    8       -0.0000198598
    4    1   11    8       -0.0000630456
    4    1   12    8       -0.0000005522
    4    1   13    8        0.0000023630
    4    1    9    9       -0.0000060767
    4    1   10    9        0.0000113225
    4    1   11    9        0.0000366382
    4    1   12    9       -0.0000020209
    4    1   13    9        0.0000004769
    4    1   10   10       -0.0000058837
    4    1   11   10        0.0000053508
    4    1   12   10       -0.0001717711
    4    1   13   10       -0.0000608511
    4    1   11   11       -0.0000015453
    4    1   12   11       -0.0005558374
    4    1   13   11       -0.0001964345
    4    1   12   12       -0.0000063835
    4    1   13   12       -0.0000003480
    4    1   13   13       -0.0000063724
    5    1    5    1        0.0007031336
    5    1    6    1        0.0000000115
    5    1    7    1       -0.0000000069
    5    1    8    1        0.0000000088
    5    1    9    1        0.0000000248
    5    1   10    1        0.0008004482
    5    1   11    1       -0.0002464161
    5    1   12    1        0.0000001422
    5    1   13    1       -0.0000000744
    5    1    2    2       -0.0000024481
    5    1    3    2        0.0000042513
    5    1    4    2       -0.0000001453
    5    1    5    2        0.0015870073
    5    1    6    2        0.0000027825
    5    1    7    2       -0.0000020656
    5    1    8    2       -0.0000012561
    5    1    9    2        0.0000006166
    5    1   10    2        0.0011420263
    5    1   11    2       -0.0003517668
    5    1   12    2        0.0000006278
    5    1   13    2       -0.0000009707
    5    1    3    3       -0.0000088545
    5    1    4    3       -0.0000000187
    5    1    5    3        0.0002021382
    5    1    6    3       -0.0000042580
    5    1    7    3        0.0000038060
    5    1    8    3        0.0000005115
    5    1    9    3        0.0000025184
    5    1   10    3        0.0009390551
    5    1   11    3       -0.0002894236
    5    1   12    3        0.0000008871
    5    1   13    3        0.0000012803
    5    1    4    4       -0.0000032892
    5    1    5    4       -0.0000006827
    5    1    6    4        0.0002956254
    5    1    7    4       -0.0000001340
    5    1    8    4        0.0000000317
    5    1    9    4        0.0000000495
    5    1   10    4        0.0000025392
    5    1   11    4        0.0000044810
    5    1   12    4       -0.0000000420
    5    1   13    4        0.0000001453
    5    1    5    5       -0.0000012979
    5    1    6    5       -0.0004362332
    5    1    7    5        0.0005966141
    5    1    8    5       -0.0001516953
    5    1    9    5       -0.0000904016
    5    1   10    5        0.0000023555
    5    1   11    5        0.0000008336
    5    1   12    5       -0.0004242086
    5    1   13    5       -0.0002763920
    5    1    6    6       -0.0000134631
    5    1    7    6        0.0000018187
    5    1    8    6        0.0000005199
    5    1    9    6       -0.0000027689
    5    1   10    6       -0.0003913211
    5    1   11    6        0.0004876830
    5    1   12    6       -0.0000027299
    5    1   13    6        0.0000017684
    5    1    7    7       -0.0000079225
    5    1    8    7        0.0000006061
    5    1    9    7        0.0000020900
    5    1   10    7        0.0004967919
    5    1   11    7       -0.0001524280
    5    1   12    7       -0.0000051420
    5    1   13    7       -0.0000012232
    5    1    8    8       -0.0000105183
    5    1    9    8        0.0000006817
    5    1   10    8       -0.0000626931
    5    1   11    8        0.0000192030
    5    1   12    8       -0.0000008980
    5    1   13    8        0.0000044881
    5    1    9    9       -0.0000114203
    5    1   10    9        0.0000366430
    5    1   11    9       -0.0000112155
    5    1   12    9       -0.0000040574
    5    1   13    9        0.0000007511
    5    1   10   10       -0.0000048509
    5    1   11   10       -0.0000027477
    5    1   12   10       -0.0005553976
    5    1   13   10       -0.0001964349
    5    1   11   11       -0.0000084636
    5    1   12   11        0.0001709073
    5    1   13   11        0.0000604986
    5    1   12   12       -0.0000118289
    5    1   13   12        0.0000001462
    5    1   13   13       -0.0000115994
    6    1    6    1        0.0000146686
    6    1    7    1        0.0000000009
    6    1    8    1       -0.0000000008
    6    1    9    1        0.0000000052
    6    1   10    1        0.0000000025
    6    1   11    1       -0.0000000360
    6    1   12    1       -0.0000000115
    6    1   13    1        0.0000000091
    6    1    2    2        0.0000000059
    6    1    3    2        0.0000000038
    6    1    4    2       -0.0000000994
    6    1    5    2        0.0000000616
    6    1    6    2        0.0001066638
    6    1    7    2        0.0000000017
    6    1    8    2       -0.0000000020
    6    1    9    2        0.0000000190
    6    1   10    2       -0.0000000088
    6    1   11    2       -0.0000001322
    6    1   12    2       -0.0000000401
    6    1   13    2        0.0000000352
    6    1    3    3        0.0000000031
    6    1    4    3        0.0000000415
    6    1    5    3       -0.0000000228
    6    1    6    3       -0.0000395536
    6    1    7    3        0.0000000006
    6    1    8    3       -0.0000000014
    6    1    9    3        0.0000000013
    6    1   10    3        0.0000000176
    6    1   11    3       -0.0000000660
    6    1   12    3        0.0000000052
    6    1   13    3       -0.0000000063
    6    1    4    4        0.0000727630
    6    1    5    4        0.0000493162
    6    1    6    4       -0.0000000316
    6    1    7    4       -0.0000000332
    6    1    8    4       -0.0000000119
    6    1    9    4        0.0000000080
    6    1   10    4        0.0000995159
    6    1   11    4        0.0000798371
    6    1   12    4        0.0000000202
    6    1   13    4        0.0000000453
    6    1    5    5       -0.0000727626
    6    1    6    5       -0.0000000646
    6    1    7    5        0.0000000222
    6    1    8    5       -0.0000000005
    6    1    9    5       -0.0000000377
    6    1   10    5       -0.0000798291
    6    1   11    5        0.0000995011
    6    1   12    5       -0.0000000141
    6    1   13    5        0.0000000441
    6    1    6    6        0.0000000001
    6    1    7    6        0.0000628503
    6    1    8    6       -0.0000133169
    6    1    9    6       -0.0000827332
    6    1   10    6       -0.0000000692
    6    1   11    6       -0.0000000319
    6    1   12    6       -0.0000765590
    6    1   13    6       -0.0000002598
    6    1    7    7        0.0000000028
    6    1    8    7       -0.0000000027
    6    1    9    7        0.0000000258
    6    1   10    7       -0.0000000279
    6    1   11    7       -0.0000001456
    6    1   12    7       -0.0000000660
    6    1   13    7        0.0000000578
    6    1    8    8        0.0000000004
    6    1    9    8       -0.0000000029
    6    1   10    8        0.0000000056
    6    1   11    8       -0.0000000244
    6    1   12    8        0.0000000185
    6    1   13    8       -0.0000000162
    6    1    9    9       -0.0000000288
    6    1   10    9       -0.0000000094
    6    1   11    9        0.0000001040
    6    1   12    9        0.0000000243
    6    1   13    9       -0.0000000410
    6    1   10   10       -0.0000357671
    6    1   11   10        0.0000906946
    6    1   12   10        0.0000000156
    6    1   13   10        0.0000000521
    6    1   11   11        0.0000360167
    6    1   12   11        0.0000001199
    6    1   13   11        0.0000000254
    6    1   12   12        0.0000000658
    6    1   13   12       -0.0000000101
    6    1   13   13       -0.0000000358
    7    1    7    1        0.0008627445
    7    1    8    1       -0.0007511624
    7    1    9    1        0.0004852823
    7    1   10    1        0.0000000647
    7    1   11    1        0.0000007595
    7    1   12    1       -0.0008968247
    7    1   13    1       -0.0012141336
    7    1    2    2        0.0005193798
    7    1    3    2        0.0002868750
    7    1    4    2       -0.0000000415
    7    1    5    2       -0.0000000540
    7    1    6    2        0.0000000019
    7    1    7    2        0.0000125677
    7    1    8    2        0.0001516635
    7    1    9    2        0.0001100233
    7    1   10    2       -0.0000000278
    7    1   11    2       -0.0000000775
    7    1   12    2        0.0000358388
    7    1   13    2        0.0001943246
    7    1    3    3        0.0002539688
    7    1    4    3        0.0000000128
    7    1    5    3        0.0000000294
    7    1    6    3       -0.0000000003
    7    1    7    3       -0.0000563943
    7    1    8    3       -0.0002283394
    7    1    9    3        0.0001462098
    7    1   10    3       -0.0000000261
    7    1   11    3        0.0000000571
    7    1   12    3        0.0000253198
    7    1   13    3       -0.0000493957
    7    1    4    4        0.0003650795
    7    1    5    4       -0.0000000051
    7    1    6    4       -0.0000000459
    7    1    7    4       -0.0000000188
    7    1    8    4       -0.0000000075
    7    1    9    4       -0.0000000558
    7    1   10    4        0.0000801264
    7    1   11    4        0.0002599559
    7    1   12    4       -0.0000000022
    7    1   13    4        0.0000001447
    7    1    5    5        0.0003651141
    7    1    6    5        0.0000000174
    7    1    7    5       -0.0000000227
    7    1    8    5       -0.0000000020
    7    1    9    5        0.0000000365
    7    1   10    5        0.0002600239
    7    1   11    5       -0.0000800987
    7    1   12    5        0.0000000037
    7    1   13    5       -0.0000000303
    7    1    6    6        0.0001995290
    7    1    7    6        0.0000000019
    7    1    8    6       -0.0000000028
    7    1    9    6        0.0000000269
    7    1   10    6       -0.0000000314
    7    1   11    6       -0.0000002444
    7    1   12    6       -0.0000000442
    7    1   13    6        0.0000000373
    7    1    7    7        0.0000904906
    7    1    8    7       -0.0000430431
    7    1    9    7       -0.0000533719
    7    1   10    7       -0.0000000065
    7    1   11    7        0.0000000479
    7    1   12    7       -0.0000039151
    7    1   13    7       -0.0001129480
    7    1    8    8       -0.0001260936
    7    1    9    8       -0.0001320621
    7    1   10    8       -0.0000000016
    7    1   11    8        0.0000000720
    7    1   12    8       -0.0000361771
    7    1   13    8       -0.0002549175
    7    1    9    9        0.0001203799
    7    1   10    9        0.0000000439
    7    1   11    9        0.0000001428
    7    1   12    9        0.0000658963
    7    1   13    9       -0.0002838734
    7    1   10   10        0.0002686480
    7    1   11   10       -0.0000000315
    7    1   12   10        0.0000000185
    7    1   13   10        0.0000000194
    7    1   11   11        0.0002686245
    7    1   12   11        0.0000000063
    7    1   13   11        0.0000002027
    7    1   12   12        0.0000903354
    7    1   13   12        0.0000084463
    7    1   13   13       -0.0003161174
    8    1    8    1        0.0007421699
    8    1    9    1       -0.0003206295
    8    1   10    1       -0.0000000631
    8    1   11    1       -0.0000007188
    8    1   12    1        0.0007683998
    8    1   13    1        0.0012139385
    8    1    2    2        0.0003840176
    8    1    3    2        0.0002590626
    8    1    4    2       -0.0000000447
    8    1    5    2        0.0000000192
    8    1    6    2       -0.0000000018
    8    1    7    2        0.0001627735
    8    1    8    2       -0.0001108745
    8    1    9    2        0.0001457430
    8    1   10    2        0.0000000133
    8    1   11    2        0.0000001187
    8    1   12    2       -0.0001745521
    8    1   13    2       -0.0001967815
    8    1    3    3        0.0002053899
    8    1    4    3       -0.0000000139
    8    1    5    3       -0.0000000071
    8    1    6    3        0.0000000009
    8    1    7    3        0.0001098545
    8    1    8    3       -0.0001113288
    8    1    9    3        0.0001400853
    8    1   10    3        0.0000000231
    8    1   11    3        0.0000000953
    8    1   12    3       -0.0001233011
    8    1   13    3       -0.0001292344
    8    1    4    4        0.0001388590
    8    1    5    4       -0.0000000151
    8    1    6    4       -0.0000000083
    8    1    7    4       -0.0000000150
    8    1    8    4       -0.0000000071
    8    1    9    4       -0.0000000344
    8    1   10    4        0.0000418675
    8    1   11    4        0.0001355548
    8    1   12    4        0.0000000393
    8    1   13    4        0.0000000787
    8    1    5    5        0.0001388800
    8    1    6    5       -0.0000000137
    8    1    7    5        0.0000000121
    8    1    8    5       -0.0000000145
    8    1    9    5        0.0000000024
    8    1   10    5        0.0001355206
    8    1   11    5       -0.0000417280
    8    1   12    5        0.0000000125
    8    1   13    5       -0.0000000203
    8    1    6    6        0.0000320698
    8    1    7    6       -0.0000000012
    8    1    8    6       -0.0000000001
    8    1    9    6        0.0000000064
    8    1   10    6       -0.0000000228
    8    1   11    6       -0.0000000367
    8    1   12    6       -0.0000000057
    8    1   13    6        0.0000000063
    8    1    7    7        0.0000945323
    8    1    8    7       -0.0000628296
    8    1    9    7        0.0000595727
    8    1   10    7        0.0000000103
    8    1   11    7        0.0000000628
    8    1   12    7       -0.0000905309
    8    1   13    7       -0.0001114732
    8    1    8    8        0.0000603700
    8    1    9    8       -0.0000454290
    8    1   10    8        0.0000000028
    8    1   11    8       -0.0000000652
    8    1   12    8        0.0000593757
    8    1   13    8        0.0001002264
    8    1    9    9        0.0001138300
    8    1   10    9       -0.0000000051
    8    1   11    9        0.0000000495
    8    1   12    9       -0.0000671154
    8    1   13    9       -0.0000796522
    8    1   10   10        0.0001678163
    8    1   11   10        0.0000002047
    8    1   12   10        0.0000000215
    8    1   13   10       -0.0000000072
    8    1   11   11        0.0001678076
    8    1   12   11       -0.0000000324
    8    1   13   11       -0.0000000213
    8    1   12   12        0.0001046281
    8    1   13   12        0.0000982705
    8    1   13   13        0.0001789291
    9    1    9    1        0.0004635242
    9    1   10    1        0.0000000028
    9    1   11    1        0.0000002016
    9    1   12    1       -0.0005261286
    9    1   13    1       -0.0004977253
    9    1    2    2        0.0020415928
    9    1    3    2        0.0014282629
    9    1    4    2       -0.0000004062
    9    1    5    2        0.0000001018
    9    1    6    2        0.0000000303
    9    1    7    2        0.0001754052
    9    1    8    2       -0.0000708084
    9    1    9    2        0.0007917703
    9    1   10    2        0.0000000021
    9    1   11    2       -0.0000000082
    9    1   12    2       -0.0001325290
    9    1   13    2       -0.0000396646
    9    1    3    3        0.0011763060
    9    1    4    3       -0.0000000916
    9    1    5    3       -0.0000000100
    9    1    6    3       -0.0000000095
    9    1    7    3        0.0002226845
    9    1    8    3       -0.0006020052
    9    1    9    3        0.0007714992
    9    1   10    3        0.0000000305
    9    1   11    3        0.0000001994
    9    1   12    3       -0.0001612587
    9    1   13    3       -0.0003200869
    9    1    4    4        0.0008395226
    9    1    5    4        0.0000000146
    9    1    6    4       -0.0000000936
    9    1    7    4       -0.0000001569
    9    1    8    4        0.0000000210
    9    1    9    4       -0.0000001723
    9    1   10    4        0.0002168104
    9    1   11    4        0.0007036669
    9    1   12    4        0.0000000658
    9    1   13    4        0.0000004544
    9    1    5    5        0.0008395455
    9    1    6    5       -0.0000001097
    9    1    7    5        0.0000000362
    9    1    8    5        0.0000000091
    9    1    9    5        0.0000000242
    9    1   10    5        0.0007038051
    9    1   11    5       -0.0002168974
    9    1   12    5       -0.0000000419
    9    1   13    5       -0.0000000834
    9    1    6    6        0.0002787906
    9    1    7    6        0.0000000205
    9    1    8    6       -0.0000000050
    9    1    9    6       -0.0000000061
    9    1   10    6       -0.0000001620
    9    1   11    6       -0.0000002513
    9    1   12    6       -0.0000000153
    9    1   13    6       -0.0000000099
    9    1    7    7        0.0003006450
    9    1    8    7       -0.0001042734
    9    1    9    7        0.0002036929
    9    1   10    7        0.0000000166
    9    1   11    7        0.0000001175
    9    1   12    7       -0.0002720806
    9    1   13    7       -0.0003020482
    9    1    8    8       -0.0001014179
    9    1    9    8       -0.0003331594
    9    1   10    8        0.0000000021
    9    1   11    8       -0.0000000364
    9    1   12    8       -0.0000180238
    9    1   13    8       -0.0001829617
    9    1    9    9        0.0005940490
    9    1   10    9        0.0000000103
    9    1   11    9        0.0000003579
    9    1   12    9       -0.0001702776
    9    1   13    9       -0.0006033529
    9    1   10   10        0.0007823752
    9    1   11   10        0.0000002720
    9    1   12   10        0.0000000289
    9    1   13   10        0.0000000472
    9    1   11   11        0.0007822891
    9    1   12   11        0.0000000112
    9    1   13   11        0.0000003365
    9    1   12   12        0.0004101076
    9    1   13   12        0.0001270169
    9    1   13   13       -0.0001856644
   10    1   10    1        0.0010096568
   10    1   11    1        0.0000015023
   10    1   12    1        0.0000001570
   10    1   13    1       -0.0000000375
   10    1    2    2       -0.0000027380
   10    1    3    2        0.0000049071
   10    1    4    2        0.0005240574
   10    1    5    2        0.0016952349
   10    1    6    2        0.0000011173
   10    1    7    2       -0.0000023613
   10    1    8    2       -0.0000015623
   10    1    9    2        0.0000007402
   10    1   10    2        0.0014122201
   10    1   11    2        0.0000015141
   10    1   12    2        0.0000008150
   10    1   13    2       -0.0000008859
   10    1    3    3       -0.0000099394
   10    1    4    3        0.0000945750
   10    1    5    3        0.0003065436
   10    1    6    3       -0.0000017344
   10    1    7    3        0.0000043146
   10    1    8    3        0.0000008042
   10    1    9    3        0.0000026134
   10    1   10    3        0.0011118255
   10    1   11    3        0.0000010521
   10    1   12    3        0.0000009393
   10    1   13    3        0.0000015147
   10    1    4    4       -0.0000030434
   10    1    5    4       -0.0000002676
   10    1    6    4        0.0004601415
   10    1    7    4        0.0001952364
   10    1    8    4       -0.0000447665
   10    1    9    4       -0.0000130839
   10    1   10    4        0.0000017231
   10    1   11    4        0.0000041155
   10    1   12    4       -0.0001462468
   10    1   13    4       -0.0000874705
   10    1    5    5       -0.0000021338
   10    1    6    5       -0.0003685168
   10    1    7    5        0.0006314348
   10    1    8    5       -0.0001445161
   10    1    9    5       -0.0000422407
   10    1   10    5        0.0000035955
   10    1   11    5       -0.0000002387
   10    1   12    5       -0.0004723889
   10    1   13    5       -0.0002832652
   10    1    6    6       -0.0000155459
   10    1    7    6        0.0000007311
   10    1    8    6        0.0000002562
   10    1    9    6       -0.0000012347
   10    1   10    6       -0.0002504538
   10    1   11    6        0.0006339281
   10    1   12    6       -0.0000011178
   10    1   13    6        0.0000009573
   10    1    7    7       -0.0000089913
   10    1    8    7        0.0000006471
   10    1    9    7        0.0000024208
   10    1   10    7        0.0006037702
   10    1   11    7        0.0000014698
   10    1   12    7       -0.0000056397
   10    1   13    7       -0.0000012278
   10    1    8    8       -0.0000118956
   10    1    9    8        0.0000006957
   10    1   10    8       -0.0001120840
   10    1   11    8       -0.0000002925
   10    1   12    8       -0.0000009645
   10    1   13    8        0.0000049115
   10    1    9    9       -0.0000128778
   10    1   10    9        0.0001029745
   10    1   11    9        0.0000001078
   10    1   12    9       -0.0000046142
   10    1   13    9        0.0000011616
   10    1   10   10       -0.0000063780
   10    1   11   10       -0.0000010329
   10    1   12   10       -0.0006684149
   10    1   13   10       -0.0002458690
   10    1   11   11       -0.0000087689
   10    1   12   11       -0.0000011318
   10    1   13   11       -0.0000003379
   10    1   12   12       -0.0000133918
   10    1   13   12        0.0000002165
   10    1   13   13       -0.0000131488
   11    1   11    1        0.0010096483
   11    1   12    1       -0.0000006080
   11    1   13    1       -0.0000005989
   11    1    2    2        0.0000000556
   11    1    3    2        0.0000013590
   11    1    4    2        0.0016958546
   11    1    5    2       -0.0005218320
   11    1    6    2       -0.0000061854
   11    1    7    2       -0.0000004822
   11    1    8    2       -0.0000002982
   11    1    9    2        0.0000000559
   11    1   10    2        0.0000012849
   11    1   11    2        0.0014120383
   11    1   12    2        0.0000002822
   11    1   13    2        0.0000006507
   11    1    3    3       -0.0000015486
   11    1    4    3        0.0003065102
   11    1    5    3       -0.0000944215
   11    1    6    3        0.0000092080
   11    1    7    3        0.0000008496
   11    1    8    3       -0.0000000450
   11    1    9    3        0.0000004821
   11    1   10    3        0.0000006574
   11    1   11    3        0.0011116491
   11    1   12    3        0.0000001766
   11    1   13    3        0.0000008170
   11    1    4    4        0.0000018056
   11    1    5    4        0.0000014132
   11    1    6    4        0.0003691599
   11    1    7    4        0.0006317093
   11    1    8    4       -0.0001446665
   11    1    9    4       -0.0000422374
   11    1   10    4       -0.0000031290
   11    1   11    4       -0.0000019861
   11    1   12    4       -0.0004728245
   11    1   13    4       -0.0002832301
   11    1    5    5       -0.0000022922
   11    1    6    5        0.0004596293
   11    1    7    5       -0.0001944148
   11    1    8    5        0.0000444848
   11    1    9    5        0.0000130221
   11    1   10    5        0.0000035745
   11    1   11    5       -0.0000039356
   11    1   12    5        0.0001453020
   11    1   13    5        0.0000873057
   11    1    6    6       -0.0000028911
   11    1    7    6       -0.0000040270
   11    1    8    6       -0.0000014359
   11    1    9    6        0.0000059466
   11    1   10    6        0.0006334702
   11    1   11    6        0.0002513142
   11    1   12    6        0.0000059968
   11    1   13    6       -0.0000032707
   11    1    7    7       -0.0000016732
   11    1    8    7        0.0000001159
   11    1    9    7        0.0000003612
   11    1   10    7        0.0000018383
   11    1   11    7        0.0006036948
   11    1   12    7       -0.0000008635
   11    1   13    7        0.0000000333
   11    1    8    8       -0.0000023464
   11    1    9    8        0.0000000420
   11    1   10    8       -0.0000005770
   11    1   11    8       -0.0001122040
   11    1   12    8       -0.0000003019
   11    1   13    8        0.0000007733
   11    1    9    9       -0.0000023302
   11    1   10    9        0.0000000860
   11    1   11    9        0.0001029169
   11    1   12    9       -0.0000007781
   11    1   13    9        0.0000001494
   11    1   10   10       -0.0000039948
   11    1   11   10        0.0000058288
   11    1   12   10       -0.0000010527
   11    1   13   10       -0.0000004946
   11    1   11   11        0.0000012275
   11    1   12   11       -0.0006685684
   11    1   13   11       -0.0002457305
   11    1   12   12       -0.0000025899
   11    1   13   12       -0.0000004199
   11    1   13   13       -0.0000029407
   12    1   12    1        0.0009363212
   12    1   13    1        0.0012413217
   12    1    2    2       -0.0006726932
   12    1    3    2       -0.0004025894
   12    1    4    2        0.0000004142
   12    1    5    2        0.0000002890
   12    1    6    2       -0.0000000676
   12    1    7    2       -0.0000435882
   12    1    8    2       -0.0001329285
   12    1    9    2       -0.0001811834
   12    1   10    2        0.0000002809
   12    1   11    2        0.0000002438
   12    1   12    2        0.0000050479
   12    1   13    2       -0.0001707078
   12    1    3    3       -0.0003500865
   12    1    4    3        0.0000000203
   12    1    5    3        0.0000000084
   12    1    6    3        0.0000000256
   12    1    7    3        0.0000185390
   12    1    8    3        0.0002625866
   12    1    9    3       -0.0002158053
   12    1   10    3        0.0000002283
   12    1   11    3        0.0000000781
   12    1   12    3        0.0000003312
   12    1   13    3        0.0000780894
   12    1    4    4       -0.0004314275
   12    1    5    4       -0.0000000228
   12    1    6    4        0.0000001923
   12    1    7    4        0.0000001877
   12    1    8    4       -0.0000000509
   12    1    9    4        0.0000000399
   12    1   10    4       -0.0001008688
   12    1   11    4       -0.0003270751
   12    1   12    4       -0.0000001179
   12    1   13    4       -0.0000002732
   12    1    5    5       -0.0004313765
   12    1    6    5       -0.0000000108
   12    1    7    5        0.0000001230
   12    1    8    5       -0.0000000390
   12    1    9    5       -0.0000000546
   12    1   10    5       -0.0003270453
   12    1   11    5        0.0001007041
   12    1   12    5       -0.0000000860
   12    1   13    5       -0.0000000224
   12    1    6    6       -0.0002201860
   12    1    7    6       -0.0000000485
   12    1    8    6        0.0000000146
   12    1    9    6        0.0000000249
   12    1   10    6        0.0000000936
   12    1   11    6        0.0000004200
   12    1   12    6        0.0000000941
   12    1   13    6       -0.0000000325
   12    1    7    7       -0.0001086228
   12    1    8    7        0.0000522925
   12    1    9    7        0.0000302108
   12    1   10    7        0.0000001311
   12    1   11    7        0.0000000350
   12    1   12    7        0.0000310581
   12    1   13    7        0.0001354991
   12    1    8    8        0.0001226041
   12    1    9    8        0.0001536824
   12    1   10    8       -0.0000000122
   12    1   11    8       -0.0000000646
   12    1   12    8        0.0000282980
   12    1   13    8        0.0002459891
   12    1    9    9       -0.0001755159
   12    1   10    9       -0.0000000310
   12    1   11    9       -0.0000001669
   12    1   12    9       -0.0000444990
   12    1   13    9        0.0003199069
   12    1   10   10       -0.0003491426
   12    1   11   10       -0.0000000955
   12    1   12   10       -0.0000001615
   12    1   13   10       -0.0000000825
   12    1   11   11       -0.0003491535
   12    1   12   11       -0.0000001134
   12    1   13   11       -0.0000002774
   12    1   12   12       -0.0001138604
   12    1   13   12       -0.0000230337
   12    1   13   13        0.0003089862
   13    1   13    1        0.0019921976
   13    1    2    2        0.0007877482
   13    1    3    2        0.0005416686
   13    1    4    2        0.0000009048
   13    1    5    2       -0.0000001758
   13    1    6    2        0.0000000575
   13    1    7    2        0.0002505237
   13    1    8    2       -0.0001921516
   13    1    9    2        0.0003036182
   13    1   10    2        0.0000001119
   13    1   11    2        0.0000010083
   13    1   12    2       -0.0002612121
   13    1   13    2       -0.0003091742
   13    1    3    3        0.0004278976
   13    1    4    3        0.0000001675
   13    1    5    3       -0.0000000271
   13    1    6    3       -0.0000000171
   13    1    7    3        0.0001816472
   13    1    8    3       -0.0002245780
   13    1    9    3        0.0002812306
   13    1   10    3        0.0000000900
   13    1   11    3        0.0000008118
   13    1   12    3       -0.0001908915
   13    1   13    3       -0.0002392088
   13    1    4    4        0.0002598202
   13    1    5    4        0.0000000132
   13    1    6    4        0.0000002081
   13    1    7    4        0.0000003366
   13    1    8    4       -0.0000000864
   13    1    9    4       -0.0000000827
   13    1   10    4        0.0000765656
   13    1   11    4        0.0002479515
   13    1   12    4       -0.0000002256
   13    1   13    4       -0.0000000199
   13    1    5    5        0.0002597624
   13    1    6    5        0.0000002200
   13    1    7    5       -0.0000000619
   13    1    8    5        0.0000000092
   13    1    9    5        0.0000000166
   13    1   10    5        0.0002478319
   13    1   11    5       -0.0000762911
   13    1   12    5        0.0000000666
   13    1   13    5       -0.0000000035
   13    1    6    6        0.0000639359
   13    1    7    6        0.0000000410
   13    1    8    6       -0.0000000126
   13    1    9    6       -0.0000000389
   13    1   10    6        0.0000003081
   13    1   11    6        0.0000001095
   13    1   12    6       -0.0000000480
   13    1   13    6       -0.0000000024
   13    1    7    7        0.0001669310
   13    1    8    7       -0.0001157437
   13    1    9    7        0.0001108508
   13    1   10    7        0.0000000535
   13    1   11    7        0.0000004643
   13    1   12    7       -0.0001635125
   13    1   13    7       -0.0002086321
   13    1    8    8        0.0000819629
   13    1    9    8       -0.0001071436
   13    1   10    8       -0.0000000195
   13    1   11    8       -0.0000001714
   13    1   12    8        0.0000940036
   13    1   13    8        0.0001313951
   13    1    9    9        0.0002203160
   13    1   10    9        0.0000000212
   13    1   11    9        0.0000001792
   13    1   12    9       -0.0001158899
   13    1   13    9       -0.0001835731
   13    1   10   10        0.0003011107
   13    1   11   10        0.0000003482
   13    1   12   10       -0.0000000091
   13    1   13   10       -0.0000000168
   13    1   11   11        0.0003011400
   13    1   12   11       -0.0000004528
   13    1   13   11       -0.0000001560
   13    1   12   12        0.0002001647
   13    1   13   12        0.0001800089
   13    1   13   13        0.0002475270
    2    2    2    2        0.1181094711
    2    2    3    2        0.0335013561
    2    2    4    2       -0.0000193149
    2    2    5    2       -0.0000363414
    2    2    6    2        0.0000000566
    2    2    7    2        0.0019589475
    2    2    8    2       -0.0032558293
    2    2    9    2        0.0107428735
    2    2   10    2       -0.0000092933
    2    2   11    2        0.0000018877
    2    2   12    2        0.0007731808
    2    2   13    2       -0.0006083657
    2    2    3    3        0.0882820111
    2    2    4    3        0.0000108852
    2    2    5    3        0.0000206515
    2    2    6    3        0.0000000243
    2    2    7    3        0.0028597369
    2    2    8    3       -0.0106841021
    2    2    9    3        0.0218680438
    2    2   10    3       -0.0000227068
    2    2   11    3        0.0000045065
    2    2   12    3       -0.0009054290
    2    2   13    3       -0.0033367594
    2    2    4    4        0.0918610293
    2    2    5    4        0.0000000636
    2    2    6    4       -0.0000212041
    2    2    7    4       -0.0000032403
    2    2    8    4       -0.0000062189
    2    2    9    4       -0.0000006550
    2    2   10    4        0.0064996424
    2    2   11    4        0.0210934499
    2    2   12    4        0.0000005048
    2    2   13    4        0.0000104626
    2    2    5    5        0.0918620473
    2    2    6    5        0.0000110863
    2    2    7    5       -0.0000058608
    2    2    8    5       -0.0000104985
    2    2    9    5        0.0000095783
    2    2   10    5        0.0210962286
    2    2   11    5       -0.0065022456
    2    2   12    5        0.0000026860
    2    2   13    5       -0.0000039907
    2    2    6    6        0.0746128093
    2    2    7    6        0.0000000825
    2    2    8    6       -0.0000001303
    2    2    9    6        0.0000014301
    2    2   10    6        0.0000026118
    2    2   11    6       -0.0000324152
    2    2   12    6       -0.0000024546
    2    2   13    6        0.0000021230
    2    2    7    7        0.0769307912
    2    2    8    7       -0.0016521165
    2    2    9    7        0.0048499759
    2    2   10    7       -0.0000053554
    2    2   11    7        0.0000042482
    2    2   12    7       -0.0154163135
    2    2   13    7       -0.0073868822
    2    2    8    8        0.0662113970
    2    2    9    8       -0.0041264355
    2    2   10    8       -0.0000023397
    2    2   11    8       -0.0000062708
    2    2   12    8       -0.0019092434
    2    2   13    8        0.0074109840
    2    2    9    9        0.0742570431
    2    2   10    9        0.0000215053
    2    2   11    9        0.0000099217
    2    2   12    9       -0.0033091856
    2    2   13    9       -0.0087118067
    2    2   10   10        0.0830421934
    2    2   11   10        0.0000036357
    2    2   12   10        0.0000100415
    2    2   13   10       -0.0000060228
    2    2   11   11        0.0830390943
    2    2   12   11       -0.0000014742
    2    2   13   11        0.0000042842
    2    2   12   12        0.0781991013
    2    2   13   12        0.0022270380
    2    2   13   13        0.0671743072
    3    2    3    2        0.0218916241
    3    2    4    2        0.0000329622
    3    2    5    2        0.0000622341
    3    2    6    2        0.0000000284
    3    2    7    2        0.0019053610
    3    2    8    2       -0.0041846256
    3    2    9    2        0.0096572231
    3    2   10    2        0.0000127075
    3    2   11    2        0.0000065998
    3    2   12    2       -0.0002193781
    3    2   13    2       -0.0018463839
    3    2    3    3        0.0183713050
    3    2    4    3       -0.0000208216
    3    2    5    3       -0.0000391912
    3    2    6    3        0.0000000186
    3    2    7    3        0.0026248053
    3    2    8    3       -0.0046568163
    3    2    9    3        0.0124498391
    3    2   10    3        0.0000479349
    3    2   11    3        0.0000150829
    3    2   12    3       -0.0010072777
    3    2   13    3       -0.0029275974
    3    2    4    4        0.0150542697
    3    2    5    4       -0.0000002111
    3    2    6    4        0.0000322810
    3    2    7    4        0.0000057295
    3    2    8    4        0.0000079446
    3    2    9    4       -0.0000087603
    3    2   10    4        0.0035443561
    3    2   11    4        0.0114995965
    3    2   12    4       -0.0000021078
    3    2   13    4        0.0000066149
    3    2    5    5        0.0150546871
    3    2    6    5       -0.0000171739
    3    2    7    5        0.0000109931
    3    2    8    5        0.0000156486
    3    2    9    5       -0.0000106818
    3    2   10    5        0.0115007942
    3    2   11    5       -0.0035445098
    3    2   12    5       -0.0000033862
    3    2   13    5       -0.0000004167
    3    2    6    6        0.0054913311
    3    2    7    6        0.0000000175
    3    2    8    6       -0.0000000548
    3    2    9    6        0.0000005331
    3    2   10    6       -0.0000079617
    3    2   11    6        0.0000348157
    3    2   12    6       -0.0000009961
    3    2   13    6        0.0000008824
    3    2    7    7        0.0080988110
    3    2    8    7       -0.0008606221
    3    2    9    7        0.0031981569
    3    2   10    7        0.0000098444
    3    2   11    7        0.0000047011
    3    2   12    7       -0.0078829136
    3    2   13    7       -0.0032369146
    3    2    8    8        0.0029614421
    3    2    9    8       -0.0028026141
    3    2   10    8        0.0000038506
    3    2   11    8       -0.0000024477
    3    2   12    8       -0.0004797195
    3    2   13    8        0.0034750436
    3    2    9    9        0.0100673203
    3    2   10    9       -0.0000390957
    3    2   11    9       -0.0000045671
    3    2   12    9       -0.0027929088
    3    2   13    9       -0.0034380195
    3    2   10   10        0.0130187439
    3    2   11   10        0.0000033696
    3    2   12   10       -0.0000167092
    3    2   13   10        0.0000095479
    3    2   11   11        0.0130167561
    3    2   12   11       -0.0000056111
    3    2   13   11        0.0000050447
    3    2   12   12        0.0097707294
    3    2   13   12        0.0021464960
    3    2   13   13        0.0042364244
    4    2    4    2        0.0162854513
    4    2    5    2        0.0000002139
    4    2    6    2       -0.0000750504
    4    2    7    2       -0.0000113183
    4    2    8    2       -0.0000176856
    4    2    9    2       -0.0000003288
    4    2   10    2        0.0023651933
    4    2   11    2        0.0076793877
    4    2   12    2        0.0000041554
    4    2   13    2       -0.0000001384
    4    2    3    3       -0.0000671674
    4    2    4    3       -0.0018159278
    4    2    5    3       -0.0000001368
    4    2    6    3        0.0001111692
    4    2    7    3        0.0000210845
    4    2    8    3        0.0000213866
    4    2    9    3        0.0000218419
    4    2   10    3        0.0025460924
    4    2   11    3        0.0082605070
    4    2   12    3        0.0000051729
    4    2   13    3        0.0000058567
    4    2    4    4        0.0000152136
    4    2    5    4        0.0000108531
    4    2    6    4        0.0044606236
    4    2    7    4        0.0013498234
    4    2    8    4        0.0030482271
    4    2    9    4       -0.0026940782
    4    2   10    4       -0.0000339672
    4    2   11    4       -0.0000129205
    4    2   12    4       -0.0008940808
    4    2   13    4        0.0010506641
    4    2    5    5       -0.0000511017
    4    2    6    5        0.0030232154
    4    2    7    5       -0.0000015048
    4    2    8    5        0.0000003135
    4    2    9    5        0.0000001688
    4    2   10    5        0.0000635246
    4    2   11    5       -0.0000448700
    4    2   12    5       -0.0000000464
    4    2   13    5        0.0000006766
    4    2    6    6       -0.0000997377
    4    2    7    6       -0.0000279285
    4    2    8    6       -0.0000451930
    4    2    9    6        0.0000620941
    4    2   10    6        0.0056417912
    4    2   11    6        0.0045270505
    4    2   12    6        0.0000728139
    4    2   13    6       -0.0000454894
    4    2    7    7       -0.0000544210
    4    2    8    7        0.0000012622
    4    2    9    7        0.0000115234
    4    2   10    7        0.0007301276
    4    2   11    7        0.0023185151
    4    2   12    7       -0.0000382823
    4    2   13    7       -0.0000023691
    4    2    8    8       -0.0000778064
    4    2    9    8       -0.0000014054
    4    2   10    8       -0.0001253102
    4    2   11    8       -0.0003958786
    4    2   12    8       -0.0000034202
    4    2   13    8        0.0000368251
    4    2    9    9       -0.0000857468
    4    2   10    9       -0.0007795566
    4    2   11    9       -0.0025320329
    4    2   12    9       -0.0000269475
    4    2   13    9        0.0000210825
    4    2   10   10       -0.0000858938
    4    2   11   10        0.0000771041
    4    2   12   10       -0.0007747517
    4    2   13   10        0.0004114895
    4    2   11   11       -0.0000190132
    4    2   12   11       -0.0025064989
    4    2   13   11        0.0013445782
    4    2   12   12       -0.0000875134
    4    2   13   12        0.0000090482
    4    2   13   13       -0.0000915603
    5    2    5    2        0.0162857509
    5    2    6    2        0.0000397471
    5    2    7    2       -0.0000213037
    5    2    8    2       -0.0000328881
    5    2    9    2        0.0000032999
    5    2   10    2        0.0076809307
    5    2   11    2       -0.0023679314
    5    2   12    2        0.0000089480
    5    2   13    2       -0.0000088614
    5    2    3    3       -0.0001265750
    5    2    4    3       -0.0000001244
    5    2    5    3       -0.0018157633
    5    2    6    3       -0.0000590037
    5    2    7    3        0.0000399381
    5    2    8    3        0.0000408065
    5    2    9    3        0.0000453659
    5    2   10    3        0.0082615007
    5    2   11    3       -0.0025461402
    5    2   12    3        0.0000102279
    5    2   13    3        0.0000017950
    5    2    4    4       -0.0000384444
    5    2    5    4       -0.0000249257
    5    2    6    4        0.0030228881
    5    2    7    4       -0.0000013854
    5    2    8    4        0.0000002706
    5    2    9    4        0.0000001364
    5    2   10    4        0.0000432288
    5    2   11    4        0.0000612028
    5    2   12    4       -0.0000000684
    5    2   13    4        0.0000007078
    5    2    5    5       -0.0000291079
    5    2    6    5       -0.0044598218
    5    2    7    5        0.0013513823
    5    2    8    5        0.0030484401
    5    2    9    5       -0.0026943720
    5    2   10    5        0.0000382355
    5    2   11    5        0.0000095874
    5    2   12    5       -0.0008934821
    5    2   13    5        0.0010496812
    5    2    6    6       -0.0001878275
    5    2    7    6        0.0000149411
    5    2    8    6        0.0000236810
    5    2    9    6       -0.0000346200
    5    2   10    6       -0.0045326043
    5    2   11    6        0.0056474541
    5    2   12    6       -0.0000397040
    5    2   13    6        0.0000280630
    5    2    7    7       -0.0001024617
    5    2    8    7        0.0000024892
    5    2    9    7        0.0000233479
    5    2   10    7        0.0023112294
    5    2   11    7       -0.0007037087
    5    2   12    7       -0.0000787075
    5    2   13    7       -0.0000070331
    5    2    8    8       -0.0001468490
    5    2    9    8       -0.0000027266
    5    2   10    8       -0.0003930383
    5    2   11    8        0.0001204634
    5    2   12    8       -0.0000052569
    5    2   13    8        0.0000696992
    5    2    9    9       -0.0001642496
    5    2   10    9       -0.0025324442
    5    2   11    9        0.0007812607
    5    2   12    9       -0.0000522781
    5    2   13    9        0.0000430797
    5    2   10   10       -0.0000785756
    5    2   11   10       -0.0000467580
    5    2   12   10       -0.0025046408
    5    2   13   10        0.0013450103
    5    2   11   11       -0.0001050169
    5    2   12   11        0.0007704853
    5    2   13   11       -0.0004156448
    5    2   12   12       -0.0001642729
    5    2   13   12        0.0000215544
    5    2   13   13       -0.0001756897
    6    2    6    2        0.0047414117
    6    2    7    2        0.0000000516
    6    2    8    2       -0.0000000214
    6    2    9    2        0.0000002101
    6    2   10    2        0.0000044186
    6    2   11    2       -0.0000259579
    6    2   12    2       -0.0000003068
    6    2   13    2        0.0000002329
    6    2    3    3        0.0000000318
    6    2    4    3        0.0000393908
    6    2    5    3       -0.0000208992
    6    2    6    3       -0.0031661739
    6    2    7    3       -0.0000000095
    6    2    8    3       -0.0000000147
    6    2    9    3        0.0000001281
    6    2   10    3        0.0000081970
    6    2   11    3       -0.0000440534
    6    2   12    3       -0.0000002290
    6    2   13    3        0.0000001719
    6    2    4    4        0.0015564317
    6    2    5    4        0.0010547125
    6    2    6    4       -0.0000251143
    6    2    7    4       -0.0000105292
    6    2    8    4       -0.0000193508
    6    2    9    4        0.0000206950
    6    2   10    4        0.0028596176
    6    2   11    4        0.0022944540
    6    2   12    4        0.0000086891
    6    2   13    4       -0.0000045277
    6    2    5    5       -0.0015558118
    6    2    6    5       -0.0000472497
    6    2    7    5        0.0000056675
    6    2    8    5        0.0000100822
    6    2    9    5       -0.0000118374
    6    2   10    5       -0.0022971313
    6    2   11    5        0.0028620677
    6    2   12    5       -0.0000051165
    6    2   13    5        0.0000043757
    6    2    6    6        0.0000000154
    6    2    7    6        0.0003154425
    6    2    8    6        0.0018313896
    6    2    9    6       -0.0040460754
    6    2   10    6       -0.0000476252
    6    2   11    6       -0.0000110928
    6    2   12    6       -0.0032532071
    6    2   13    6        0.0025653125
    6    2    7    7        0.0000000994
    6    2    8    7       -0.0000000975
    6    2    9    7        0.0000010170
    6    2   10    7        0.0000012128
    6    2   11    7       -0.0000192547
    6    2   12    7       -0.0000026360
    6    2   13    7        0.0000023529
    6    2    8    8        0.0000000152
    6    2    9    8        0.0000000239
    6    2   10    8        0.0000013391
    6    2   11    8       -0.0000076478
    6    2   12    8        0.0000004227
    6    2   13    8       -0.0000003835
    6    2    9    9       -0.0000008437
    6    2   10    9       -0.0000072475
    6    2   11    9        0.0000425171
    6    2   12    9        0.0000008097
    6    2   13    9       -0.0000009388
    6    2   10   10       -0.0001872320
    6    2   11   10        0.0004748825
    6    2   12   10       -0.0000036740
    6    2   13   10        0.0000029626
    6    2   11   11        0.0001888575
    6    2   12   11        0.0000208633
    6    2   13   11       -0.0000129919
    6    2   12   12        0.0000003690
    6    2   13   12        0.0000004827
    6    2   13   13       -0.0000011714
    7    2    7    2        0.0067842072
    7    2    8    2       -0.0012268407
    7    2    9    2        0.0022414791
    7    2   10    2       -0.0000059925
    7    2   11    2        0.0000009440
    7    2   12    2       -0.0044827217
    7    2   13    2       -0.0024001393
    7    2    3    3        0.0033405061
    7    2    4    3        0.0000068205
    7    2    5    3        0.0000129510
    7    2    6    3       -0.0000000152
    7    2    7    3       -0.0014751184
    7    2    8    3        0.0011011698
    7    2    9    3        0.0023811487
    7    2   10    3       -0.0000154527
[...]
   10    7   10   10       -0.0000110612
   10    7   11   10       -0.0000011688
   10    7   12   10       -0.0002013713
   10    7   13   10        0.0000831546
   10    7   11   11       -0.0000221541
   10    7   12   11       -0.0000038755
   10    7   13   11        0.0000005729
   10    7   12   12       -0.0000062101
   10    7   13   12        0.0000074427
   10    7   13   13       -0.0000135025
   11    7   11    7        0.0022986561
   11    7   12    7       -0.0000007152
   11    7   13    7       -0.0000001912
   11    7    8    8       -0.0000042717
   11    7    9    8       -0.0000006677
   11    7   10    8        0.0000003165
   11    7   11    8       -0.0002616280
   11    7   12    8       -0.0000003651
   11    7   13    8       -0.0000000254
   11    7    9    9       -0.0000050416
   11    7   10    9       -0.0000033935
   11    7   11    9       -0.0007738244
   11    7   12    9       -0.0000006784
   11    7   13    9       -0.0000005330
   11    7   10   10       -0.0000071292
   11    7   11   10        0.0000155482
   11    7   12   10       -0.0000030649
   11    7   13   10       -0.0000001085
   11    7   11   11        0.0000031236
   11    7   12   11       -0.0002014545
   11    7   13   11        0.0000827088
   11    7   12   12        0.0000004282
   11    7   13   12        0.0000009516
   11    7   13   13       -0.0000026068
   12    7   12    7        0.0098131098
   12    7   13    7        0.0016224685
   12    7    8    8       -0.0019313061
   12    7    9    8       -0.0001296752
   12    7   10    8       -0.0000087816
   12    7   11    8        0.0000009677
   12    7   12    8        0.0018775469
   12    7   13    8       -0.0041738879
   12    7    9    9       -0.0048353130
   12    7   10    9        0.0000520134
   12    7   11    9        0.0000080331
   12    7   12    9        0.0031158473
   12    7   13    9        0.0013020541
   12    7   10   10       -0.0060622638
   12    7   11   10       -0.0000024768
   12    7   12   10        0.0000310284
   12    7   13   10       -0.0000025004
   12    7   11   11       -0.0060616883
   12    7   12   11        0.0000064850
   12    7   13   11       -0.0000018158
   12    7   12   12       -0.0070865195
   12    7   13   12        0.0004435404
   12    7   13   13       -0.0023777861
   13    7   13    7        0.0030722304
   13    7    8    8       -0.0001814536
   13    7    9    8        0.0003649412
   13    7   10    8       -0.0000152970
   13    7   11    8       -0.0000029398
   13    7   12    8       -0.0003231076
   13    7   13    8        0.0000496835
   13    7    9    9       -0.0015419977
   13    7   10    9        0.0000119456
   13    7   11    9       -0.0000000914
   13    7   12    9        0.0000358992
   13    7   13    9        0.0037507963
   13    7   10   10       -0.0029077373
   13    7   11   10       -0.0000008904
   13    7   12   10        0.0000072741
   13    7   13   10        0.0000142066
   13    7   11   11       -0.0029083282
   13    7   12   11        0.0000012531
   13    7   13   11        0.0000021592
   13    7   12   12       -0.0020295602
   13    7   13   12        0.0004700444
   13    7   13   13        0.0002698436
    8    8    8    8        0.0652493621
    8    8    9    8        0.0004535089
    8    8   10    8       -0.0000128860
    8    8   11    8       -0.0000039830
    8    8   12    8        0.0009717796
    8    8   13    8        0.0030906709
    8    8    9    9        0.0605682997
    8    8   10    9        0.0000977426
    8    8   11    9        0.0000181731
    8    8   12    9        0.0009148782
    8    8   13    9        0.0012344963
    8    8   10   10        0.0636280600
    8    8   11   10       -0.0000007599
    8    8   12   10        0.0000414902
    8    8   13   10       -0.0000187309
    8    8   11   11        0.0636267379
    8    8   12   11        0.0000076667
    8    8   13   11       -0.0000033042
    8    8   12   12        0.0613064490
    8    8   13   12        0.0004191076
    8    8   13   13        0.0638902143
    9    8    9    8        0.0032343424
    9    8   10    8        0.0000361199
    9    8   11    8        0.0000067968
    9    8   12    8        0.0005515994
    9    8   13    8        0.0002971394
    9    8    9    9       -0.0015130039
    9    8   10    9       -0.0000047796
    9    8   11    9       -0.0000004035
    9    8   12    9       -0.0003951479
    9    8   13    9       -0.0006346889
    9    8   10   10       -0.0018436200
    9    8   11   10        0.0000011513
    9    8   12   10       -0.0000036988
    9    8   13   10       -0.0000267486
    9    8   11   11       -0.0018433342
    9    8   12   11        0.0000000115
    9    8   13   11       -0.0000059411
    9    8   12   12       -0.0005983124
    9    8   13   12       -0.0009577871
    9    8   13   13        0.0003168721
   10    8   10    8        0.0035850753
   10    8   11    8       -0.0000015981
   10    8   12    8        0.0000065638
   10    8   13    8        0.0000011907
   10    8    9    9       -0.0000267313
   10    8   10    9       -0.0009388440
   10    8   11    9        0.0000020835
   10    8   12    9       -0.0000069578
   10    8   13    9       -0.0000537746
   10    8   10   10       -0.0000161003
   10    8   11   10       -0.0000034554
   10    8   12   10       -0.0000565768
   10    8   13   10       -0.0011871666
   10    8   11   11       -0.0000113697
   10    8   12   11        0.0000010291
   10    8   13   11        0.0000012022
   10    8   12   12       -0.0000192816
   10    8   13   12       -0.0000241296
   10    8   13   13       -0.0000182039
   11    8   11    8        0.0035841812
   11    8   12    8        0.0000013672
   11    8   13    8       -0.0000017646
   11    8    9    9       -0.0000064834
   11    8   10    9        0.0000011724
   11    8   11    9       -0.0009382807
   11    8   12    9       -0.0000006366
   11    8   13    9       -0.0000114365
   11    8   10   10       -0.0000115925
   11    8   11   10        0.0000130753
   11    8   12   10        0.0000006000
   11    8   13   10        0.0000013670
   11    8   11   11        0.0000014268
   11    8   12   11       -0.0000564649
   11    8   13   11       -0.0011869482
   11    8   12   12       -0.0000052851
   11    8   13   12       -0.0000045824
   11    8   13   13       -0.0000058397
   12    8   12    8        0.0022405050
   12    8   13    8       -0.0003490341
   12    8    9    9       -0.0003980733
   12    8   10    9        0.0000034902
   12    8   11    9        0.0000006345
   12    8   12    9        0.0006839213
   12    8   13    9        0.0006706513
   12    8   10   10       -0.0001370797
   12    8   11   10        0.0000003755
   12    8   12   10        0.0000034066
   12    8   13   10       -0.0000048266
   12    8   11   11       -0.0001372745
   12    8   12   11        0.0000010780
   12    8   13   11       -0.0000007932
   12    8   12   12       -0.0016724826
   12    8   13   12        0.0002050260
   12    8   13   13       -0.0001373074
   13    8   13    8        0.0073495915
   13    8    9    9        0.0025165014
   13    8   10    9       -0.0000648722
   13    8   11    9       -0.0000139514
   13    8   12    9       -0.0009931556
   13    8   13    9        0.0019560461
   13    8   10   10        0.0042522966
   13    8   11   10        0.0000026765
   13    8   12   10       -0.0000222727
   13    8   13   10        0.0000041841
   13    8   11   11        0.0042519154
   13    8   12   11       -0.0000045432
   13    8   13   11        0.0000016825
   13    8   12   12        0.0029568820
   13    8   13   12       -0.0004200452
   13    8   13   13        0.0028581887
    9    9    9    9        0.0642198932
    9    9   10    9        0.0001425674
    9    9   11    9        0.0000268778
    9    9   12    9       -0.0009513905
    9    9   13    9       -0.0013815350
    9    9   10   10        0.0649201622
    9    9   11   10        0.0000021561
    9    9   12   10        0.0000358853
    9    9   13   10       -0.0000103737
    9    9   11   11        0.0649176940
    9    9   12   11        0.0000057570
    9    9   13   11       -0.0000005029
    9    9   12   12        0.0614712977
    9    9   13   12        0.0009778300
    9    9   13   13        0.0613781261
   10    9   10    9        0.0039125147
   10    9   11    9        0.0000009635
   10    9   12    9        0.0000271145
   10    9   13    9       -0.0000066901
   10    9   10   10        0.0000893134
   10    9   11   10        0.0000241395
   10    9   12   10        0.0000812450
   10    9   13   10       -0.0004416010
   10    9   11   11        0.0000343243
   10    9   12   11       -0.0000008807
   10    9   13   11        0.0000001614
   10    9   12   12        0.0001027635
   10    9   13   12       -0.0000004198
   10    9   13   13        0.0001350475
   11    9   11    9        0.0039120869
   11    9   12    9        0.0000050859
   11    9   13    9       -0.0000042329
   11    9   10   10        0.0000423274
   11    9   11   10       -0.0000539638
   11    9   12   10       -0.0000015069
   11    9   13   10        0.0000001023
   11    9   11   11       -0.0000138927
   11    9   12   11        0.0000809548
   11    9   13   11       -0.0004419014
   11    9   12   12        0.0000206572
   11    9   13   12       -0.0000008757
   11    9   13   13        0.0000251257
   12    9   12    9        0.0028659477
   12    9   13    9        0.0000950186
   12    9   10   10       -0.0007022897
   12    9   11   10       -0.0000022387
   12    9   12   10        0.0000260065
   12    9   13   10       -0.0000023138
   12    9   11   11       -0.0007026084
   12    9   12   11        0.0000051568
   12    9   13   11       -0.0000010420
   12    9   12   12       -0.0012031927
   12    9   13   12        0.0003394377
   12    9   13   13        0.0006663789
   13    9   13    9        0.0092209903
   13    9   10   10       -0.0023743680
   13    9   11   10       -0.0000008935
   13    9   12   10       -0.0000023638
   13    9   13   10        0.0000565679
   13    9   11   11       -0.0023754588
   13    9   12   11       -0.0000012089
   13    9   13   11        0.0000105990
   13    9   12   12       -0.0020253844
   13    9   13   12        0.0018093975
   13    9   13   13        0.0014489025
   10   10   10   10        0.0735010260
   10   10   11   10       -0.0003007707
   10   10   12   10        0.0000187259
   10   10   13   10       -0.0000007289
   10   10   11   11        0.0690428584
   10   10   12   11        0.0000103252
   10   10   13   11       -0.0000008396
   10   10   12   12        0.0652970660
   10   10   13   12        0.0014356242
   10   10   13   13        0.0631126871
   11   10   11   10        0.0028743370
   11   10   12   10        0.0000038252
   11   10   13   10        0.0000014914
   11   10   11   11        0.0003076474
   11   10   12   11       -0.0000147642
   11   10   13   11        0.0000079394
   11   10   12   12       -0.0000008413
   11   10   13   12       -0.0000012802
   11   10   13   13        0.0000000591
   12   10   12   10        0.0022164542
   12   10   13   10        0.0002887193
   12   10   11   11        0.0000252595
   12   10   12   11        0.0000002919
   12   10   13   11       -0.0000008463
   12   10   12   12        0.0000634455
   12   10   13   12        0.0000013033
   12   10   13   13        0.0000548626
   13   10   13   10        0.0020603420
   13   10   11   11       -0.0000156961
   13   10   12   11       -0.0000005210
   13   10   13   11       -0.0000018951
   13   10   12   12       -0.0000087493
   13   10   13   12        0.0000308636
   13   10   13   13       -0.0000135302
   11   11   11   11        0.0734946256
   11   11   12   11       -0.0000024758
   11   11   13   11        0.0000021116
   11   11   12   12        0.0652964121
   11   11   13   12        0.0014345227
   11   11   13   13        0.0631102631
   12   11   12   11        0.0022177575
   12   11   13   11        0.0002881456
   12   11   12   12        0.0000103405
   12   11   13   12       -0.0000001281
   12   11   13   13        0.0000105717
   13   11   13   11        0.0020598800
   13   11   12   12       -0.0000007852
   13   11   13   12        0.0000067989
   13   11   13   13       -0.0000014009
   12   12   12   12        0.0718294854
   12   12   13   12        0.0007166801
   12   12   13   13        0.0621208606
   13   12   13   12        0.0030939071
   13   12   13   13        0.0004418309
   13   13   13   13        0.0658315775
 end_two_electron_integrals


 output epsi filename:./pspw_hf_LiH.emovecs

 Total PSPW energy     :  -0.7421027425E+00


=== Spin Contamination ===

 <Sexact^2> =    0.0000000000000000     
 <S^2>      =    0.0000000000000000     



== Center of Charge ==

spin up     (    0.0000,    0.0000,    1.8850 )
spin down   (    0.0000,    0.0000,    1.8850 )
     total  (    0.0000,    0.0000,    1.8850 )
ionic       (    0.0000,    0.0000,    0.7086 )


== Molecular Dipole wrt Center of Mass ==

mu   =  (   -0.0000,   -0.0000,   -2.3527 ) au
|mu| =     2.3527 au,       5.9796 Debye

 output psi filename:./pspw_hf_LiH.movecs

 Writing Crystallographic Information File:./LiH.cif
   - cell not shifted (nwpw:cif_shift_cell .false.)


== Timing ==

cputime in seconds
  prologue    :   0.894226E+02
  main loop   :   0.122578E+04
  epilogue    :   0.791858E-01
  total       :   0.131528E+04
  cputime/step:   0.942909E+01       (     130 evalulations,      59 linesearches)


Time spent doing                        total          step       percent
  total time                 :   0.131529E+04  0.101176E+02       100.0 %
  i/o time                   :   0.170437E+01  0.131105E-01         0.1 %
  FFTs                       :   0.102059E+04  0.785070E+01        77.6 %
  dot products               :   0.680195E+01  0.523227E-01         0.5 %
  geodesic                   :   0.101846E+00  0.783427E-03         0.0 %
  ffm_dgemm                  :   0.230216E-01  0.177089E-03         0.0 %
  fmf_dgemm                  :   0.435675E-01  0.335134E-03         0.0 %
  mmm_dgemm                  :   0.321321E-02  0.247170E-04         0.0 %
  m_diagonalize              :   0.133472E-02  0.102671E-04         0.0 %
  local pseudopotentials     :   0.598943E-02  0.460725E-04         0.0 %
  non-local pseudopotentials :   0.360564E+01  0.277357E-01         0.3 %
  structure factors          :   0.731761E+00  0.562893E-02         0.1 %
  phase factors              :   0.178530E-04  0.137331E-06         0.0 %
  masking and packing        :   0.232862E+02  0.179124E+00         1.8 %
  queue fft                  :   0.150065E+01  0.115434E-01         0.1 %
  queue fft (serial)         :   0.554515E+00  0.426550E-02         0.0 %
  queue fft (message passing):   0.877073E+00  0.674671E-02         0.1 %
  HFX potential              :   0.102117E+04  0.785514E+01        77.6 %
  non-local psp FFM          :   0.275591E+01  0.211993E-01         0.2 %
  non-local psp FMF          :   0.203208E+00  0.156314E-02         0.0 %
  non-local psp FFM A        :   0.377348E+00  0.290267E-02         0.0 %
  non-local psp FFM B        :   0.341537E+00  0.262721E-02         0.0 %

== HFX Counters ==
  HFX Evalulations         =   130
  Lin ACE HFX Evalulations =     0


     >>>  JOB COMPLETED     AT Sun May  4 18:07:04 2025  <<<

 Task  times  cpu:     1234.4s     wall:     1315.3s


                                NWChem Input Module
                                -------------------


 Summary of allocated global arrays
-----------------------------------
  No active global arrays


MA_summarize_allocated_blocks: starting scan ...
MA_summarize_allocated_blocks: scan completed: 0 heap blocks, 0 stack blocks
MA usage statistics:

	allocation statistics:
					      heap	     stack
					      ----	     -----
	current number of blocks	         0	         0
	maximum number of blocks	       315	        19
	current total bytes		         0	         0
	maximum total bytes		 125579696	  29399000
	maximum total K-bytes		    125580	     29399
	maximum total M-bytes		       126	        30


                                     CITATION
                                     --------
                Please cite the following reference when publishing
                           results obtained with NWChem:

          E. Apra, E. J. Bylaska, W. A. de Jong, N. Govind, K. Kowalski,
       T. P. Straatsma, M. Valiev, H. J. J. van Dam, Y. Alexeev, J. Anchell,
       V. Anisimov, F. W. Aquino, R. Atta-Fynn, J. Autschbach, N. P. Bauman,
     J. C. Becca, D. E. Bernholdt, K. Bhaskaran-Nair, S. Bogatko, P. Borowski,
         J. Boschen, J. Brabec, A. Bruner, E. Cauet, Y. Chen, G. N. Chuev,
      C. J. Cramer, J. Daily, M. J. O. Deegan, T. H. Dunning Jr., M. Dupuis,
   K. G. Dyall, G. I. Fann, S. A. Fischer, A. Fonari, H. Fruchtl, L. Gagliardi,
      J. Garza, N. Gawande, S. Ghosh, K. Glaesemann, A. W. Gotz, J. Hammond,
       V. Helms, E. D. Hermes, K. Hirao, S. Hirata, M. Jacquelin, L. Jensen,
   B. G. Johnson, H. Jonsson, R. A. Kendall, M. Klemm, R. Kobayashi, V. Konkov,
      S. Krishnamoorthy, M. Krishnan, Z. Lin, R. D. Lins, R. J. Littlefield,
      A. J. Logsdail, K. Lopata, W. Ma, A. V. Marenich, J. Martin del Campo,
   D. Mejia-Rodriguez, J. E. Moore, J. M. Mullin, T. Nakajima, D. R. Nascimento,
    J. A. Nichols, P. J. Nichols, J. Nieplocha, A. Otero-de-la-Roza, B. Palmer,
    A. Panyala, T. Pirojsirikul, B. Peng, R. Peverati, J. Pittner, L. Pollack,
   R. M. Richard, P. Sadayappan, G. C. Schatz, W. A. Shelton, D. W. Silverstein,
   D. M. A. Smith, T. A. Soares, D. Song, M. Swart, H. L. Taylor, G. S. Thomas,
            V. Tipparaju, D. G. Truhlar, K. Tsemekhman, T. Van Voorhis,
      A. Vazquez-Mayagoitia, P. Verma, O. Villa, A. Vishnu, K. D. Vogiatzis,
        D. Wang, J. H. Weare, M. J. Williamson, T. L. Windus, K. Wolinski,
        A. T. Wong, Q. Wu, C. Yang, Q. Yu, M. Zacharias, Z. Zhang, Y. Zhao,
                                and R. J. Harrison
                        "NWChem: Past, present, and future
                         J. Chem. Phys. 152, 184102 (2020)
                               doi:10.1063/5.0004997

                                      AUTHORS
                                      -------
  E. Apra, E. J. Bylaska, N. Govind, K. Kowalski, M. Valiev, D. Mejia-Rodriguez,
       A. Kunitsa, N. P. Bauman, A. Panyala, W. A. de Jong, T. P. Straatsma,
   H. J. J. van Dam, D. Wang, T. L. Windus, J. Hammond, J. Autschbach, A. Woods,
    K. Bhaskaran-Nair, J. Brabec, K. Lopata, S. A. Fischer, S. Krishnamoorthy,
     M. Jacquelin, W. Ma, M. Klemm, O. Villa, Y. Chen, V. Anisimov, F. Aquino,
     S. Hirata, M. T. Hackler, E. Hermes, L. Jensen, J. E. Moore, J. C. Becca,
      V. Konjkov, T. Risthaus, M. Malagoli, A. Marenich, A. Otero-de-la-Roza,
        J. Mullin, P. Nichols, R. Peverati, J. Pittner, Y. Zhao, P.-D. Fan,
        A. Fonari, M. J. Williamson, R. J. Harrison, J. R. Rehr, M. Dupuis,
     D. Silverstein, D. M. A. Smith, J. Nieplocha, V. Tipparaju, M. Krishnan,
     B. E. Van Kuiken, A. Vazquez-Mayagoitia, M. Swart, Q. Wu, T. Van Voorhis,
     A. A. Auer, M. Nooijen, L. D. Crosby, E. Brown, G. Cisneros, G. I. Fann,
   H. Fruchtl, J. Garza, K. Hirao, R. A. Kendall, J. A. Nichols, K. Tsemekhman,
    K. Wolinski, J. Anchell, D. E. Bernholdt, P. Borowski, T. Clark, D. Clerc,
   H. Dachsel, M. J. O. Deegan, K. Dyall, D. Elwood, E. Glendening, M. Gutowski,
   A. C. Hess, J. Jaffe, B. G. Johnson, J. Ju, R. Kobayashi, R. Kutteh, Z. Lin,
   R. Littlefield, X. Long, B. Meng, T. Nakajima, S. Niu, L. Pollack, M. Rosing,
   K. Glaesemann, G. Sandrone, M. Stave, H. Taylor, G. Thomas, J. H. van Lenthe,
                               A. T. Wong, Z. Zhang.

 Total times  cpu:     1234.4s     wall:     1315.4s
