 argument  1 = H2-0.6.nw



============================== echo of input deck ==============================
title "swnc: e theory=pspw4 xc=hf formula=H2 charge=0 mult=1"
#machinejob:expert

echo

start pspw_hf_H2

memory heap 1200 mb stack 1200 mb global 10 mb

charge 0

geometry
H    0.00000    0.00000   -0.30000
H    0.00000    0.00000    0.30000
end

nwpw
  ### pseudopotential block begin ###
  ### pseudopotential block end   ###
  simulation_cell
     SC 15.0000
     boundary_conditions aperiodic
  end

  cutoff 50.0
  mult 1
  xc hf
  lmbfgs
  tolerances 1.0e-9 1.0e-9

  virtual 2
end
set nwpw:cif_filename H2

#set nwpw:CI_maxit_orb 15
#set nwpw:CI_maxit_linesearch 15
set pspw:HFX_screening_radius 14.0


set nwpw:2qintegrals .true.
#set nwpw:3x3_virtual .true.

task pspw energy

================================================================================


                                         
                                         


             Northwest Computational Chemistry Package (NWChem) 7.2.2
             --------------------------------------------------------


                    Environmental Molecular Sciences Laboratory
                       Pacific Northwest National Laboratory
                                Richland, WA 99352

                              Copyright (c) 1994-2022
                       Pacific Northwest National Laboratory
                            Battelle Memorial Institute

             NWChem is an open-source computational chemistry package
                        distributed under the terms of the
                      Educational Community License (ECL) 2.0
             A copy of the license is included with this distribution
                              in the LICENSE.TXT file

                                  ACKNOWLEDGMENT
                                  --------------

            This software and its documentation were developed at the
            EMSL at Pacific Northwest National Laboratory, a multiprogram
            national laboratory, operated for the U.S. Department of Energy
            by Battelle under Contract Number DE-AC05-76RL01830. Support
            for this work was provided by the Department of Energy Office
            of Biological and Environmental Research, Office of Basic
            Energy Sciences, and the Office of Advanced Scientific Computing.


           Job information
           ---------------

    hostname        = LAPTOP-JJQSTSEL
    program         = nwchem
    date            = Wed Apr 30 15:49:01 2025

    compiled        = Fri_Jun_07_07:50:04_2024
    source          = /home/conda/feedstock_root/build_artifacts/nwchem_1717738148552/work
    nwchem branch   = 7.2.2
    nwchem revision = 64ba0f0
    ga revision     = 5.8.0
    use scalapack   = T
    input           = H2-0.6.nw
    prefix          = pspw_hf_H2.
    data base       = ./pspw_hf_H2.db
    status          = startup
    nproc           =        1
    time left       =     -1s



           Memory information
           ------------------

    heap     =  157286400 doubles =   1200.0 Mbytes
    stack    =  157286397 doubles =   1200.0 Mbytes
    global   =    1310720 doubles =     10.0 Mbytes (distinct from heap & stack)
    total    =  315883517 doubles =   2410.0 Mbytes
    verify   = yes
    hardfail = no 


           Directory information
           ---------------------

  0 permanent = .
  0 scratch   = .




                                NWChem Input Module
                                -------------------


               swnc: e theory=pspw4 xc=hf formula=H2 charge=0 mult=1
               -----------------------------------------------------

 Scaling coordinates for geometry "geometry" by  1.889725989
 (inverse scale =  0.529177249)

 ORDER OF PRIMARY AXIS IS BEING SET TO 4
 D4H symmetry detected

          ------
          auto-z
          ------
  no constraints, skipping    0.0000000000000000     
  no constraints, skipping    0.0000000000000000     


                             Geometry "geometry" -> ""
                             -------------------------

 Output coordinates in angstroms (scale by  1.889725989 to convert to a.u.)

  No.       Tag          Charge          X              Y              Z
 ---- ---------------- ---------- -------------- -------------- --------------
    1 H                    1.0000     0.00000000     0.00000000    -0.30000000
    2 H                    1.0000     0.00000000     0.00000000     0.30000000

      Atomic Mass 
      ----------- 

      H                  1.007825


 Effective nuclear repulsion energy (a.u.)       0.8819620817

            Nuclear Dipole moment (a.u.) 
            ----------------------------
        X                 Y               Z
 ---------------- ---------------- ----------------
     0.0000000000     0.0000000000     0.0000000000

      Symmetry information
      --------------------

 Group name             D4h       
 Group number             28
 Group order              16
 No. of unique centers     1

      Symmetry unique atoms

     1



                                Z-matrix (autoz)
                                -------- 

 Units are Angstrom for bonds and degrees for angles

      Type          Name      I     J     K     L     M      Value
      ----------- --------  ----- ----- ----- ----- ----- ----------
    1 Stretch                  1     2                       0.60000


            XYZ format geometry
            -------------------
     2
 geometry
 H                     0.00000000     0.00000000    -0.30000000
 H                     0.00000000     0.00000000     0.30000000

 ==============================================================================
                                internuclear distances
 ------------------------------------------------------------------------------
       center one      |      center two      | atomic units |  angstroms
 ------------------------------------------------------------------------------
    2 H                |   1 H                |     1.13384  |     0.60000
 ------------------------------------------------------------------------------
                         number of included internuclear distances:          1
 ==============================================================================



          ****************************************************
          *                                                  *
          *               NWPW PSPW Calculation              *
          *                                                  *
          * [ (Grassmann/Stiefel manifold implementation)  ] *
          *                                                  *
          *      [ NorthWest Chemistry implementation ]      *
          *                                                  *
          *            version #5.10   06/12/02              *
          *                                                  *
          *    This code was developed by Eric J. Bylaska,   *
          *    and was based upon algorithms and code        *
          *    developed by the group of Prof. John H. Weare *
          *                                                  *
          ****************************************************
     >>>  JOB STARTED       AT Wed Apr 30 15:49:01 2025  <<<
          ================ input data ========================
  library name resolved from: environment
  NWCHEM_NWPW_LIBRARY set to: </home/blanch/miniconda3/envs/adrienv/share/nwchem/libraryps/>
 Generating 1d pseudopotential for H   

 Generated formatted_filename: ./H.vpp
 random planewave guess, initial psi:pspw_hf_H2.movecs                                 
 -   spin, nalpha, nbeta:                    1                    1                    0

 input psi filename:./pspw_hf_H2.movecs

 Warning - K.S. orbitals are not orthonormal. Applying Gram-Schmidt orthonormalization.
         - exact norm=0.100000E+01 norm=0.791079E+00 corrected norm=0.100000E+01 (error=0.208921E+00)


 number of processors used:         1
 processor grid           :   1 x   1
 parallel mapping         :2d-hilbert
 parallel mapping         :  balanced
 number of threads        :         1
 parallel io              :       off

 options:
      boundary conditions  = aperiodic   (version4)
      electron spin        = restricted
      exchange-correlation = Hartree-Fock
      - HFX relaxed
      - HFX restricted orbitals :    1
      - HFX free-space coulomb solver


 elements involved in the cluster:
      1: H   valence charge:  1.0000  lmax=  1
             comment    : Parameterized (Chem.Phys.Lett., vol 322, page 447) Hamman psp
             pseudpotential type            :   0
             highest angular component      :   1
             local potential used           :   1
             number of non-local projections:   1
             aperiodic cutoff radius        :  1.000
             cutoff =   0.800   0.800


 total charge:   0.000

 atomic composition:
     H   :    2

 number of electrons: spin up=     1 (   1 per task)  down=     1 (   1 per task) (Fourier space)
 number of orbitals : spin up=     1 (   1 per task)  down=     1 (   1 per task) (Fourier space)

 supercell:
      cell_name:  cell_default                                      
      lattice:    a1=<  15.000   0.000   0.000 >
                  a2=<   0.000  15.000   0.000 >
                  a3=<   0.000   0.000  15.000 >
      reciprocal: b1=<   0.419   0.000   0.000 >
                  b2=<   0.000   0.419   0.000 >
                  b3=<   0.000   0.000   0.419 >
      lattice:    a=      15.000 b=     15.000 c=      15.000
                  alpha=  90.000 beta=  90.000 gamma=  90.000
                  omega=      3375.0

      density cutoff= 25.000  fft= 36x 36x 36(    10003 waves    10003 per task)
      wavefnc cutoff= 12.500  fft= 36x 36x 36(     3562 waves     3562 per task)

 technical parameters:
      time step=      5.80     fictitious mass=  400000.0
      tolerance=0.100E-08 (energy)   0.100E-08 (density)
      maximum iterations =      1000 (   10 inner    100 outer )





== Energy Calculation ==


          ============ Grassmann lmbfgs iteration ============
     >>>  ITERATION STARTED AT Wed Apr 30 15:49:02 2025  <<<
    iter.           Energy         DeltaE       DeltaRho 
    ------------------------------------------------------
     -  15 steepest descent iterations performed
      10   -0.1113792367E+01   -0.13725E-01    0.21886E+00
     -  10 steepest descent iterations performed
      20   -0.1120466506E+01   -0.26582E-05    0.10241E-03
      30   -0.1120468387E+01   -0.20897E-09    0.42029E-07
      40   -0.1120468387E+01   -0.89665E-10    0.71855E-13
  *** tolerance ok. iteration terminated
     >>>  ITERATION ENDED   AT Wed Apr 30 15:49:04 2025  <<<


==  Summary Of Results  ==

 number of electrons: spin up=    1.00000  down=    1.00000 (real space)

 total     energy    :  -0.1120468387E+01 (   -0.56023E+00/ion)
 total orbital energy:  -0.1291096291E+01 (   -0.12911E+01/electron)
 hartree   energy    :   0.1422668356E+01 (    0.14227E+01/electron)
 exc-corr  energy    :   0.0000000000E+00 (    0.00000E+00/electron)
 HF exchange energy  :  -0.7113341780E+00 (   -0.71133E+00/electron)
 ion-ion   energy    :   0.8819620817E+00 (    0.44098E+00/ion)

 kinetic (planewave) :   0.1229694660E+01 (    0.12297E+01/electron)
 V_local (planewave) :  -0.3539307802E+01 (   -0.35393E+01/electron)
 V_nl    (planewave) :  -0.4041515048E+00 (   -0.40415E+00/electron)
 V_Coul  (planewave) :   0.2845336712E+01 (    0.28453E+01/electron)
 V_xc.   (planewave) :   0.0000000000E+00 (    0.00000E+00/electron)
 K.S. HFX energy     :  -0.1422668356E+01 (   -0.14227E+01/electron)
 Virial Coefficient  :  -0.8930042803E+00

 orbital energies:
    -0.6455481E+00 ( -17.566eV)


== Virtual Orbital Calculation ==

 random planewave guess, initial psi:pspw_hf_H2.emovecs                                
 -   spin, nalpha, nbeta:                    1                    2                    0

 input epsi filename:./pspw_hf_H2.emovecs
     orbital   1 current e= 0.564E-02 (error=0.768E-09) iterations  50(  39 preconditioned, Ep,Sp= 20.0  200.0)
     orbital   2 current e= 0.874E-01 (error=0.964E-09) iterations  79(  46 preconditioned, Ep,Sp= 20.0  200.0)

 virtual orbital energies:
     0.8740600E-01 (   2.378eV)
     0.5639344E-02 (   0.153eV)


 == Generating One-Electron and Two-Electron Integrals ==

 begin_one_electron_integrals
    1    1        -1.3568823233
    2    1         0.0323310578
    3    1        -0.0015945630
    2    2        -0.2746832820
    3    2         0.0014783769
    3    3        -0.1909106719
 end_one_electron_integrals

 begin_two_electron_integrals
    1    1    1    1        0.7113341780
    1    1    2    1       -0.0323311823
    1    1    3    1        0.0015944411
    1    1    2    2        0.1412848382
    1    1    3    2       -0.0008048652
    1    1    3    3        0.1392078244
    2    1    2    1        0.0022470501
    2    1    3    1       -0.0001171635
    2    1    2    2       -0.0003365943
    2    1    3    2       -0.0000062729
    2    1    3    3       -0.0001061677
    3    1    3    1        0.0000989785
    3    1    2    2        0.0000119121
    3    1    3    2        0.0005027578
    3    1    3    3       -0.0001847852
    2    2    2    2        0.1196631651
    2    2    3    2       -0.0002806678
    2    2    3    3        0.1204445177
    3    2    3    2        0.0132425818
    3    2    3    3       -0.0013005396
    3    3    3    3        0.1285424261
 end_two_electron_integrals


 output epsi filename:./pspw_hf_H2.emovecs

 Total PSPW energy     :  -0.1120468387E+01


=== Spin Contamination ===

 <Sexact^2> =    0.0000000000000000     
 <S^2>      =    0.0000000000000000     



== Center of Charge ==

spin up     (   -0.0000,   -0.0000,    0.0000 )
spin down   (   -0.0000,   -0.0000,    0.0000 )
     total  (   -0.0000,   -0.0000,    0.0000 )
ionic       (    0.0000,    0.0000,    0.0000 )


== Molecular Dipole wrt Center of Mass ==

mu   =  (    0.0000,    0.0000,   -0.0000 ) au
|mu| =     0.0000 au,       0.0000 Debye

 output psi filename:./pspw_hf_H2.movecs

 Writing Crystallographic Information File:./H2.cif
   - cell not shifted (nwpw:cif_shift_cell .false.)


== Timing ==

cputime in seconds
  prologue    :   0.851965E+00
  main loop   :   0.618253E+01
  epilogue    :   0.325262E-02
  total       :   0.703774E+01
  cputime/step:   0.612131E-01       (     101 evalulations,      31 linesearches)


Time spent doing                        total          step       percent
  total time                 :   0.703794E+01  0.696826E-01       100.0 %
  i/o time                   :   0.358467E+00  0.354918E-02         5.1 %
  FFTs                       :   0.553018E+01  0.547542E-01        78.6 %
  dot products               :   0.645720E-02  0.639327E-04         0.1 %
  geodesic                   :   0.121670E-01  0.120465E-03         0.2 %
  ffm_dgemm                  :   0.817069E-03  0.808979E-05         0.0 %
  fmf_dgemm                  :   0.188936E-02  0.187065E-04         0.0 %
  mmm_dgemm                  :   0.662250E-03  0.655693E-05         0.0 %
  m_diagonalize              :   0.422387E-02  0.418205E-04         0.1 %
  local pseudopotentials     :   0.120444E-02  0.119252E-04         0.0 %
  non-local pseudopotentials :   0.221352E-01  0.219161E-03         0.3 %
  structure factors          :   0.830182E-02  0.821962E-04         0.1 %
  phase factors              :   0.373600E-05  0.369901E-07         0.0 %
  masking and packing        :   0.500524E-01  0.495568E-03         0.7 %
  queue fft                  :   0.819941E-01  0.811823E-03         1.2 %
  queue fft (serial)         :   0.450228E-01  0.445770E-03         0.6 %
  queue fft (message passing):   0.339728E-01  0.336364E-03         0.5 %
  HFX potential              :   0.425697E+01  0.421483E-01        60.5 %
  non-local psp FFM          :   0.102274E-01  0.101262E-03         0.1 %
  non-local psp FMF          :   0.258177E-02  0.255620E-04         0.0 %
  non-local psp FFM A        :   0.259331E-02  0.256763E-04         0.0 %
  non-local psp FFM B        :   0.239271E-02  0.236902E-04         0.0 %

== HFX Counters ==
  HFX Evalulations         =   101
  Lin ACE HFX Evalulations =     0


     >>>  JOB COMPLETED     AT Wed Apr 30 15:49:08 2025  <<<
          ****************************************************
          *                                                  *
          *               NWPW PSPW Calculation              *
          *                                                  *
          * [ (Grassmann/Stiefel manifold implementation)  ] *
          *                                                  *
          *      [ NorthWest Chemistry implementation ]      *
          *                                                  *
          *            version #5.10   06/12/02              *
          *                                                  *
          *    This code was developed by Eric J. Bylaska,   *
          *    and was based upon algorithms and code        *
          *    developed by the group of Prof. John H. Weare *
          *                                                  *
          ****************************************************
     >>>  JOB STARTED       AT Wed Apr 30 15:49:08 2025  <<<
          ================ input data ========================
 pseudopotential is not correctly formatted:H.vpp                                             

 Generated formatted_filename: ./H.vpp
 Error reading psi - bad grid
 nfft :                   36                   36                   36
 ngrid:                   50                   50                   50
 Error reading psi - bad grid
 nfft :                   36                   36                   36
 ngrid:                   50                   50                   50
 Error reading psi - bad grid

 Grid is being converted:
 ------------------------

 To turn off automatic grid conversion:

 set nwpw:psi_nogrid .false.

 old_filename: pspw_hf_H2.movecs                                 
 new_filename: pspw_hf_H2.movecs                                 
 converting  :  36x 36x 36 -->  50x 50x 50
converting .... psi:    1 spin: 1

 input psi filename:./pspw_hf_H2.movecs

 number of processors used:         1
 processor grid           :   1 x   1
 parallel mapping         :2d-hilbert
 parallel mapping         :  balanced
 number of threads        :         1
 parallel io              :       off

 options:
      boundary conditions  = aperiodic   (version4)
      electron spin        = restricted
      exchange-correlation = Hartree-Fock
      - HFX relaxed
      - HFX restricted orbitals :    1
      - HFX free-space coulomb solver


 elements involved in the cluster:
      1: H   valence charge:  1.0000  lmax=  1
             comment    : Parameterized (Chem.Phys.Lett., vol 322, page 447) Hamman psp
             pseudpotential type            :   0
             highest angular component      :   1
             local potential used           :   1
             number of non-local projections:   1
             aperiodic cutoff radius        :  1.000
             cutoff =   0.800   0.800


 total charge:   0.000

 atomic composition:
     H   :    2

 number of electrons: spin up=     1 (   1 per task)  down=     1 (   1 per task) (Fourier space)
 number of orbitals : spin up=     1 (   1 per task)  down=     1 (   1 per task) (Fourier space)

 supercell:
      cell_name:  cell_default                                      
      lattice:    a1=<  15.000   0.000   0.000 >
                  a2=<   0.000  15.000   0.000 >
                  a3=<   0.000   0.000  15.000 >
      reciprocal: b1=<   0.419   0.000   0.000 >
                  b2=<   0.000   0.419   0.000 >
                  b3=<   0.000   0.000   0.419 >
      lattice:    a=      15.000 b=     15.000 c=      15.000
                  alpha=  90.000 beta=  90.000 gamma=  90.000
                  omega=      3375.0

      density cutoff= 50.000  fft= 50x 50x 50(    28526 waves    28526 per task)
      wavefnc cutoff= 25.000  fft= 50x 50x 50(    10003 waves    10003 per task)

 technical parameters:
      time step=      5.80     fictitious mass=  400000.0
      tolerance=0.100E-08 (energy)   0.100E-08 (density)
      maximum iterations =      1000 (   10 inner    100 outer )





== Energy Calculation ==


          ============ Grassmann lmbfgs iteration ============
     >>>  ITERATION STARTED AT Wed Apr 30 15:49:11 2025  <<<
    iter.           Energy         DeltaE       DeltaRho 
    ------------------------------------------------------
      10   -0.1122134317E+01   -0.11877E-07    0.22599E-04
      20   -0.1122134332E+01   -0.80665E-09    0.11755E-09
  *** tolerance ok. iteration terminated
     >>>  ITERATION ENDED   AT Wed Apr 30 15:49:14 2025  <<<


==  Summary Of Results  ==

 number of electrons: spin up=    1.00000  down=    1.00000 (real space)

 total     energy    :  -0.1122134332E+01 (   -0.56107E+00/ion)
 total orbital energy:  -0.1292203651E+01 (   -0.12922E+01/electron)
 hartree   energy    :   0.1423785526E+01 (    0.14238E+01/electron)
 exc-corr  energy    :   0.0000000000E+00 (    0.00000E+00/electron)
 HF exchange energy  :  -0.7118927632E+00 (   -0.71189E+00/electron)
 ion-ion   energy    :   0.8819620817E+00 (    0.44098E+00/ion)

 kinetic (planewave) :   0.1233065433E+01 (    0.12331E+01/electron)
 V_local (planewave) :  -0.3542499001E+01 (   -0.35425E+01/electron)
 V_nl    (planewave) :  -0.4065556086E+00 (   -0.40656E+00/electron)
 V_Coul  (planewave) :   0.2847571053E+01 (    0.28476E+01/electron)
 V_xc.   (planewave) :   0.0000000000E+00 (    0.00000E+00/electron)
 K.S. HFX energy     :  -0.1423785526E+01 (   -0.14238E+01/electron)
 Virial Coefficient  :  -0.8932888133E+00

 orbital energies:
    -0.6461018E+00 ( -17.581eV)


== Virtual Orbital Calculation ==

 Error reading psi - bad grid
 Error reading psi - bad grid
 Error reading psi - bad grid

 Grid is being converted:
 ------------------------

 To turn off automatic grid conversion:

 set nwpw:psi_nogrid .false.

 old_filename: pspw_hf_H2.emovecs                                
 new_filename: pspw_hf_H2.emovecs                                
 converting  :  36x 36x 36 -->  50x 50x 50
converting .... psi:    1 spin: 1
converting .... psi:    2 spin: 1

 input epsi filename:./pspw_hf_H2.emovecs
     orbital   1 current e= 0.563E-02 (error=0.958E-09) iterations   5(   3 preconditioned, Ep,Sp= 20.0  200.0)
     orbital   2 current e= 0.874E-01 (error=0.723E-09) iterations   3(   1 preconditioned, Ep,Sp= 20.0  200.0)

 virtual orbital energies:
     0.8740661E-01 (   2.378eV)
     0.5633964E-02 (   0.153eV)


 == Generating One-Electron and Two-Electron Integrals ==

 begin_one_electron_integrals
    1    1        -1.3579945886
    2    1        -0.0323276053
    3    1        -0.0016001971
    2    2        -0.2747428778
    3    2        -0.0014935520
    3    3        -0.1909908670
 end_one_electron_integrals

 begin_two_electron_integrals
    1    1    1    1        0.7118927632
    1    1    2    1        0.0323193389
    1    1    3    1        0.0016002854
    1    1    2    2        0.1413098997
    1    1    3    2        0.0008053851
    1    1    3    3        0.1392481177
    2    1    2    1        0.0022429577
    2    1    3    1        0.0001173967
    2    1    2    2        0.0003359359
    2    1    3    2       -0.0000061160
    2    1    3    3        0.0001063425
    3    1    3    1        0.0000987606
    3    1    2    2        0.0000121936
    3    1    3    2       -0.0005018926
    3    1    3    3       -0.0001844821
    2    2    2    2        0.1196183444
    2    2    3    2        0.0002747909
    2    2    3    3        0.1203855152
    3    2    3    2        0.0131794272
    3    2    3    3        0.0012883806
    3    3    3    3        0.1284321232
 end_two_electron_integrals


 output epsi filename:./pspw_hf_H2.emovecs

 Total PSPW energy     :  -0.1122134332E+01


=== Spin Contamination ===

 <Sexact^2> =    0.0000000000000000     
 <S^2>      =    0.0000000000000000     



== Center of Charge ==

spin up     (   -0.0000,   -0.0000,    0.0000 )
spin down   (   -0.0000,   -0.0000,    0.0000 )
     total  (   -0.0000,   -0.0000,    0.0000 )
ionic       (    0.0000,    0.0000,    0.0000 )


== Molecular Dipole wrt Center of Mass ==

mu   =  (    0.0000,    0.0000,   -0.0000 ) au
|mu| =     0.0000 au,       0.0000 Debye

 output psi filename:./pspw_hf_H2.movecs

 Writing Crystallographic Information File:./H2.cif
   - cell not shifted (nwpw:cif_shift_cell .false.)


== Timing ==

cputime in seconds
  prologue    :   0.130057E+01
  main loop   :   0.389090E+01
  epilogue    :   0.317092E-02
  total       :   0.519464E+01
  cputime/step:   0.111168E+00       (      35 evalulations,      15 linesearches)


Time spent doing                        total          step       percent
  total time                 :   0.519498E+01  0.148428E+00       100.0 %
  i/o time                   :   0.904904E+00  0.258544E-01        17.4 %
  FFTs                       :   0.339458E+01  0.969881E-01        65.3 %
  dot products               :   0.294754E-02  0.842155E-04         0.1 %
  geodesic                   :   0.764552E-02  0.218443E-03         0.1 %
  ffm_dgemm                  :   0.577432E-03  0.164981E-04         0.0 %
  fmf_dgemm                  :   0.224902E-02  0.642577E-04         0.0 %
  mmm_dgemm                  :   0.267190E-03  0.763400E-05         0.0 %
  m_diagonalize              :   0.190577E-03  0.544506E-05         0.0 %
  local pseudopotentials     :   0.327823E-02  0.936638E-04         0.1 %
  non-local pseudopotentials :   0.883871E-02  0.252535E-03         0.2 %
  structure factors          :   0.401757E-02  0.114788E-03         0.1 %
  phase factors              :   0.485500E-05  0.138714E-06         0.0 %
  masking and packing        :   0.343385E-01  0.981101E-03         0.7 %
  queue fft                  :   0.841136E-01  0.240324E-02         1.6 %
  queue fft (serial)         :   0.439036E-01  0.125439E-02         0.8 %
  queue fft (message passing):   0.370285E-01  0.105796E-02         0.7 %
  HFX potential              :   0.191386E+01  0.546816E-01        36.8 %
  non-local psp FFM          :   0.453367E-02  0.129533E-03         0.1 %
  non-local psp FMF          :   0.693074E-03  0.198021E-04         0.0 %
  non-local psp FFM A        :   0.134271E-02  0.383631E-04         0.0 %
  non-local psp FFM B        :   0.798662E-03  0.228189E-04         0.0 %

== HFX Counters ==
  HFX Evalulations         =    35
  Lin ACE HFX Evalulations =     0


     >>>  JOB COMPLETED     AT Wed Apr 30 15:49:15 2025  <<<
          ****************************************************
          *                                                  *
          *               NWPW PSPW Calculation              *
          *                                                  *
          * [ (Grassmann/Stiefel manifold implementation)  ] *
          *                                                  *
          *      [ NorthWest Chemistry implementation ]      *
          *                                                  *
          *            version #5.10   06/12/02              *
          *                                                  *
          *    This code was developed by Eric J. Bylaska,   *
          *    and was based upon algorithms and code        *
          *    developed by the group of Prof. John H. Weare *
          *                                                  *
          ****************************************************
     >>>  JOB STARTED       AT Wed Apr 30 15:49:15 2025  <<<
          ================ input data ========================
 pseudopotential is not correctly formatted:H.vpp                                             

 Generated formatted_filename: ./H.vpp
 Error reading psi - bad grid
 nfft :                   50                   50                   50
 ngrid:                   60                   60                   60
 Error reading psi - bad grid
 nfft :                   50                   50                   50
 ngrid:                   60                   60                   60
 Error reading psi - bad grid

 Grid is being converted:
 ------------------------

 To turn off automatic grid conversion:

 set nwpw:psi_nogrid .false.

 old_filename: pspw_hf_H2.movecs                                 
 new_filename: pspw_hf_H2.movecs                                 
 converting  :  50x 50x 50 -->  60x 60x 60
converting .... psi:    1 spin: 1

 input psi filename:./pspw_hf_H2.movecs

 number of processors used:         1
 processor grid           :   1 x   1
 parallel mapping         :2d-hilbert
 parallel mapping         :  balanced
 number of threads        :         1
 parallel io              :       off

 options:
      boundary conditions  = aperiodic   (version4)
      electron spin        = restricted
      exchange-correlation = Hartree-Fock
      - HFX relaxed
      - HFX restricted orbitals :    1
      - HFX free-space coulomb solver


 elements involved in the cluster:
      1: H   valence charge:  1.0000  lmax=  1
             comment    : Parameterized (Chem.Phys.Lett., vol 322, page 447) Hamman psp
             pseudpotential type            :   0
             highest angular component      :   1
             local potential used           :   1
             number of non-local projections:   1
             aperiodic cutoff radius        :  1.000
             cutoff =   0.800   0.800


 total charge:   0.000

 atomic composition:
     H   :    2

 number of electrons: spin up=     1 (   1 per task)  down=     1 (   1 per task) (Fourier space)
 number of orbitals : spin up=     1 (   1 per task)  down=     1 (   1 per task) (Fourier space)

 supercell:
      cell_name:  cell_default                                      
      lattice:    a1=<  15.000   0.000   0.000 >
                  a2=<   0.000  15.000   0.000 >
                  a3=<   0.000   0.000  15.000 >
      reciprocal: b1=<   0.419   0.000   0.000 >
                  b2=<   0.000   0.419   0.000 >
                  b3=<   0.000   0.000   0.419 >
      lattice:    a=      15.000 b=     15.000 c=      15.000
                  alpha=  90.000 beta=  90.000 gamma=  90.000
                  omega=      3375.0

      density cutoff= 75.000  fft= 60x 60x 60(    52472 waves    52472 per task)
      wavefnc cutoff= 37.500  fft= 60x 60x 60(    18561 waves    18561 per task)

 technical parameters:
      time step=      5.80     fictitious mass=  400000.0
      tolerance=0.100E-08 (energy)   0.100E-08 (density)
      maximum iterations =      1000 (   10 inner    100 outer )





== Energy Calculation ==


          ============ Grassmann lmbfgs iteration ============
     >>>  ITERATION STARTED AT Wed Apr 30 15:49:17 2025  <<<
    iter.           Energy         DeltaE       DeltaRho 
    ------------------------------------------------------
      10   -0.1123666210E+01   -0.16729E-07    0.25291E-04
      20   -0.1123666237E+01   -0.76140E-09    0.33199E-09
  *** tolerance ok. iteration terminated
     >>>  ITERATION ENDED   AT Wed Apr 30 15:49:23 2025  <<<


==  Summary Of Results  ==

 number of electrons: spin up=    1.00000  down=    1.00000 (real space)

 total     energy    :  -0.1123666237E+01 (   -0.56183E+00/ion)
 total orbital energy:  -0.1293261341E+01 (   -0.12933E+01/electron)
 hartree   energy    :   0.1424733954E+01 (    0.14247E+01/electron)
 exc-corr  energy    :   0.0000000000E+00 (    0.00000E+00/electron)
 HF exchange energy  :  -0.7123669768E+00 (   -0.71237E+00/electron)
 ion-ion   energy    :   0.8819620817E+00 (    0.44098E+00/ion)

 kinetic (planewave) :   0.1236302498E+01 (    0.12363E+01/electron)
 V_local (planewave) :  -0.3545369148E+01 (   -0.35454E+01/electron)
 V_nl    (planewave) :  -0.4089286445E+00 (   -0.40893E+00/electron)
 V_Coul  (planewave) :   0.2849467907E+01 (    0.28495E+01/electron)
 V_xc.   (planewave) :   0.0000000000E+00 (    0.00000E+00/electron)
 K.S. HFX energy     :  -0.1424733954E+01 (   -0.14247E+01/electron)
 Virial Coefficient  :  -0.8936565991E+00

 orbital energies:
    -0.6466307E+00 ( -17.596eV)


== Virtual Orbital Calculation ==

 Error reading psi - bad grid
 Error reading psi - bad grid
 Error reading psi - bad grid

 Grid is being converted:
 ------------------------

 To turn off automatic grid conversion:

 set nwpw:psi_nogrid .false.

 old_filename: pspw_hf_H2.emovecs                                
 new_filename: pspw_hf_H2.emovecs                                
 converting  :  50x 50x 50 -->  60x 60x 60
converting .... psi:    1 spin: 1
converting .... psi:    2 spin: 1

 input epsi filename:./pspw_hf_H2.emovecs
     orbital   1 current e= 0.563E-02 (error=0.811E-09) iterations   9(   2 preconditioned, Ep,Sp= 20.0  200.0)
     orbital   2 current e= 0.874E-01 (error=0.171E-09) iterations   3(   1 preconditioned, Ep,Sp= 20.0  200.0)

 virtual orbital energies:
     0.8740712E-01 (   2.378eV)
     0.5628752E-02 (   0.153eV)


 == Generating One-Electron and Two-Electron Integrals ==

 begin_one_electron_integrals
    1    1        -1.3589976475
    2    1         0.0323196676
    3    1        -0.0016001004
    2    2        -0.2747730886
    3    2         0.0014934413
    3    3        -0.1910170105
 end_one_electron_integrals

 begin_two_electron_integrals
    1    1    1    1        0.7123669768
    1    1    2    1       -0.0323104926
    1    1    3    1        0.0016001012
    1    1    2    2        0.1413210126
    1    1    3    2       -0.0008052463
    1    1    3    3        0.1392613054
    2    1    2    1        0.0022401846
    2    1    3    1       -0.0001172440
    2    1    2    2       -0.0003352883
    2    1    3    2       -0.0000061123
    2    1    3    3       -0.0001061268
    3    1    3    1        0.0000984839
    3    1    2    2        0.0000122094
    3    1    3    2        0.0005008590
    3    1    3    3       -0.0001840696
    2    2    2    2        0.1196043001
    2    2    3    2       -0.0002743853
    2    2    3    3        0.1203665536
    3    2    3    2        0.0131587591
    3    2    3    3       -0.0012832280
    3    3    3    3        0.1283957305
 end_two_electron_integrals


 output epsi filename:./pspw_hf_H2.emovecs

 Total PSPW energy     :  -0.1123666237E+01


=== Spin Contamination ===

 <Sexact^2> =    0.0000000000000000     
 <S^2>      =    0.0000000000000000     



== Center of Charge ==

spin up     (    0.0000,    0.0000,    0.0000 )
spin down   (    0.0000,    0.0000,    0.0000 )
     total  (    0.0000,    0.0000,    0.0000 )
ionic       (    0.0000,    0.0000,    0.0000 )


== Molecular Dipole wrt Center of Mass ==

mu   =  (   -0.0000,   -0.0000,   -0.0000 ) au
|mu| =     0.0000 au,       0.0000 Debye

 output psi filename:./pspw_hf_H2.movecs

 Writing Crystallographic Information File:./H2.cif
   - cell not shifted (nwpw:cif_shift_cell .false.)


== Timing ==

cputime in seconds
  prologue    :   0.212343E+01
  main loop   :   0.812377E+01
  epilogue    :   0.324801E-02
  total       :   0.102504E+02
  cputime/step:   0.203094E+00       (      40 evalulations,      17 linesearches)


Time spent doing                        total          step       percent
  total time                 :   0.102507E+02  0.256267E+00       100.0 %
  i/o time                   :   0.150740E+01  0.376850E-01        14.7 %
  FFTs                       :   0.707954E+01  0.176989E+00        69.1 %
  dot products               :   0.662017E-02  0.165504E-03         0.1 %
  geodesic                   :   0.120900E-01  0.302249E-03         0.1 %
  ffm_dgemm                  :   0.110273E-02  0.275684E-04         0.0 %
  fmf_dgemm                  :   0.487260E-02  0.121815E-03         0.0 %
  mmm_dgemm                  :   0.320476E-03  0.801190E-05         0.0 %
  m_diagonalize              :   0.208169E-03  0.520422E-05         0.0 %
  local pseudopotentials     :   0.572686E-02  0.143172E-03         0.1 %
  non-local pseudopotentials :   0.185389E-01  0.463473E-03         0.2 %
  structure factors          :   0.919038E-02  0.229760E-03         0.1 %
  phase factors              :   0.493800E-05  0.123450E-06         0.0 %
  masking and packing        :   0.702145E-01  0.175536E-02         0.7 %
  queue fft                  :   0.166571E+00  0.416427E-02         1.6 %
  queue fft (serial)         :   0.834459E-01  0.208615E-02         0.8 %
  queue fft (message passing):   0.762221E-01  0.190555E-02         0.7 %
  HFX potential              :   0.418209E+01  0.104552E+00        40.8 %
  non-local psp FFM          :   0.967012E-02  0.241753E-03         0.1 %
  non-local psp FMF          :   0.191507E-02  0.478767E-04         0.0 %
  non-local psp FFM A        :   0.239882E-02  0.599704E-04         0.0 %
  non-local psp FFM B        :   0.173472E-02  0.433679E-04         0.0 %

== HFX Counters ==
  HFX Evalulations         =    40
  Lin ACE HFX Evalulations =     0


     >>>  JOB COMPLETED     AT Wed Apr 30 15:49:26 2025  <<<
          ****************************************************
          *                                                  *
          *               NWPW PSPW Calculation              *
          *                                                  *
          * [ (Grassmann/Stiefel manifold implementation)  ] *
          *                                                  *
          *      [ NorthWest Chemistry implementation ]      *
          *                                                  *
          *            version #5.10   06/12/02              *
          *                                                  *
          *    This code was developed by Eric J. Bylaska,   *
          *    and was based upon algorithms and code        *
          *    developed by the group of Prof. John H. Weare *
          *                                                  *
          ****************************************************
     >>>  JOB STARTED       AT Wed Apr 30 15:49:26 2025  <<<
          ================ input data ========================
 pseudopotential is not correctly formatted:H.vpp                                             

 Generated formatted_filename: ./H.vpp
 Error reading psi - bad grid
 nfft :                   60                   60                   60
 ngrid:                   70                   70                   70
 Error reading psi - bad grid
 nfft :                   60                   60                   60
 ngrid:                   70                   70                   70
 Error reading psi - bad grid

 Grid is being converted:
 ------------------------

 To turn off automatic grid conversion:

 set nwpw:psi_nogrid .false.

 old_filename: pspw_hf_H2.movecs                                 
 new_filename: pspw_hf_H2.movecs                                 
 converting  :  60x 60x 60 -->  70x 70x 70
converting .... psi:    1 spin: 1

 input psi filename:./pspw_hf_H2.movecs

 number of processors used:         1
 processor grid           :   1 x   1
 parallel mapping         :2d-hilbert
 parallel mapping         :  balanced
 number of threads        :         1
 parallel io              :       off

 options:
      boundary conditions  = aperiodic   (version4)
      electron spin        = restricted
      exchange-correlation = Hartree-Fock
      - HFX relaxed
      - HFX restricted orbitals :    1
      - HFX free-space coulomb solver


 elements involved in the cluster:
      1: H   valence charge:  1.0000  lmax=  1
             comment    : Parameterized (Chem.Phys.Lett., vol 322, page 447) Hamman psp
             pseudpotential type            :   0
             highest angular component      :   1
             local potential used           :   1
             number of non-local projections:   1
             aperiodic cutoff radius        :  1.000
             cutoff =   0.800   0.800


 total charge:   0.000

 atomic composition:
     H   :    2

 number of electrons: spin up=     1 (   1 per task)  down=     1 (   1 per task) (Fourier space)
 number of orbitals : spin up=     1 (   1 per task)  down=     1 (   1 per task) (Fourier space)

 supercell:
      cell_name:  cell_default                                      
      lattice:    a1=<  15.000   0.000   0.000 >
                  a2=<   0.000  15.000   0.000 >
                  a3=<   0.000   0.000  15.000 >
      reciprocal: b1=<   0.419   0.000   0.000 >
                  b2=<   0.000   0.419   0.000 >
                  b3=<   0.000   0.000   0.419 >
      lattice:    a=      15.000 b=     15.000 c=      15.000
                  alpha=  90.000 beta=  90.000 gamma=  90.000
                  omega=      3375.0

      density cutoff=100.000  fft= 70x 70x 70(    80618 waves    80618 per task)
      wavefnc cutoff= 50.000  fft= 70x 70x 70(    28526 waves    28526 per task)

 technical parameters:
      time step=      5.80     fictitious mass=  400000.0
      tolerance=0.100E-08 (energy)   0.100E-08 (density)
      maximum iterations =      1000 (   10 inner    100 outer )





== Energy Calculation ==


          ============ Grassmann lmbfgs iteration ============
     >>>  ITERATION STARTED AT Wed Apr 30 15:49:35 2025  <<<
    iter.           Energy         DeltaE       DeltaRho 
    ------------------------------------------------------
      10   -0.1123735753E+01   -0.10871E-09    0.42914E-06
      20   -0.1123735753E+01   -0.85354E-10    0.58239E-12
  *** tolerance ok. iteration terminated
     >>>  ITERATION ENDED   AT Wed Apr 30 15:49:45 2025  <<<


==  Summary Of Results  ==

 number of electrons: spin up=    1.00000  down=    1.00000 (real space)

 total     energy    :  -0.1123735753E+01 (   -0.56187E+00/ion)
 total orbital energy:  -0.1293305353E+01 (   -0.12933E+01/electron)
 hartree   energy    :   0.1424784963E+01 (    0.14248E+01/electron)
 exc-corr  energy    :   0.0000000000E+00 (    0.00000E+00/electron)
 HF exchange energy  :  -0.7123924817E+00 (   -0.71239E+00/electron)
 ion-ion   energy    :   0.8819620817E+00 (    0.44098E+00/ion)

 kinetic (planewave) :   0.1236466353E+01 (    0.12365E+01/electron)
 V_local (planewave) :  -0.3545509666E+01 (   -0.35455E+01/electron)
 V_nl    (planewave) :  -0.4090470029E+00 (   -0.40905E+00/electron)
 V_Coul  (planewave) :   0.2849569927E+01 (    0.28496E+01/electron)
 V_xc.   (planewave) :   0.0000000000E+00 (    0.00000E+00/electron)
 K.S. HFX energy     :  -0.1424784963E+01 (   -0.14248E+01/electron)
 Virial Coefficient  :  -0.8936650315E+00

 orbital energies:
    -0.6466527E+00 ( -17.596eV)


== Virtual Orbital Calculation ==

 Error reading psi - bad grid
 Error reading psi - bad grid
 Error reading psi - bad grid

 Grid is being converted:
 ------------------------

 To turn off automatic grid conversion:

 set nwpw:psi_nogrid .false.

 old_filename: pspw_hf_H2.emovecs                                
 new_filename: pspw_hf_H2.emovecs                                
 converting  :  60x 60x 60 -->  70x 70x 70
converting .... psi:    1 spin: 1
converting .... psi:    2 spin: 1

 input epsi filename:./pspw_hf_H2.emovecs
     orbital   1 current e= 0.563E-02 (error=0.899E-09) iterations   3(   2 preconditioned, Ep,Sp= 20.0  200.0)
     orbital   2 current e= 0.874E-01 (error=0.689E-10) iterations   3(   1 preconditioned, Ep,Sp= 20.0  200.0)

 virtual orbital energies:
     0.8740714E-01 (   2.378eV)
     0.5628513E-02 (   0.153eV)


 == Generating One-Electron and Two-Electron Integrals ==

 begin_one_electron_integrals
    1    1        -1.3590451581
    2    1        -0.0323101477
    3    1        -0.0016000701
    2    2        -0.2747844934
    3    2        -0.0014932337
    3    3        -0.1910327159
 end_one_electron_integrals

 begin_two_electron_integrals
    1    1    1    1        0.7123924817
    1    1    2    1        0.0323050500
    1    1    3    1        0.0016000425
    1    1    2    2        0.1413262185
    1    1    3    2        0.0008052195
    1    1    3    3        0.1392691584
    2    1    2    1        0.0022394309
    2    1    3    1        0.0001172184
    2    1    2    2        0.0003351292
    2    1    3    2       -0.0000061193
    2    1    3    3        0.0001060978
    3    1    3    1        0.0000984568
    3    1    2    2        0.0000122264
    3    1    3    2       -0.0005007039
    3    1    3    3       -0.0001839870
    2    2    2    2        0.1195954352
    2    2    3    2        0.0002741710
    2    2    3    3        0.1203549821
    3    2    3    2        0.0131465325
    3    2    3    3        0.0012800163
    3    3    3    3        0.1283738920
 end_two_electron_integrals


 output epsi filename:./pspw_hf_H2.emovecs

 Total PSPW energy     :  -0.1123735753E+01


=== Spin Contamination ===

 <Sexact^2> =    0.0000000000000000     
 <S^2>      =    0.0000000000000000     



== Center of Charge ==

spin up     (    0.0000,    0.0000,    0.0000 )
spin down   (    0.0000,    0.0000,    0.0000 )
     total  (    0.0000,    0.0000,    0.0000 )
ionic       (    0.0000,    0.0000,    0.0000 )


== Molecular Dipole wrt Center of Mass ==

mu   =  (   -0.0000,   -0.0000,   -0.0000 ) au
|mu| =     0.0000 au,       0.0000 Debye

 output psi filename:./pspw_hf_H2.movecs

 Writing Crystallographic Information File:./H2.cif
   - cell not shifted (nwpw:cif_shift_cell .false.)


== Timing ==

cputime in seconds
  prologue    :   0.910781E+01
  main loop   :   0.111416E+02
  epilogue    :   0.784337E-02
  total       :   0.202572E+02
  cputime/step:   0.412651E+00       (      27 evalulations,      11 linesearches)


Time spent doing                        total          step       percent
  total time                 :   0.202575E+02  0.750277E+00       100.0 %
  i/o time                   :   0.242712E+01  0.898934E-01        12.0 %
  FFTs                       :   0.974660E+01  0.360985E+00        48.1 %
  dot products               :   0.757387E-02  0.280514E-03         0.0 %
  geodesic                   :   0.133707E-01  0.495211E-03         0.1 %
  ffm_dgemm                  :   0.134664E-02  0.498756E-04         0.0 %
  fmf_dgemm                  :   0.657266E-02  0.243432E-03         0.0 %
  mmm_dgemm                  :   0.276157E-03  0.102280E-04         0.0 %
  m_diagonalize              :   0.163016E-03  0.603763E-05         0.0 %
  local pseudopotentials     :   0.966243E-02  0.357868E-03         0.0 %
  non-local pseudopotentials :   0.221532E-01  0.820489E-03         0.1 %
  structure factors          :   0.986776E-02  0.365473E-03         0.0 %
  phase factors              :   0.529300E-05  0.196037E-06         0.0 %
  masking and packing        :   0.102850E+00  0.380926E-02         0.5 %
  queue fft                  :   0.286063E+00  0.105949E-01         1.4 %
  queue fft (serial)         :   0.164029E+00  0.607513E-02         0.8 %
  queue fft (message passing):   0.112007E+00  0.414839E-02         0.6 %
  HFX potential              :   0.518573E+01  0.192064E+00        25.6 %
  non-local psp FFM          :   0.113789E-01  0.421440E-03         0.1 %
  non-local psp FMF          :   0.303051E-02  0.112241E-03         0.0 %
  non-local psp FFM A        :   0.319798E-02  0.118444E-03         0.0 %
  non-local psp FFM B        :   0.217869E-02  0.806922E-04         0.0 %

== HFX Counters ==
  HFX Evalulations         =    27
  Lin ACE HFX Evalulations =     0


     >>>  JOB COMPLETED     AT Wed Apr 30 15:49:47 2025  <<<

 Task  times  cpu:       44.6s     wall:       42.7s
 Summary of allocated global arrays
-----------------------------------
  No active global arrays


MA_summarize_allocated_blocks: starting scan ...
MA_summarize_allocated_blocks: scan completed: 0 heap blocks, 0 stack blocks
MA usage statistics:

	allocation statistics:
					      heap	     stack
					      ----	     -----
	current number of blocks	         0	         0
	maximum number of blocks	       313	        17
	current total bytes		         0	         0
	maximum total bytes		 360497464	  89294088
	maximum total K-bytes		    360498	     89295
	maximum total M-bytes		       361	        90


                                NWChem Input Module
                                -------------------




                                     CITATION
                                     --------
                Please cite the following reference when publishing
                           results obtained with NWChem:

          E. Apra, E. J. Bylaska, W. A. de Jong, N. Govind, K. Kowalski,
       T. P. Straatsma, M. Valiev, H. J. J. van Dam, Y. Alexeev, J. Anchell,
       V. Anisimov, F. W. Aquino, R. Atta-Fynn, J. Autschbach, N. P. Bauman,
     J. C. Becca, D. E. Bernholdt, K. Bhaskaran-Nair, S. Bogatko, P. Borowski,
         J. Boschen, J. Brabec, A. Bruner, E. Cauet, Y. Chen, G. N. Chuev,
      C. J. Cramer, J. Daily, M. J. O. Deegan, T. H. Dunning Jr., M. Dupuis,
   K. G. Dyall, G. I. Fann, S. A. Fischer, A. Fonari, H. Fruchtl, L. Gagliardi,
      J. Garza, N. Gawande, S. Ghosh, K. Glaesemann, A. W. Gotz, J. Hammond,
       V. Helms, E. D. Hermes, K. Hirao, S. Hirata, M. Jacquelin, L. Jensen,
   B. G. Johnson, H. Jonsson, R. A. Kendall, M. Klemm, R. Kobayashi, V. Konkov,
      S. Krishnamoorthy, M. Krishnan, Z. Lin, R. D. Lins, R. J. Littlefield,
      A. J. Logsdail, K. Lopata, W. Ma, A. V. Marenich, J. Martin del Campo,
   D. Mejia-Rodriguez, J. E. Moore, J. M. Mullin, T. Nakajima, D. R. Nascimento,
    J. A. Nichols, P. J. Nichols, J. Nieplocha, A. Otero-de-la-Roza, B. Palmer,
    A. Panyala, T. Pirojsirikul, B. Peng, R. Peverati, J. Pittner, L. Pollack,
   R. M. Richard, P. Sadayappan, G. C. Schatz, W. A. Shelton, D. W. Silverstein,
   D. M. A. Smith, T. A. Soares, D. Song, M. Swart, H. L. Taylor, G. S. Thomas,
            V. Tipparaju, D. G. Truhlar, K. Tsemekhman, T. Van Voorhis,
      A. Vazquez-Mayagoitia, P. Verma, O. Villa, A. Vishnu, K. D. Vogiatzis,
        D. Wang, J. H. Weare, M. J. Williamson, T. L. Windus, K. Wolinski,
        A. T. Wong, Q. Wu, C. Yang, Q. Yu, M. Zacharias, Z. Zhang, Y. Zhao,
                                and R. J. Harrison
                        "NWChem: Past, present, and future
                         J. Chem. Phys. 152, 184102 (2020)
                               doi:10.1063/5.0004997

                                      AUTHORS
                                      -------
  E. Apra, E. J. Bylaska, N. Govind, K. Kowalski, M. Valiev, D. Mejia-Rodriguez,
       A. Kunitsa, N. P. Bauman, A. Panyala, W. A. de Jong, T. P. Straatsma,
   H. J. J. van Dam, D. Wang, T. L. Windus, J. Hammond, J. Autschbach, A. Woods,
    K. Bhaskaran-Nair, J. Brabec, K. Lopata, S. A. Fischer, S. Krishnamoorthy,
     M. Jacquelin, W. Ma, M. Klemm, O. Villa, Y. Chen, V. Anisimov, F. Aquino,
     S. Hirata, M. T. Hackler, E. Hermes, L. Jensen, J. E. Moore, J. C. Becca,
      V. Konjkov, T. Risthaus, M. Malagoli, A. Marenich, A. Otero-de-la-Roza,
        J. Mullin, P. Nichols, R. Peverati, J. Pittner, Y. Zhao, P.-D. Fan,
        A. Fonari, M. J. Williamson, R. J. Harrison, J. R. Rehr, M. Dupuis,
     D. Silverstein, D. M. A. Smith, J. Nieplocha, V. Tipparaju, M. Krishnan,
     B. E. Van Kuiken, A. Vazquez-Mayagoitia, M. Swart, Q. Wu, T. Van Voorhis,
     A. A. Auer, M. Nooijen, L. D. Crosby, E. Brown, G. Cisneros, G. I. Fann,
   H. Fruchtl, J. Garza, K. Hirao, R. A. Kendall, J. A. Nichols, K. Tsemekhman,
    K. Wolinski, J. Anchell, D. E. Bernholdt, P. Borowski, T. Clark, D. Clerc,
   H. Dachsel, M. J. O. Deegan, K. Dyall, D. Elwood, E. Glendening, M. Gutowski,
   A. C. Hess, J. Jaffe, B. G. Johnson, J. Ju, R. Kobayashi, R. Kutteh, Z. Lin,
   R. Littlefield, X. Long, B. Meng, T. Nakajima, S. Niu, L. Pollack, M. Rosing,
   K. Glaesemann, G. Sandrone, M. Stave, H. Taylor, G. Thomas, J. H. van Lenthe,
                               A. T. Wong, Z. Zhang.

 Total times  cpu:       44.7s     wall:       42.8s
